
 *******************************************************************************
 *                                                                             *
 *  --------------------------------                                           *
 *   Amsterdam Modeling Suite (AMS)              2026.103                      *
 *  --------------------------------                                           *
 *                                               r260501 2026-05-01 873454b5   *
 *                                                                             *
 *                                                                             *
 *                              =================                              *
 *                              |               |                              *
 *                              |     A M S     |                              *
 *                              |               |                              *
 *                              =================                              *
 *                                                                             *
 *                                                                             *
 *   Online information and documentation:  https://www.scm.com/support/       *
 *   E-mail:  support@scm.com   info@scm.com                                   *
 *                                                                             *
 *   Scientific publications using AMS results must be properly referenced     *
 *   See the User Manuals (or the web site) for recommended citations          *
 *   The terms and conditions of the End User License Agreement apply to       *
 *   the use of AMS, https://www.scm.com/license-terms/                        *
 *                                                                             *
 **********************  x86_64_linux_intel / intelmpi  ************************
 
 Licensed to: Jong-June Jeon / University of Seoul 2026-06-02 13:44:15
 SCM User ID: u30731
  
 AMS 2026.103  RunTime: Jun04-2026 01:14:12  ShM Nodes: 1  Procs: 1

 AMS jobname: c3_eda
 AMS jobid  : 1772249110

 Start   directory: /gpfs/home1/yeseo1ee/projects/eda-asm-prediction/ADF_800/adf_outputs/batch_006/qmrxn20_sn2_B_E_A_A_A_C/
 Results directory: /gpfs/home1/yeseo1ee/projects/eda-asm-prediction/ADF_800/adf_outputs/batch_006/qmrxn20_sn2_B_E_A_A_A_C/c3_eda.results/
 Scratch directory: /tmp/amstmp_c3_eda_kid0.1772249110/

 RNG seed: -371158533 1777414280 -2094245624 -1746763215 1482439477 -911243401 -1017094464 2015078883



                      ************************************************************************
                      *  ADF 2026.103  RunTime: Jun04-2026 01:14:12  ShM Nodes: 1  Procs: 1  *
                      ************************************************************************
  

       ****************************
       * SINGLE POINT CALCULATION *
       ****************************

--------
Geometry
--------
Formula: C2H5ClFN2O2
Atoms
  Index Symbol   x (angstrom)   y (angstrom)   z (angstrom)
      1      F    -1.16053847    -0.05006826    -0.02950020 adf.f=fA
      2      C     0.79709703    -0.02136211     0.06192259 adf.f=fB
      3      H     1.58099201     1.86780261     0.63300536 adf.f=fB
      4     Cl     2.98902236    -0.23367274    -0.19305632 adf.f=fB
      5      C     0.77160598     1.47793430     0.01927952 adf.f=fB
      6      H    -0.19465447     1.79859248     0.39768308 adf.f=fB
      7      H     0.89576509     1.81426897    -1.00740729 adf.f=fB
      8      N     0.57796244    -0.79415777    -1.23064213 adf.f=fB
      9      O     0.51838609    -0.16544010    -2.27692494 adf.f=fB
     10      O     0.49535316    -2.01099728    -1.12723382 adf.f=fB
     11      N     0.72394328    -0.72052703     1.28114192 adf.f=fB
     12      H     1.28594281    -1.55746048     1.21902388 adf.f=fB
     13      H    -0.25936731    -0.95909259     1.35406834 adf.f=fB

Total System Charge             -1.00000


----------------
ADF Engine Input
----------------
 
   Basis
     Type TZ2P
     Core None
   End
   XC
     GGA BLYP
     Dispersion GRIMME3 BJDAMP
   End
   Symmetry NOSYM
   NumericalQuality Normal
   Unrestricted No
   SCF
     Iterations 200
     Converge 1.0e-6
   End
   fragments
     fA c1_fragA_ts.results/adf.rkf
     fB c2_fragB_ts.results/adf.rkf
   end
   etsnocv
     enocv 0.05
     ekmin 0.5
   end
   print etslowdin
   Save TAPE21
 

 Title: *** (NO TITLE) ***

 *** adf ***



 ===========================
 A T T A C H E D   F I L E S
 ===========================
  



 ===============================
 M O D E L   P A R A M E T E R S
 ===============================
  
 DENSITY FUNCTIONAL POTENTIAL (scf)
    LDA:                               Exchange only                           == Not Default ==
    Gradient Corrections:              Becke88 LYP                             == Not Default ==

 SPIN  (restricted / unrestr.)
    Molecule:                          Restricted                               
    Fragments:                         Restricted                               

 OTHER ASPECTS
    Relativistic Corrections:          scalar (ZORA,MAPA)                       

    Nuclear Charge Density Model:      Point Charge Nuclei                      
    Core Treatment:                    Frozen Orbital(s)                        

    Hyperfine or Zeeman Interaction:   ---                                      

 Settings for Grimme D3 dispersion correction

      damping                        BJ
      s6                          1.000
      s8                          2.700
      a1                          0.430
      a2                          4.236

 Other (technical) parameters

      alpha                      14.000
      version                         4
 


 Fragment File(s)
 ----------------
 fA:
         file : c1_fragA_ts.results/adf.rkf
         jobid: 97925929
         title: *** adf ***
 fB:
         file : c2_fragB_ts.results/adf.rkf
         jobid: 2052117879
         title: *** adf ***



 ===============
 G E O M E T R Y  ***  3D  Molecule  ***
 ===============
  

 ATOMS
 =====                            X Y Z                    CHARGE
                                (Angstrom)             Nucl     +Core       At.Mass
                       --------------------------    ----------------       -------
    1  F              -1.1605   -0.0501   -0.0295      9.00      9.00       18.9984
    2  C               0.7971   -0.0214    0.0619      6.00      6.00       12.0000
    3  H               1.5810    1.8678    0.6330      1.00      1.00        1.0078
    4  Cl              2.9890   -0.2337   -0.1931     17.00     17.00       34.9689
    5  C               0.7716    1.4779    0.0193      6.00      6.00       12.0000
    6  H              -0.1947    1.7986    0.3977      1.00      1.00        1.0078
    7  H               0.8958    1.8143   -1.0074      1.00      1.00        1.0078
    8  N               0.5780   -0.7942   -1.2306      7.00      7.00       14.0031
    9  O               0.5184   -0.1654   -2.2769      8.00      8.00       15.9949
   10  O               0.4954   -2.0110   -1.1272      8.00      8.00       15.9949
   11  N               0.7239   -0.7205    1.2811      7.00      7.00       14.0031
   12  H               1.2859   -1.5575    1.2190      1.00      1.00        1.0078
   13  H              -0.2594   -0.9591    1.3541      1.00      1.00        1.0078


 FRAGMENTS
 =========                                     Atoms in this Fragment     Cart. coord.s (Angstrom)
                                               -------------------------------------------------------
    1  fA                                                1  F           -1.1605   -0.0501   -0.0295
    2  fB                                                2  C            0.7971   -0.0214    0.0619
                                                         5  C            0.7716    1.4779    0.0193
                                                         3  H            1.5810    1.8678    0.6330
                                                         6  H           -0.1947    1.7986    0.3977
                                                         7  H            0.8958    1.8143   -1.0074
                                                        12  H            1.2859   -1.5575    1.2190
                                                        13  H           -0.2594   -0.9591    1.3541
                                                         4  Cl           2.9890   -0.2337   -0.1931
                                                         8  N            0.5780   -0.7942   -1.2306
                                                        11  N            0.7239   -0.7205    1.2811
                                                         9  O            0.5184   -0.1654   -2.2769
                                                        10  O            0.4954   -2.0110   -1.1272


 Interatomic Distance Matrix (Angstrom)
 --------------------------------------

   1)     0.000
   2)     1.960   0.000
   3)     3.411   2.124   0.000
   4)     4.157   2.217   2.661   0.000
   5)     2.464   1.500   1.088   2.809   0.000
   6)     2.129   2.100   1.793   3.823   1.086   0.000
   7)     2.943   2.127   1.779   3.040   1.087   1.779   0.000
   8)     2.240   1.522   3.401   2.684   2.600   3.158   2.637   0.000
   9)     2.808   2.360   3.706   3.233   2.835   3.394   2.382   1.222   0.000
  10)     2.791   2.337   4.396   3.202   3.683   4.161   3.848   1.224   2.174   0.000
  11)     2.391   1.407   2.803   2.746   2.535   2.823   3.419   2.517   3.607   2.742
          0.000
  12)     3.133   1.984   3.488   2.578   3.304   3.759   4.059   2.662   3.840   2.517
          1.010   0.000
  13)     1.885   1.914   3.449   3.670   2.964   2.920   3.821   2.722   3.797   2.799
          1.014   1.663   0.000

 Min. Distance =    1.0100
 Max. Distance =    4.3957



 =====================================
 S Y M M E T R Y ,   E L E C T R O N S
 =====================================
  
 Symmetry: NOSYM

 Irreducible Representations, including subspecies
 -------------------------------------------------
 A


 Configuration of Valence Electrons
 ==================================
 ( determined in the SCF procedure )

 Total:   74

 Net Charge: -1 (Nuclei minus Electrons)

 Aufbau principle for MO occupations will be applied through SCF cycle no.     100
 Thereafter, the program will assign electrons to MOs that are spatially
 similar to the occupied MOs in a "reference" cycle ("KeepOrbitals").
 The reference cycle is always the PREVIOUS cycle: it will evolve with
 the SCF procedure.
 ***************************************************************************************************



                                      ****************************************
                                      *  B U I L D : (Fragments, Functions)  *
                                      ****************************************
  

 The individual fragments are copies of the corresponding 'Master' fragments defined on the fragment files.
 However, they may have been rotated (and translated) with respect to the Master. The local coordinate axes
 of each fragment (which define for instance the spatial orientation in the current molecule of a fragment
 P:x orbital) are not necessarily those of the molecule.
 The local frame (if different from the molecular one) is printed to enable an interpretation of the expan-
 sion of an MO in Fragment Orbitals.



                                              ************************
                                              *  Fragment Type : fA  *
                                              ************************
  

 Fragment no.    1   (in the list of all fragments)
 -----------------
 The local coordinate frame is identical to the molecular frame.

 Check Atomic Coordinates:

                  Master (on file)          After Computed Tranformation               As specified on Input
           ----------------------------     ----------------------------     ---------------------------------
     1)    -1.16054  -0.05007  -0.02950     -1.16054  -0.05007  -0.02950       1  -1.16054  -0.05007  -0.02950



                                              ************************
                                              *  Fragment Type : fB  *
                                              ************************
  

 Fragment no.    2   (in the list of all fragments)
 -----------------
 The local coordinate frame is identical to the molecular frame.

 Check Atomic Coordinates:

                  Master (on file)          After Computed Tranformation               As specified on Input
           ----------------------------     ----------------------------     ---------------------------------
     1)     0.79710  -0.02136   0.06192      0.79710  -0.02136   0.06192       2   0.79710  -0.02136   0.06192
     2)     0.77161   1.47793   0.01928      0.77161   1.47793   0.01928       5   0.77161   1.47793   0.01928
     3)     1.58099   1.86780   0.63301      1.58099   1.86780   0.63301       3   1.58099   1.86780   0.63301
     4)    -0.19465   1.79859   0.39768     -0.19465   1.79859   0.39768       6  -0.19465   1.79859   0.39768
     5)     0.89577   1.81427  -1.00741      0.89577   1.81427  -1.00741       7   0.89577   1.81427  -1.00741
     6)     1.28594  -1.55746   1.21902      1.28594  -1.55746   1.21902      12   1.28594  -1.55746   1.21902
     7)    -0.25937  -0.95909   1.35407     -0.25937  -0.95909   1.35407      13  -0.25937  -0.95909   1.35407
     8)     2.98902  -0.23367  -0.19306      2.98902  -0.23367  -0.19306       4   2.98902  -0.23367  -0.19306
     9)     0.57796  -0.79416  -1.23064      0.57796  -0.79416  -1.23064       8   0.57796  -0.79416  -1.23064
    10)     0.72394  -0.72053   1.28114      0.72394  -0.72053   1.28114      11   0.72394  -0.72053   1.28114
    11)     0.51839  -0.16544  -2.27692      0.51839  -0.16544  -2.27692       9   0.51839  -0.16544  -2.27692
    12)     0.49535  -2.01100  -1.12723      0.49535  -2.01100  -1.12723      10   0.49535  -2.01100  -1.12723



 =======
 S F O s  ***  (Symmetrized Fragment Orbitals)  ***
 =======
  
 SFOs are linear combinations of (valence) Fragment Orbitals (FOs), such that the SFOs transform as the
 irreducible representations of the (molecular) symmetry group. Each SFO is therefore characterized by
 an irrep of the molecule and by a few (or only one) generating FOs.
 The SFOs constitute a symmetry-adapted basis for the Fock matrix. The MO eigenvector coefficients in
 this basis provide a direct interpretation of the MOs in terms of Frontier Orbital Theory.

 The SFOs are combined with auxiliary Core Functions (CFs) to ensure orthogonalization on the (frozen)
 Core Orbitals (COs). The Core-orthogonalized SFOs (CSFOs) constitute the true Fock basis.

 The FOs, and hence also the (C)SFOs are combinations of the elementary basis functions (BAS). The basis
 functions that participate in the description of the SFOs depend on the irrep. The indices of the
 involved functions are printed below for each irrep.
 (The complete list of primitive basis functions is printed in another section)

 Total nr. of (C)SFOs (summation over all irreps) :   271

 NOTE: a (C)SFO that is defined as a combination of more than one FO is usually NOT normalized.



                                       === A ===
 Nr. of SFOs :  271
 Cartesian basis functions that participate in this irrep (total number =   308) :
      1     2     3     4     5     6     9    12     7    10
     13     8    11    14    15    16    17    18    19    20
     21    22    23    24    25    26    27    28    29    30
     31    32    33    34    35    36    39    42    37    40
     43    38    41    44    45    46    47    48    49    50
     51    52    53    54    55    56    57    58    59    60
     61    62    63    64    65    66    69    72    67    70
     73    68    71    74    75    76    77    78    79    80
     81    82    83    84    85    86    87    88    89    90
     91    92    93    94    95    96    97    98    99   100
    101   102   103   104   105   106   107   108   109   110
    111   112   113   114   115   116   117   118   119   120
    121   122   123   124   125   126   127   128   129   130
    131   132   133   134   135   136   137   138   139   140
    141   142   143   144   145   146   147   148   149   150
    151   152   153   154   161   162   163   155   158   164
    167   170   156   159   165   168   171   157   160   166
    169   172   173   174   175   176   177   178   179   180
    181   182   183   184   185   186   187   188   189   190
    191   192   193   194   197   200   195   198   201   196
    199   202   203   204   205   206   207   208   209   210
    211   212   213   214   215   216   217   218   219   220
    221   222   223   224   227   230   225   228   231   226
    229   232   233   234   235   236   237   238   239   240
    241   242   243   244   245   246   247   248   249   250
    251   252   253   254   257   260   255   258   261   256
    259   262   263   264   265   266   267   268   269   270
    271   272   273   274   275   276   277   278   279   280
    281   282   283   284   287   290   285   288   291   286
    289   292   293   294   295   296   297   298   299   300
    301   302   303   304   305   306   307   308

    SFO  (index         Fragment          Generating    Expansion in Fragment Orbitals
  indx  incl.CFs)   Occup   Orb.Energy   FragmentType  Coeff.   Orbital     on Fragment
 --------------------------------------------------------------------------------------
     1       1      2.000     -23.816 au  fA            1.00      1 A               1
                        (    -648.061 eV)
     2       2      2.000      -0.558 au  fA            1.00      2 A               1
                        (     -15.175 eV)
     3       3      2.000       0.108 au  fA            1.00      3 A               1
                        (       2.943 eV)
     4       4      2.000       0.108 au  fA            1.00      4 A               1
                        (       2.943 eV)
     5       5      2.000       0.108 au  fA            1.00      5 A               1
                        (       2.943 eV)
     6       6       --         0.286 au  fA            1.00      6 A               1
                        (       7.775 eV)
     7       7       --         0.812 au  fA            1.00      7 A               1
                        (      22.094 eV)
     8       8       --         0.812 au  fA            1.00      8 A               1
                        (      22.094 eV)
     9       9       --         0.812 au  fA            1.00      9 A               1
                        (      22.094 eV)
    10      10       --         1.565 au  fA            1.00     10 A               1
                        (      42.594 eV)
    11      11       --         1.565 au  fA            1.00     11 A               1
                        (      42.594 eV)
    12      12       --         1.565 au  fA            1.00     12 A               1
                        (      42.594 eV)
    13      13       --         1.565 au  fA            1.00     13 A               1
                        (      42.594 eV)
    14      14       --         1.565 au  fA            1.00     14 A               1
                        (      42.594 eV)
    15      15       --         2.036 au  fA            1.00     15 A               1
                        (      55.390 eV)
    16      16       --         3.895 au  fA            1.00     16 A               1
                        (     106.000 eV)
    17      17       --         3.895 au  fA            1.00     17 A               1
                        (     106.000 eV)
    18      18       --         3.895 au  fA            1.00     18 A               1
                        (     106.000 eV)
    19      19       --         3.895 au  fA            1.00     19 A               1
                        (     106.000 eV)
    20      20       --         3.895 au  fA            1.00     20 A               1
                        (     106.000 eV)
    21      21       --         3.895 au  fA            1.00     21 A               1
                        (     106.000 eV)
    22      22       --         3.895 au  fA            1.00     22 A               1
                        (     106.000 eV)
    23      23       --         5.080 au  fA            1.00     23 A               1
                        (     138.227 eV)
    24      24       --         5.080 au  fA            1.00     24 A               1
                        (     138.227 eV)
    25      25       --         5.080 au  fA            1.00     25 A               1
                        (     138.227 eV)
    26      26       --        48.370 au  fA            1.00     26 A               1
                        (    1316.209 eV)
    27      27      2.000    -101.065 au  fB            1.00      1 A               2
                        (   -2750.107 eV)
    28      28      2.000     -18.851 au  fB            1.00      2 A               2
                        (    -512.960 eV)
    29      29      2.000     -18.851 au  fB            1.00      3 A               2
                        (    -512.949 eV)
    30      30      2.000     -14.267 au  fB            1.00      4 A               2
                        (    -388.234 eV)
    31      31      2.000     -14.070 au  fB            1.00      5 A               2
                        (    -382.861 eV)
    32      32      2.000     -10.098 au  fB            1.00      6 A               2
                        (    -274.768 eV)
    33      33      2.000      -9.959 au  fB            1.00      7 A               2
                        (    -270.992 eV)
    34      34      2.000      -9.218 au  fB            1.00      8 A               2
                        (    -250.832 eV)
    35      35      2.000      -6.985 au  fB            1.00      9 A               2
                        (    -190.074 eV)
    36      36      2.000      -6.975 au  fB            1.00     10 A               2
                        (    -189.796 eV)
    37      37      2.000      -6.975 au  fB            1.00     11 A               2
                        (    -189.795 eV)
    38      38      2.000      -1.156 au  fB            1.00     12 A               2
                        (     -31.458 eV)
    39      39      2.000      -0.994 au  fB            1.00     13 A               2
                        (     -27.054 eV)
    40      40      2.000      -0.896 au  fB            1.00     14 A               2
                        (     -24.375 eV)
    41      41      2.000      -0.756 au  fB            1.00     15 A               2
                        (     -20.563 eV)
    42      42      2.000      -0.709 au  fB            1.00     16 A               2
                        (     -19.294 eV)
    43      43      2.000      -0.675 au  fB            1.00     17 A               2
                        (     -18.368 eV)
    44      44      2.000      -0.543 au  fB            1.00     18 A               2
                        (     -14.786 eV)
    45      45      2.000      -0.525 au  fB            1.00     19 A               2
                        (     -14.295 eV)
    46      46      2.000      -0.519 au  fB            1.00     20 A               2
                        (     -14.133 eV)
    47      47      2.000      -0.490 au  fB            1.00     21 A               2
                        (     -13.335 eV)
    48      48      2.000      -0.481 au  fB            1.00     22 A               2
                        (     -13.079 eV)
    49      49      2.000      -0.428 au  fB            1.00     23 A               2
                        (     -11.659 eV)
    50      50      2.000      -0.416 au  fB            1.00     24 A               2
                        (     -11.319 eV)
    51      51      2.000      -0.390 au  fB            1.00     25 A               2
                        (     -10.602 eV)
    52      52      2.000      -0.316 au  fB            1.00     26 A               2
                        (      -8.606 eV)
    53      53      2.000      -0.309 au  fB            1.00     27 A               2
                        (      -8.415 eV)
    54      54      2.000      -0.303 au  fB            1.00     28 A               2
                        (      -8.243 eV)
    55      55      2.000      -0.279 au  fB            1.00     29 A               2
                        (      -7.599 eV)
    56      56      2.000      -0.265 au  fB            1.00     30 A               2
                        (      -7.219 eV)
    57      57      2.000      -0.263 au  fB            1.00     31 A               2
                        (      -7.144 eV)
    58      58      2.000      -0.257 au  fB            1.00     32 A               2
                        (      -6.996 eV)
    59      59       --        -0.169 au  fB            1.00     33 A               2
                        (      -4.599 eV)
    60      60       --        -0.092 au  fB            1.00     34 A               2
                        (      -2.516 eV)
    61      61       --        -0.031 au  fB            1.00     35 A               2
                        (      -0.841 eV)
    62      62       --         0.007 au  fB            1.00     36 A               2
                        (       0.190 eV)
    63      63       --         0.025 au  fB            1.00     37 A               2
                        (       0.672 eV)
    64      64       --         0.035 au  fB            1.00     38 A               2
                        (       0.947 eV)
    65      65       --         0.052 au  fB            1.00     39 A               2
                        (       1.405 eV)
    66      66       --         0.064 au  fB            1.00     40 A               2
                        (       1.736 eV)
    67      67       --         0.097 au  fB            1.00     41 A               2
                        (       2.630 eV)
    68      68       --         0.116 au  fB            1.00     42 A               2
                        (       3.152 eV)
    69      69       --         0.148 au  fB            1.00     43 A               2
                        (       4.020 eV)
    70      70       --         0.153 au  fB            1.00     44 A               2
                        (       4.159 eV)
    71      71       --         0.160 au  fB            1.00     45 A               2
                        (       4.359 eV)
    72      72       --         0.174 au  fB            1.00     46 A               2
                        (       4.736 eV)
    73      73       --         0.203 au  fB            1.00     47 A               2
                        (       5.532 eV)
    74      74       --         0.209 au  fB            1.00     48 A               2
                        (       5.687 eV)
    75      75       --         0.231 au  fB            1.00     49 A               2
                        (       6.292 eV)
    76      76       --         0.236 au  fB            1.00     50 A               2
                        (       6.433 eV)
    77      77       --         0.252 au  fB            1.00     51 A               2
                        (       6.844 eV)
    78      78       --         0.270 au  fB            1.00     52 A               2
                        (       7.342 eV)
    79      79       --         0.299 au  fB            1.00     53 A               2
                        (       8.128 eV)
    80      80       --         0.305 au  fB            1.00     54 A               2
                        (       8.301 eV)
    81      81       --         0.310 au  fB            1.00     55 A               2
                        (       8.449 eV)
    82      82       --         0.323 au  fB            1.00     56 A               2
                        (       8.778 eV)
    83      83       --         0.338 au  fB            1.00     57 A               2
                        (       9.192 eV)
    84      84       --         0.350 au  fB            1.00     58 A               2
                        (       9.524 eV)
    85      85       --         0.359 au  fB            1.00     59 A               2
                        (       9.778 eV)
    86      86       --         0.367 au  fB            1.00     60 A               2
                        (       9.992 eV)
    87      87       --         0.375 au  fB            1.00     61 A               2
                        (      10.210 eV)
    88      88       --         0.393 au  fB            1.00     62 A               2
                        (      10.705 eV)
    89      89       --         0.410 au  fB            1.00     63 A               2
                        (      11.150 eV)
    90      90       --         0.426 au  fB            1.00     64 A               2
                        (      11.593 eV)
    91      91       --         0.443 au  fB            1.00     65 A               2
                        (      12.067 eV)
    92      92       --         0.466 au  fB            1.00     66 A               2
                        (      12.681 eV)
    93      93       --         0.471 au  fB            1.00     67 A               2
                        (      12.827 eV)
    94      94       --         0.485 au  fB            1.00     68 A               2
                        (      13.204 eV)
    95      95       --         0.498 au  fB            1.00     69 A               2
                        (      13.543 eV)
    96      96       --         0.544 au  fB            1.00     70 A               2
                        (      14.791 eV)
    97      97       --         0.555 au  fB            1.00     71 A               2
                        (      15.109 eV)
    98      98       --         0.583 au  fB            1.00     72 A               2
                        (      15.852 eV)
    99      99       --         0.634 au  fB            1.00     73 A               2
                        (      17.248 eV)
   100     100       --         0.656 au  fB            1.00     74 A               2
                        (      17.844 eV)
   101     101       --         0.687 au  fB            1.00     75 A               2
                        (      18.698 eV)
   102     102       --         0.697 au  fB            1.00     76 A               2
                        (      18.972 eV)
   103     103       --         0.713 au  fB            1.00     77 A               2
                        (      19.389 eV)
   104     104       --         0.789 au  fB            1.00     78 A               2
                        (      21.478 eV)
   105     105       --         0.810 au  fB            1.00     79 A               2
                        (      22.051 eV)
   106     106       --         0.847 au  fB            1.00     80 A               2
                        (      23.052 eV)
   107     107       --         0.858 au  fB            1.00     81 A               2
                        (      23.341 eV)
   108     108       --         0.894 au  fB            1.00     82 A               2
                        (      24.318 eV)
   109     109       --         0.933 au  fB            1.00     83 A               2
                        (      25.382 eV)
   110     110       --         0.954 au  fB            1.00     84 A               2
                        (      25.953 eV)
   111     111       --         0.986 au  fB            1.00     85 A               2
                        (      26.838 eV)
   112     112       --         1.022 au  fB            1.00     86 A               2
                        (      27.811 eV)
   113     113       --         1.043 au  fB            1.00     87 A               2
                        (      28.393 eV)
   114     114       --         1.051 au  fB            1.00     88 A               2
                        (      28.605 eV)
   115     115       --         1.062 au  fB            1.00     89 A               2
                        (      28.904 eV)
   116     116       --         1.124 au  fB            1.00     90 A               2
                        (      30.582 eV)
   117     117       --         1.146 au  fB            1.00     91 A               2
                        (      31.192 eV)
   118     118       --         1.168 au  fB            1.00     92 A               2
                        (      31.786 eV)
   119     119       --         1.174 au  fB            1.00     93 A               2
                        (      31.943 eV)
   120     120       --         1.215 au  fB            1.00     94 A               2
                        (      33.065 eV)
   121     121       --         1.237 au  fB            1.00     95 A               2
                        (      33.654 eV)
   122     122       --         1.242 au  fB            1.00     96 A               2
                        (      33.792 eV)
   123     123       --         1.251 au  fB            1.00     97 A               2
                        (      34.048 eV)
   124     124       --         1.268 au  fB            1.00     98 A               2
                        (      34.510 eV)
   125     125       --         1.278 au  fB            1.00     99 A               2
                        (      34.786 eV)
   126     126       --         1.299 au  fB            1.00    100 A               2
                        (      35.348 eV)
   127     127       --         1.305 au  fB            1.00    101 A               2
                        (      35.510 eV)
   128     128       --         1.311 au  fB            1.00    102 A               2
                        (      35.683 eV)
   129     129       --         1.331 au  fB            1.00    103 A               2
                        (      36.224 eV)
   130     130       --         1.360 au  fB            1.00    104 A               2
                        (      37.010 eV)
   131     131       --         1.386 au  fB            1.00    105 A               2
                        (      37.707 eV)
   132     132       --         1.418 au  fB            1.00    106 A               2
                        (      38.577 eV)
   133     133       --         1.448 au  fB            1.00    107 A               2
                        (      39.389 eV)
   134     134       --         1.486 au  fB            1.00    108 A               2
                        (      40.436 eV)
   135     135       --         1.491 au  fB            1.00    109 A               2
                        (      40.584 eV)
   136     136       --         1.535 au  fB            1.00    110 A               2
                        (      41.773 eV)
   137     137       --         1.564 au  fB            1.00    111 A               2
                        (      42.565 eV)
   138     138       --         1.628 au  fB            1.00    112 A               2
                        (      44.309 eV)
   139     139       --         1.659 au  fB            1.00    113 A               2
                        (      45.138 eV)
   140     140       --         1.668 au  fB            1.00    114 A               2
                        (      45.401 eV)
   141     141       --         1.739 au  fB            1.00    115 A               2
                        (      47.334 eV)
   142     142       --         1.766 au  fB            1.00    116 A               2
                        (      48.060 eV)
   143     143       --         1.814 au  fB            1.00    117 A               2
                        (      49.359 eV)
   144     144       --         1.852 au  fB            1.00    118 A               2
                        (      50.407 eV)
   145     145       --         1.891 au  fB            1.00    119 A               2
                        (      51.447 eV)
   146     146       --         1.915 au  fB            1.00    120 A               2
                        (      52.116 eV)
   147     147       --         1.937 au  fB            1.00    121 A               2
                        (      52.706 eV)
   148     148       --         1.957 au  fB            1.00    122 A               2
                        (      53.245 eV)
   149     149       --         2.013 au  fB            1.00    123 A               2
                        (      54.774 eV)
   150     150       --         2.044 au  fB            1.00    124 A               2
                        (      55.609 eV)
   151     151       --         2.062 au  fB            1.00    125 A               2
                        (      56.096 eV)
   152     152       --         2.080 au  fB            1.00    126 A               2
                        (      56.599 eV)
   153     153       --         2.115 au  fB            1.00    127 A               2
                        (      57.563 eV)
   154     154       --         2.159 au  fB            1.00    128 A               2
                        (      58.747 eV)
   155     155       --         2.199 au  fB            1.00    129 A               2
                        (      59.832 eV)
   156     156       --         2.226 au  fB            1.00    130 A               2
                        (      60.579 eV)
   157     157       --         2.259 au  fB            1.00    131 A               2
                        (      61.470 eV)
   158     158       --         2.284 au  fB            1.00    132 A               2
                        (      62.144 eV)
   159     159       --         2.316 au  fB            1.00    133 A               2
                        (      63.010 eV)
   160     160       --         2.334 au  fB            1.00    134 A               2
                        (      63.500 eV)
   161     161       --         2.357 au  fB            1.00    135 A               2
                        (      64.134 eV)
   162     162       --         2.391 au  fB            1.00    136 A               2
                        (      65.054 eV)
   163     163       --         2.473 au  fB            1.00    137 A               2
                        (      67.301 eV)
   164     164       --         2.500 au  fB            1.00    138 A               2
                        (      68.023 eV)
   165     165       --         2.586 au  fB            1.00    139 A               2
                        (      70.367 eV)
   166     166       --         2.591 au  fB            1.00    140 A               2
                        (      70.502 eV)
   167     167       --         2.664 au  fB            1.00    141 A               2
                        (      72.503 eV)
   168     168       --         2.702 au  fB            1.00    142 A               2
                        (      73.518 eV)
   169     169       --         2.720 au  fB            1.00    143 A               2
                        (      74.024 eV)
   170     170       --         2.813 au  fB            1.00    144 A               2
                        (      76.533 eV)
   171     171       --         2.827 au  fB            1.00    145 A               2
                        (      76.927 eV)
   172     172       --         2.880 au  fB            1.00    146 A               2
                        (      78.356 eV)
   173     173       --         2.901 au  fB            1.00    147 A               2
                        (      78.933 eV)
   174     174       --         2.951 au  fB            1.00    148 A               2
                        (      80.295 eV)
   175     175       --         2.968 au  fB            1.00    149 A               2
                        (      80.773 eV)
   176     176       --         3.008 au  fB            1.00    150 A               2
                        (      81.851 eV)
   177     177       --         3.031 au  fB            1.00    151 A               2
                        (      82.474 eV)
   178     178       --         3.077 au  fB            1.00    152 A               2
                        (      83.726 eV)
   179     179       --         3.084 au  fB            1.00    153 A               2
                        (      83.907 eV)
   180     180       --         3.119 au  fB            1.00    154 A               2
                        (      84.882 eV)
   181     181       --         3.217 au  fB            1.00    155 A               2
                        (      87.549 eV)
   182     182       --         3.268 au  fB            1.00    156 A               2
                        (      88.932 eV)
   183     183       --         3.310 au  fB            1.00    157 A               2
                        (      90.074 eV)
   184     184       --         3.377 au  fB            1.00    158 A               2
                        (      91.898 eV)
   185     185       --         3.395 au  fB            1.00    159 A               2
                        (      92.390 eV)
   186     186       --         3.413 au  fB            1.00    160 A               2
                        (      92.878 eV)
   187     187       --         3.432 au  fB            1.00    161 A               2
                        (      93.402 eV)
   188     188       --         3.453 au  fB            1.00    162 A               2
                        (      93.957 eV)
   189     189       --         3.471 au  fB            1.00    163 A               2
                        (      94.441 eV)
   190     190       --         3.496 au  fB            1.00    164 A               2
                        (      95.139 eV)
   191     191       --         3.526 au  fB            1.00    165 A               2
                        (      95.949 eV)
   192     192       --         3.568 au  fB            1.00    166 A               2
                        (      97.102 eV)
   193     193       --         3.611 au  fB            1.00    167 A               2
                        (      98.259 eV)
   194     194       --         3.623 au  fB            1.00    168 A               2
                        (      98.598 eV)
   195     195       --         3.678 au  fB            1.00    169 A               2
                        (     100.082 eV)
   196     196       --         3.720 au  fB            1.00    170 A               2
                        (     101.220 eV)
   197     197       --         3.747 au  fB            1.00    171 A               2
                        (     101.972 eV)
   198     198       --         3.764 au  fB            1.00    172 A               2
                        (     102.419 eV)
   199     199       --         3.841 au  fB            1.00    173 A               2
                        (     104.512 eV)
   200     200       --         3.930 au  fB            1.00    174 A               2
                        (     106.948 eV)
   201     201       --         3.964 au  fB            1.00    175 A               2
                        (     107.854 eV)
   202     202       --         3.987 au  fB            1.00    176 A               2
                        (     108.495 eV)
   203     203       --         4.027 au  fB            1.00    177 A               2
                        (     109.575 eV)
   204     204       --         4.048 au  fB            1.00    178 A               2
                        (     110.157 eV)
   205     205       --         4.077 au  fB            1.00    179 A               2
                        (     110.947 eV)
   206     206       --         4.149 au  fB            1.00    180 A               2
                        (     112.910 eV)
   207     207       --         4.159 au  fB            1.00    181 A               2
                        (     113.159 eV)
   208     208       --         4.211 au  fB            1.00    182 A               2
                        (     114.590 eV)
   209     209       --         4.299 au  fB            1.00    183 A               2
                        (     116.985 eV)
   210     210       --         4.340 au  fB            1.00    184 A               2
                        (     118.094 eV)
   211     211       --         4.358 au  fB            1.00    185 A               2
                        (     118.574 eV)
   212     212       --         4.394 au  fB            1.00    186 A               2
                        (     119.573 eV)
   213     213       --         4.455 au  fB            1.00    187 A               2
                        (     121.238 eV)
   214     214       --         4.487 au  fB            1.00    188 A               2
                        (     122.109 eV)
   215     215       --         4.569 au  fB            1.00    189 A               2
                        (     124.325 eV)
   216     216       --         4.654 au  fB            1.00    190 A               2
                        (     126.653 eV)
   217     217       --         4.679 au  fB            1.00    191 A               2
                        (     127.311 eV)
   218     218       --         4.730 au  fB            1.00    192 A               2
                        (     128.703 eV)
   219     219       --         4.788 au  fB            1.00    193 A               2
                        (     130.279 eV)
   220     220       --         4.804 au  fB            1.00    194 A               2
                        (     130.733 eV)
   221     221       --         4.867 au  fB            1.00    195 A               2
                        (     132.447 eV)
   222     222       --         4.947 au  fB            1.00    196 A               2
                        (     134.623 eV)
   223     223       --         5.006 au  fB            1.00    197 A               2
                        (     136.208 eV)
   224     224       --         5.034 au  fB            1.00    198 A               2
                        (     136.987 eV)
   225     225       --         5.106 au  fB            1.00    199 A               2
                        (     138.941 eV)
   226     226       --         5.146 au  fB            1.00    200 A               2
                        (     140.027 eV)
   227     227       --         5.301 au  fB            1.00    201 A               2
                        (     144.260 eV)
   228     228       --         5.330 au  fB            1.00    202 A               2
                        (     145.033 eV)
   229     229       --         5.456 au  fB            1.00    203 A               2
                        (     148.477 eV)
   230     230       --         5.541 au  fB            1.00    204 A               2
                        (     150.785 eV)
   231     231       --         5.587 au  fB            1.00    205 A               2
                        (     152.033 eV)
   232     232       --         5.636 au  fB            1.00    206 A               2
                        (     153.359 eV)
   233     233       --         5.733 au  fB            1.00    207 A               2
                        (     156.007 eV)
   234     234       --         5.887 au  fB            1.00    208 A               2
                        (     160.196 eV)
   235     235       --         6.097 au  fB            1.00    209 A               2
                        (     165.913 eV)
   236     236       --         6.271 au  fB            1.00    210 A               2
                        (     170.651 eV)
   237     237       --         6.287 au  fB            1.00    211 A               2
                        (     171.081 eV)
   238     238       --         6.389 au  fB            1.00    212 A               2
                        (     173.850 eV)
   239     239       --         6.445 au  fB            1.00    213 A               2
                        (     175.367 eV)
   240     240       --         6.479 au  fB            1.00    214 A               2
                        (     176.315 eV)
   241     241       --         6.494 au  fB            1.00    215 A               2
                        (     176.704 eV)
   242     242       --         6.622 au  fB            1.00    216 A               2
                        (     180.185 eV)
   243     243       --         6.671 au  fB            1.00    217 A               2
                        (     181.534 eV)
   244     244       --         6.715 au  fB            1.00    218 A               2
                        (     182.712 eV)
   245     245       --         6.843 au  fB            1.00    219 A               2
                        (     186.218 eV)
   246     246       --         6.941 au  fB            1.00    220 A               2
                        (     188.869 eV)
   247     247       --         7.039 au  fB            1.00    221 A               2
                        (     191.545 eV)
   248     248       --         7.164 au  fB            1.00    222 A               2
                        (     194.932 eV)
   249     249       --         7.417 au  fB            1.00    223 A               2
                        (     201.819 eV)
   250     250       --         7.463 au  fB            1.00    224 A               2
                        (     203.065 eV)
   251     251       --         7.513 au  fB            1.00    225 A               2
                        (     204.426 eV)
   252     252       --         7.787 au  fB            1.00    226 A               2
                        (     211.889 eV)
   253     253       --         8.190 au  fB            1.00    227 A               2
                        (     222.861 eV)
   254     254       --         8.718 au  fB            1.00    228 A               2
                        (     237.242 eV)
   255     255       --         8.907 au  fB            1.00    229 A               2
                        (     242.385 eV)
   256     256       --         9.398 au  fB            1.00    230 A               2
                        (     255.738 eV)
   257     257       --         9.832 au  fB            1.00    231 A               2
                        (     267.539 eV)
   258     258       --        10.590 au  fB            1.00    232 A               2
                        (     288.156 eV)
   259     259       --        13.837 au  fB            1.00    233 A               2
                        (     376.531 eV)
   260     260       --        15.676 au  fB            1.00    234 A               2
                        (     426.572 eV)
   261     261       --        15.955 au  fB            1.00    235 A               2
                        (     434.148 eV)
   262     262       --        19.023 au  fB            1.00    236 A               2
                        (     517.634 eV)
   263     263       --        19.100 au  fB            1.00    237 A               2
                        (     519.727 eV)
   264     264       --        19.468 au  fB            1.00    238 A               2
                        (     529.744 eV)
   265     265       --        55.520 au  fB            1.00    239 A               2
                        (    1510.786 eV)
   266     266       --        58.499 au  fB            1.00    240 A               2
                        (    1591.839 eV)
   267     267       --        71.476 au  fB            1.00    241 A               2
                        (    1944.957 eV)
   268     268       --        72.190 au  fB            1.00    242 A               2
                        (    1964.396 eV)
   269     269       --       127.897 au  fB            1.00    243 A               2
                        (    3480.242 eV)
   270     270       --       128.763 au  fB            1.00    244 A               2
                        (    3503.812 eV)
   271     271       --       209.515 au  fB            1.00    245 A               2
                        (    5701.184 eV)



 ================================
 (Slater-type)  F U N C T I O N S  ***  (Basis and Fit)  ***
 ================================
  

 Atom Type    1  (F)
 ==============

 Valence Basis Sets:  10
 -----------------------
   1 S   10.880000
   1 S    7.700000
   2 S    3.240000
   2 S    1.940000
   2 S    0.740000
   2 P    4.540000
   2 P    2.300000
   2 P    1.240000
   3 D    2.000000
   4 F    3.000000

 Atom Type    2  (C)
 ==============

 Valence Basis Sets:  10
 -----------------------
   1 S    7.680000
   1 S    5.000000
   2 S    1.280000
   2 S    2.100000
   2 S    4.600000
   2 P    0.820000
   2 P    1.480000
   2 P    2.940000
   3 D    2.200000
   4 F    3.300000

 Atom Type    3  (H)
 ==============

 Valence Basis Sets:   5
 -----------------------
   1 S    0.690000
   1 S    0.920000
   1 S    1.580000
   2 P    1.250000
   3 D    2.500000

 Atom Type    4  (Cl)
 ==============

 Valence Basis Sets:  14
 -----------------------
   1 S   20.300000
   1 S   15.250000
   2 S    6.250000
   2 S    4.450000
   2 P    8.850000
   2 P    5.050000
   3 S    3.450000
   3 S    2.300000
   3 S    1.600000
   3 P    3.350000
   3 P    2.050000
   3 P    1.200000
   3 D    2.000000
   4 F    2.000000

 Atom Type    5  (N)
 ==============

 Valence Basis Sets:  10
 -----------------------
   1 S    8.740000
   1 S    5.900000
   2 S    5.150000
   2 S    2.500000
   2 S    1.500000
   2 P    3.680000
   2 P    1.880000
   2 P    1.000000
   3 D    2.200000
   4 F    3.300000

 Atom Type    6  (O)
 ==============

 Valence Basis Sets:  10
 -----------------------
   1 S    9.800000
   1 S    6.800000
   2 S    7.580000
   2 S    2.880000
   2 S    1.720000
   2 P    4.080000
   2 P    2.080000
   2 P    1.120000
   3 D    2.000000
   4 F    3.000000


 BAS: List of all Elementary Cartesian Basis Functions
 =====================================================

 The numbering in the list below (to the right of the function characteristics) is referred
 to in print-outs of MO eigenvectors and Mulliken populations in the BAS representation
 (as contrasted to the SFO representation).

 Notes:
 1. The functions are characterized by a polynomial prefactor (powers of x,y,z and r) and
    an exponential decay factor alpha.
 2. Since the basis sets are specific for an atom TYPE, the individual functions occur on
    all atoms of that type.
 3. The word 'Core' in the left margin signals that it is a Core Function (CF) : not a
    degree of freedom in the valence set, but only used to ensure orthogonalization of
    the other valence basis functions on the frozen Core Orbitals.


 (power of) X  Y  Z  R     Alpha  on Atom
            ==========     =====     ==========

 F                                    1
                                  ---------------------------------------------------------------------------
            0  0  0  0    10.880      1
            0  0  0  0     7.700      2
            0  0  0  1     3.240      3
            0  0  0  1     1.940      4
            0  0  0  1     0.740      5
            1  0  0  0     4.540      6
            0  1  0  0     4.540      7
            0  0  1  0     4.540      8
            1  0  0  0     2.300      9
            0  1  0  0     2.300     10
            0  0  1  0     2.300     11
            1  0  0  0     1.240     12
            0  1  0  0     1.240     13
            0  0  1  0     1.240     14
            2  0  0  0     2.000     15
            1  1  0  0     2.000     16
            1  0  1  0     2.000     17
            0  2  0  0     2.000     18
            0  1  1  0     2.000     19
            0  0  2  0     2.000     20
            3  0  0  0     3.000     21
            2  1  0  0     3.000     22
            2  0  1  0     3.000     23
            1  2  0  0     3.000     24
            1  1  1  0     3.000     25
            1  0  2  0     3.000     26
            0  3  0  0     3.000     27
            0  2  1  0     3.000     28
            0  1  2  0     3.000     29
            0  0  3  0     3.000     30

 C                                    2    3
                                  ---------------------------------------------------------------------------
            0  0  0  0     7.680     31   61
            0  0  0  0     5.000     32   62
            0  0  0  1     1.280     33   63
            0  0  0  1     2.100     34   64
            0  0  0  1     4.600     35   65
            1  0  0  0     0.820     36   66
            0  1  0  0     0.820     37   67
            0  0  1  0     0.820     38   68
            1  0  0  0     1.480     39   69
            0  1  0  0     1.480     40   70
            0  0  1  0     1.480     41   71
            1  0  0  0     2.940     42   72
            0  1  0  0     2.940     43   73
            0  0  1  0     2.940     44   74
            2  0  0  0     2.200     45   75
            1  1  0  0     2.200     46   76
            1  0  1  0     2.200     47   77
            0  2  0  0     2.200     48   78
            0  1  1  0     2.200     49   79
            0  0  2  0     2.200     50   80
            3  0  0  0     3.300     51   81
            2  1  0  0     3.300     52   82
            2  0  1  0     3.300     53   83
            1  2  0  0     3.300     54   84
            1  1  1  0     3.300     55   85
            1  0  2  0     3.300     56   86
            0  3  0  0     3.300     57   87
            0  2  1  0     3.300     58   88
            0  1  2  0     3.300     59   89
            0  0  3  0     3.300     60   90

 H                                    4    5    6    7    8
                                  ---------------------------------------------------------------------------
            0  0  0  0     0.690     91  103  115  127  139
            0  0  0  0     0.920     92  104  116  128  140
            0  0  0  0     1.580     93  105  117  129  141
            1  0  0  0     1.250     94  106  118  130  142
            0  1  0  0     1.250     95  107  119  131  143
            0  0  1  0     1.250     96  108  120  132  144
            2  0  0  0     2.500     97  109  121  133  145
            1  1  0  0     2.500     98  110  122  134  146
            1  0  1  0     2.500     99  111  123  135  147
            0  2  0  0     2.500    100  112  124  136  148
            0  1  1  0     2.500    101  113  125  137  149
            0  0  2  0     2.500    102  114  126  138  150

 Cl                                   9
                                  ---------------------------------------------------------------------------
            0  0  0  0    20.300    151
            0  0  0  0    15.250    152
            0  0  0  1     6.250    153
            0  0  0  1     4.450    154
            1  0  0  0     8.850    155
            0  1  0  0     8.850    156
            0  0  1  0     8.850    157
            1  0  0  0     5.050    158
            0  1  0  0     5.050    159
            0  0  1  0     5.050    160
            0  0  0  2     3.450    161
            0  0  0  2     2.300    162
            0  0  0  2     1.600    163
            1  0  0  1     3.350    164
            0  1  0  1     3.350    165
            0  0  1  1     3.350    166
            1  0  0  1     2.050    167
            0  1  0  1     2.050    168
            0  0  1  1     2.050    169
            1  0  0  1     1.200    170
            0  1  0  1     1.200    171
            0  0  1  1     1.200    172
            2  0  0  0     2.000    173
            1  1  0  0     2.000    174
            1  0  1  0     2.000    175
            0  2  0  0     2.000    176
            0  1  1  0     2.000    177
            0  0  2  0     2.000    178
            3  0  0  0     2.000    179
            2  1  0  0     2.000    180
            2  0  1  0     2.000    181
            1  2  0  0     2.000    182
            1  1  1  0     2.000    183
            1  0  2  0     2.000    184
            0  3  0  0     2.000    185
            0  2  1  0     2.000    186
            0  1  2  0     2.000    187
            0  0  3  0     2.000    188

 N                                   10   11
                                  ---------------------------------------------------------------------------
            0  0  0  0     8.740    189  219
            0  0  0  0     5.900    190  220
            0  0  0  1     5.150    191  221
            0  0  0  1     2.500    192  222
            0  0  0  1     1.500    193  223
            1  0  0  0     3.680    194  224
            0  1  0  0     3.680    195  225
            0  0  1  0     3.680    196  226
            1  0  0  0     1.880    197  227
            0  1  0  0     1.880    198  228
            0  0  1  0     1.880    199  229
            1  0  0  0     1.000    200  230
            0  1  0  0     1.000    201  231
            0  0  1  0     1.000    202  232
            2  0  0  0     2.200    203  233
            1  1  0  0     2.200    204  234
            1  0  1  0     2.200    205  235
            0  2  0  0     2.200    206  236
            0  1  1  0     2.200    207  237
            0  0  2  0     2.200    208  238
            3  0  0  0     3.300    209  239
            2  1  0  0     3.300    210  240
            2  0  1  0     3.300    211  241
            1  2  0  0     3.300    212  242
            1  1  1  0     3.300    213  243
            1  0  2  0     3.300    214  244
            0  3  0  0     3.300    215  245
            0  2  1  0     3.300    216  246
            0  1  2  0     3.300    217  247
            0  0  3  0     3.300    218  248

 O                                   12   13
                                  ---------------------------------------------------------------------------
            0  0  0  0     9.800    249  279
            0  0  0  0     6.800    250  280
            0  0  0  1     7.580    251  281
            0  0  0  1     2.880    252  282
            0  0  0  1     1.720    253  283
            1  0  0  0     4.080    254  284
            0  1  0  0     4.080    255  285
            0  0  1  0     4.080    256  286
            1  0  0  0     2.080    257  287
            0  1  0  0     2.080    258  288
            0  0  1  0     2.080    259  289
            1  0  0  0     1.120    260  290
            0  1  0  0     1.120    261  291
            0  0  1  0     1.120    262  292
            2  0  0  0     2.000    263  293
            1  1  0  0     2.000    264  294
            1  0  1  0     2.000    265  295
            0  2  0  0     2.000    266  296
            0  1  1  0     2.000    267  297
            0  0  2  0     2.000    268  298
            3  0  0  0     3.000    269  299
            2  1  0  0     3.000    270  300
            2  0  1  0     3.000    271  301
            1  2  0  0     3.000    272  302
            1  1  1  0     3.000    273  303
            1  0  2  0     3.000    274  304
            0  3  0  0     3.000    275  305
            0  2  1  0     3.000    276  306
            0  1  2  0     3.000    277  307
            0  0  3  0     3.000    278  308

 Total number of charge fitting functions (nprimf)       945
 Total number of Cartesian basis functions (naos)        308
 Total number of Cartesian core functions  (ncos)          0

 ***************************************************************************************************



                                              ***********************
                                              *  T E C H N I C A L  *
                                              ***********************
  



 =============================================================
 P A R A L L E L I Z A T I O N  and  V E C T O R I Z A T I O N
 =============================================================
  
 Nr of parallel processes:                                1
 Maximum vector length in NumInt loops:                 128



 =====================
 S C F   U P D A T E S
 =====================
  
 Max. nr. of cycles:                               200
 Convergence criterion:                              0.0000010000
   secondary criterion:                              0.0010000000

 Mix parameter (when DIIS does not apply):           0.2000000000
 Mixed ADIIS+SDIIS will be used                  
    Max number of expansion vectors:                10
    Pure ADIIS when Max([F,P]) is above              0.1000000000
    Pure SDIIS when Max([F,P]) is below              0.0010000000
 Automatic ElectronSmearing (in case of problematic SCF convergence) disabled



 =================
 P R E C I S I O N  ***  (General: NumInt, NeglectFunctionTails, ...)  ***
 =================
  

 NumInt:           Target precision:                 4.0000000000
 -------           Initial precision:                4.0000000000
                   Min. precision (optimization):    4.0000000000

 Neglect Functions:          Basis functions:        0.1000000000E-05
 ------------------          Fit functions:          0.1000000000E-05



 ===========================
 L I N E A R   S C A L I N G
 ===========================
  

 Cut-off radii density fit:                        0.1000000000E-07
 Overlap cut-off criterion AO matrix elements:     0.1000000000E-05
 Cut-offs for Coulomb potential and fitted density:0.1000000000E-07
 Cut-off criterion for Coulomb multipole terms:    0.1000000000E-07
 Progressive Convergence parameter:                 0.000000000    
 ***************************************************************************************************



                                            ***************************
                                            *  C O M P U T A T I O N  *
                                            ***************************
  

 Number of elements of the density matrix on this node (used, total):     47586     47586



 ===========================================
 Numerical Integration : Fuzzy Cells (Becke)
 ===========================================
  
 Becke grid quality: NORMAL         
  
 Lebedev angular grid order:             min:  11 max:  23
 Nr. of radial points:                   min:  46 max:  67

 Total nr. of points:      87950
 Nr. of blocks:              688
 Block length:               128
 Nr. of dummy points:        114


 Test of Precision of the Numerical Integration Grid
 ===================================================

 Integral of the Total Core Density:                   0.00000000000000



 ========================
 Density Fitting (zlmFit)
 ========================
  
 ZlmFit Fit Quality: NORMAL         
  
 Max L-expansion:                        min:   6 max:   7
 Nr. of radial interpolation points:     min:  39 max:  60



 =====
 S C F  ***  ScaSCF  ***
 =====
  
 Initial density matrix is calculated as sum of fragments

 CYCLE    1
 SCF Error: norm([F,P])=      0.916227282303, max([F,P])=      0.392935831509
 orbitals (Q,E):
 ---------------
 A :28...47          ( 2.00    -0.1526)  ( 2.00    -0.1380)  ( 2.00    -0.1319)  ( 2.00    -0.1107)
                     ( 2.00    -0.1097)  ( 2.00    -0.0863)  ( 2.00    -0.0624)  ( 2.00    -0.0061)
                     ( 2.00     0.0342)  ( 2.00     0.0374)  ( 0.00     0.0897)  ( 0.00     0.1341)
                     ( 0.00     0.1384)  ( 0.00     0.1551)  ( 0.00     0.1888)  ( 0.00     0.2174)
                     ( 0.00     0.2303)  ( 0.00     0.2459)  ( 0.00     0.2893)  ( 0.00     0.3011)

 CYCLE    2
   MIX coefficients:  0.8000  0.2000
 SCF Error: norm([F,P])=      1.295454866503, max([F,P])=      0.589719492764
 orbitals (Q,E):
 ---------------
 A :28...38          ( 2.00    -0.1374)  ( 2.00    -0.1264)  ( 2.00    -0.1103)  ( 2.00    -0.1055)
                     ( 2.00    -0.1006)  ( 2.00    -0.0956)  ( 2.00    -0.0880)  ( 2.00    -0.0846)
                     ( 2.00    -0.0787)  ( 2.00    -0.0605)  ( 0.00     0.0590)

 CYCLE    3
  SDIIS (wt  0.000):  0.2116  0.7884
 A-DIIS (wt  1.000):  0.0580  0.9420
  DIIS coefficients:  0.0580  0.9420
 SCF Error: norm([F,P])=      0.498523011741, max([F,P])=      0.167907987970
 orbitals (Q,E):
 ---------------
 A :28...38          ( 2.00    -0.1663)  ( 2.00    -0.1533)  ( 2.00    -0.1487)  ( 2.00    -0.1315)
                     ( 2.00    -0.1033)  ( 2.00    -0.0650)  ( 2.00    -0.0628)  ( 2.00    -0.0591)
                     ( 2.00    -0.0480)  ( 2.00    -0.0433)  ( 0.00     0.0195)

 CYCLE    4
  SDIIS (wt  0.000): -0.0100  0.7198  0.2903
 A-DIIS (wt  1.000):  0.0000  0.8015  0.1985
  DIIS coefficients:  0.0000  0.8015  0.1985
 SCF Error: norm([F,P])=      1.221849308658, max([F,P])=      0.389318891443
 orbitals (Q,E):
 ---------------
 A :28...38          ( 2.00    -0.1488)  ( 2.00    -0.1384)  ( 2.00    -0.1372)  ( 2.00    -0.1158)
                     ( 2.00    -0.0911)  ( 2.00    -0.0830)  ( 2.00    -0.0816)  ( 2.00    -0.0808)
                     ( 2.00    -0.0738)  ( 2.00    -0.0686)  ( 0.00     0.0338)

 CYCLE    5
  SDIIS (wt  0.000): -0.0129  0.3925 -0.0053  0.6257
 A-DIIS (wt  1.000):  0.0000  0.3566  0.0000  0.6434
  DIIS coefficients:  0.0000  0.3566  0.0000  0.6434
 SCF Error: norm([F,P])=      0.335444100824, max([F,P])=      0.112200155999
 orbitals (Q,E):
 ---------------
 A :28...38          ( 2.00    -0.1483)  ( 2.00    -0.1343)  ( 2.00    -0.1228)  ( 2.00    -0.1123)
                     ( 2.00    -0.1044)  ( 2.00    -0.0972)  ( 2.00    -0.0913)  ( 2.00    -0.0865)
                     ( 2.00    -0.0846)  ( 2.00    -0.0719)  ( 0.00     0.0418)

 CYCLE    6
  SDIIS (wt  0.552):  0.0102  0.1921 -0.0200  0.4619  0.3558
 A-DIIS (wt  0.448):  0.0000  0.0000  0.0000  0.2027  0.7973
  DIIS coefficients:  0.0056  0.1061 -0.0110  0.3458  0.5536
 SCF Error: norm([F,P])=      0.139133772622, max([F,P])=      0.045341885520
 orbitals (Q,E):
 ---------------
 A :28...38          ( 2.00    -0.1407)  ( 2.00    -0.1345)  ( 2.00    -0.1278)  ( 2.00    -0.1065)
                     ( 2.00    -0.0893)  ( 2.00    -0.0875)  ( 2.00    -0.0854)  ( 2.00    -0.0828)
                     ( 2.00    -0.0771)  ( 2.00    -0.0692)  ( 0.00     0.0434)

 CYCLE    7
  SDIIS (wt  0.707): -0.0048  0.0846 -0.0009  0.2125  0.3846  0.3240
 A-DIIS (wt  0.293):  0.0000  0.0000  0.0000  0.0000  0.4128  0.5872
  DIIS coefficients: -0.0034  0.0598 -0.0006  0.1502  0.3929  0.4011
 SCF Error: norm([F,P])=      0.103612593937, max([F,P])=      0.029996791189
 orbitals (Q,E):
 ---------------
 A :28...38          ( 2.00    -0.1439)  ( 2.00    -0.1344)  ( 2.00    -0.1272)  ( 2.00    -0.1089)
                     ( 2.00    -0.0940)  ( 2.00    -0.0901)  ( 2.00    -0.0879)  ( 2.00    -0.0840)
                     ( 2.00    -0.0801)  ( 2.00    -0.0714)  ( 0.00     0.0408)

 CYCLE    8
  SDIIS (wt  0.974): -0.0027  0.0306 -0.0044  0.0953  0.2651  0.2913  0.3247
 A-DIIS (wt  0.026):  0.0000  0.0000  0.0000  0.0000  0.0000  0.0171  0.9829
  DIIS coefficients: -0.0026  0.0298 -0.0043  0.0928  0.2582  0.2842  0.3419
 SCF Error: norm([F,P])=      0.023396452222, max([F,P])=      0.003587337923
 orbitals (Q,E):
 ---------------
 A :28...38          ( 2.00    -0.1434)  ( 2.00    -0.1345)  ( 2.00    -0.1265)  ( 2.00    -0.1078)
                     ( 2.00    -0.0936)  ( 2.00    -0.0903)  ( 2.00    -0.0875)  ( 2.00    -0.0849)
                     ( 2.00    -0.0810)  ( 2.00    -0.0714)  ( 0.00     0.0417)

 CYCLE    9
  SDIIS (wt  0.983): -0.0015  0.0177 -0.0046  0.0598  0.1768  0.1956  0.2989  0.2572
 A-DIIS (wt  0.017):  0.0000  0.0000  0.0000  0.0000  0.0000  0.0000  0.0988  0.9012
  DIIS coefficients: -0.0014  0.0174 -0.0046  0.0588  0.1739  0.1924  0.2956  0.2679
 SCF Error: norm([F,P])=      0.008889887825, max([F,P])=      0.002635901943
 orbitals (Q,E):
 ---------------
 A :28...38          ( 2.00    -0.1435)  ( 2.00    -0.1344)  ( 2.00    -0.1265)  ( 2.00    -0.1081)
                     ( 2.00    -0.0938)  ( 2.00    -0.0905)  ( 2.00    -0.0877)  ( 2.00    -0.0848)
                     ( 2.00    -0.0810)  ( 2.00    -0.0714)  ( 0.00     0.0417)

 CYCLE   10
  SDIIS (wt  1.000): -0.0006  0.0066 -0.0024  0.0193  0.0505  0.0489  0.1152  0.1886  0.5739
  DIIS coefficients: -0.0006  0.0066 -0.0024  0.0193  0.0505  0.0489  0.1152  0.1886  0.5739
 SCF Error: norm([F,P])=      0.002795136831, max([F,P])=      0.000876483147
 orbitals (Q,E):
 ---------------
 A :28...38          ( 2.00    -0.1436)  ( 2.00    -0.1344)  ( 2.00    -0.1265)  ( 2.00    -0.1081)
                     ( 2.00    -0.0939)  ( 2.00    -0.0905)  ( 2.00    -0.0878)  ( 2.00    -0.0848)
                     ( 2.00    -0.0810)  ( 2.00    -0.0715)  ( 0.00     0.0417)

 CYCLE   11
  SDIIS (wt  1.000): -0.0001  0.0022 -0.0011  0.0073  0.0203  0.0162  0.0430  0.0731  0.2514  0.5878
  DIIS coefficients: -0.0001  0.0022 -0.0011  0.0073  0.0203  0.0162  0.0430  0.0731  0.2514  0.5878
 SCF Error: norm([F,P])=      0.000472839473, max([F,P])=      0.000090076618
 orbitals (Q,E):
 ---------------
 A :28...38          ( 2.00    -0.1436)  ( 2.00    -0.1344)  ( 2.00    -0.1265)  ( 2.00    -0.1081)
                     ( 2.00    -0.0939)  ( 2.00    -0.0905)  ( 2.00    -0.0878)  ( 2.00    -0.0848)
                     ( 2.00    -0.0810)  ( 2.00    -0.0715)  ( 0.00     0.0417)

 CYCLE   12
  SDIIS (wt  1.000):  0.0002 -0.0001  0.0006  0.0025  0.0006  0.0031  0.0091  0.0459  0.3347  0.6033
  DIIS coefficients:  0.0002 -0.0001  0.0006  0.0025  0.0006  0.0031  0.0091  0.0459  0.3347  0.6033
 SCF Error: norm([F,P])=      0.000154286285, max([F,P])=      0.000044268902
 orbitals (Q,E):
 ---------------
 A :28...38          ( 2.00    -0.1436)  ( 2.00    -0.1344)  ( 2.00    -0.1265)  ( 2.00    -0.1081)
                     ( 2.00    -0.0939)  ( 2.00    -0.0905)  ( 2.00    -0.0878)  ( 2.00    -0.0848)
                     ( 2.00    -0.0810)  ( 2.00    -0.0715)  ( 0.00     0.0417)

 CYCLE   13
  SDIIS (wt  1.000): -0.0000 -0.0001  0.0001 -0.0006 -0.0007  0.0009  0.0108  0.1547  0.3218  0.5131
  DIIS coefficients: -0.0000 -0.0001  0.0001 -0.0006 -0.0007  0.0009  0.0108  0.1547  0.3218  0.5131
 SCF Error: norm([F,P])=      0.000029421961, max([F,P])=      0.000003590953
 orbitals (Q,E):
 ---------------
 A :28...38          ( 2.00    -0.1436)  ( 2.00    -0.1344)  ( 2.00    -0.1265)  ( 2.00    -0.1081)
                     ( 2.00    -0.0939)  ( 2.00    -0.0905)  ( 2.00    -0.0878)  ( 2.00    -0.0848)
                     ( 2.00    -0.0810)  ( 2.00    -0.0715)  ( 0.00     0.0417)

 CYCLE   14
  SDIIS (wt  1.000): -0.0000  0.0001 -0.0001 -0.0002  0.0002  0.0031  0.0564  0.1300  0.2885  0.5222
  DIIS coefficients: -0.0000  0.0001 -0.0001 -0.0002  0.0002  0.0031  0.0564  0.1300  0.2885  0.5222
 SCF Error: norm([F,P])=      0.000013875669, max([F,P])=      0.000003926168
 orbitals (Q,E):
 ---------------
 A :28...38          ( 2.00    -0.1436)  ( 2.00    -0.1344)  ( 2.00    -0.1265)  ( 2.00    -0.1081)
                     ( 2.00    -0.0939)  ( 2.00    -0.0905)  ( 2.00    -0.0878)  ( 2.00    -0.0848)
                     ( 2.00    -0.0810)  ( 2.00    -0.0715)  ( 0.00     0.0417)

 CYCLE   15
  SDIIS (wt  1.000):  0.0000  0.0000 -0.0000 -0.0000  0.0004  0.0122  0.0323  0.0989  0.2822  0.5739
  DIIS coefficients:  0.0000  0.0000 -0.0000 -0.0000  0.0004  0.0122  0.0323  0.0989  0.2822  0.5739
 SCF Error: norm([F,P])=      0.000002613415, max([F,P])=      0.000000387670
 orbitals (Q,E):
 ---------------
 A :28...38          ( 2.00    -0.1436)  ( 2.00    -0.1344)  ( 2.00    -0.1265)  ( 2.00    -0.1081)
                     ( 2.00    -0.0939)  ( 2.00    -0.0905)  ( 2.00    -0.0878)  ( 2.00    -0.0848)
                     ( 2.00    -0.0810)  ( 2.00    -0.0715)  ( 0.00     0.0417)

 SCF CONVERGED

 CYCLE   16
 ***************************************************************************************************



                                                *******************
                                                *  R E S U L T S  *
                                                *******************
  
 *** Using FIT density in Focky
  SDIIS (wt  1.000): -0.0000 -0.0000 -0.0000  0.0001  0.0014  0.0038  0.0186  0.0762  0.2651  0.6347
  DIIS coefficients: -0.0000 -0.0000 -0.0000  0.0001  0.0014  0.0038  0.0186  0.0762  0.2651  0.6347
 SCF Error: norm([F,P])=      0.000001240547, max([F,P])=      0.000000358361

 Scaled ZORA Orbital Energies, per Irrep and Spin:
 =================================================
                        Occup              E (au)              E (eV)       Diff (eV) with prev. cycle
                        -----      --------------------        ------       --------------------------
 A
              28        2.000     -0.14357299945322E+00        -3.907              -1.01E-06
              29        2.000     -0.13440209527004E+00        -3.657               9.17E-08
              30        2.000     -0.12646816565268E+00        -3.441               1.50E-06
              31        2.000     -0.10809097166175E+00        -2.941              -1.40E-07
              32        2.000     -0.93924434186748E-01        -2.556              -2.29E-06
              33        2.000     -0.90546488638685E-01        -2.464              -1.70E-06
              34        2.000     -0.87804922070927E-01        -2.389              -1.26E-06
              35        2.000     -0.84779912115826E-01        -2.307              -1.34E-07
              36        2.000     -0.81017313113925E-01        -2.205              -1.04E-06
              37        2.000     -0.71460581164049E-01        -1.945               9.89E-08
              38        0.000      0.41679748504887E-01         1.134
              39        0.000      0.10214762009015E+00         2.780
              40        0.000      0.13619989999015E+00         3.706
              41        0.000      0.15458784477070E+00         4.207
              42        0.000      0.18503214581455E+00         5.035
              43        0.000      0.19266433589856E+00         5.243
              44        0.000      0.20750313854819E+00         5.646
              45        0.000      0.22633305103716E+00         6.159
              46        0.000      0.25205873072188E+00         6.859
              47        0.000      0.27644350479235E+00         7.522
  
 HOMO :       37 A                -0.71460581164049E-01
 LUMO :       38 A                 0.41679748504887E-01
  


 All Electron Calculation, thus no Orbital Energies of the Core Orbitals are calculated


 Fit test: (difference of exact and fit density, squared integrated, result summed over spins)
         Sum-of-Fragments:                             0.00019320644915
         Orthogonalized Fragments:                     0.00019709937052
         SCF:                                          0.00019759035143



 ==========================
 Electron Density at Nuclei
 ==========================
  
 The electron density is calculated at points on a small sphere around the center of a nucleus.
 The printed electron density is the average electron density on these points.
 The radius of the sphere is the printed approximate finite nuclear radius.
 Note: ZORA-4 density is used, which includes small component density

         Atom        Nuclear Radius (Angstrom)             Electron Density (a.u.)
         ----        -------------------------             -----------------------
     1)   F                 0.0000361580                              450.68296
[...]
                                    7.28%    29 A              -7.599  2.00     2 fB
                                    7.17%    39 A               1.405  0.00     2 fB
                                    7.07%    53 A               8.128  0.00     2 fB
                                    6.81%    32 A              -6.996  2.00     2 fB
                                    6.60%    36 A               0.190  0.00     2 fB
                                    4.95%    38 A               0.947  0.00     2 fB
                                    3.57%    51 A               6.844  0.00     2 fB
                                    3.13%    27 A              -8.415  2.00     2 fB
                                    3.03%    40 A               1.736  0.00     2 fB
                                    2.72%    25 A             -10.602  2.00     2 fB
                                    2.72%    41 A               2.630  0.00     2 fB
                                    2.11%    56 A               8.778  0.00     2 fB
                                    2.06%    23 A             -11.659  2.00     2 fB
                                    2.03%    44 A               4.159  0.00     2 fB
                                    1.68%     9 A              22.094  0.00     1 fA
                                    1.51%    35 A              -0.841  0.00     2 fB
                                    1.51%    28 A              -8.243  2.00     2 fB
                                    1.34%     7 A              22.094  0.00     1 fA
                                    1.32%     6 A               7.775  0.00     1 fA
                                    1.29%    19 A             -14.295  2.00     2 fB
                                    1.00%    52 A               7.342  0.00     2 fB
       0.05415       266 A          9.31%    31 A              -7.144  2.00     2 fB
                                    8.17%    53 A               8.128  0.00     2 fB
                                    8.15%    30 A              -7.219  2.00     2 fB
                                    7.49%    39 A               1.405  0.00     2 fB
                                    6.81%    29 A              -7.599  2.00     2 fB
                                    6.63%    36 A               0.190  0.00     2 fB
                                    6.26%    32 A              -6.996  2.00     2 fB
                                    4.83%    38 A               0.947  0.00     2 fB
                                    4.11%    51 A               6.844  0.00     2 fB
                                    3.52%    41 A               2.630  0.00     2 fB
                                   -3.45%     6 A               7.775  0.00     1 fA
                                    3.31%    40 A               1.736  0.00     2 fB
                                    3.16%    27 A              -8.415  2.00     2 fB
                                    2.61%    23 A             -11.659  2.00     2 fB
                                    2.59%    20 A             -14.133  2.00     2 fB
                                    2.28%    44 A               4.159  0.00     2 fB
                                    2.19%    25 A             -10.602  2.00     2 fB
                                    2.14%    56 A               8.778  0.00     2 fB
                                    2.13%    19 A             -14.295  2.00     2 fB
                                    1.67%     2 A             -15.175  2.00     1 fA
                                    1.45%    28 A              -8.243  2.00     2 fB
                                    1.38%    21 A             -13.335  2.00     2 fB
                                    1.37%    16 A             -19.294  2.00     2 fB
                                    1.13%    22 A             -13.079  2.00     2 fB
                                    1.03%    17 A             -18.368  2.00     2 fB
      -0.05395         7 A         13.84%     7 A              22.094  0.00     1 fA
                                   13.58%    24 A             -11.319  2.00     2 fB
                                   10.61%    30 A              -7.219  2.00     2 fB
                                    9.39%    27 A              -8.415  2.00     2 fB
                                    6.32%    25 A             -10.602  2.00     2 fB
                                    3.21%    46 A               4.736  0.00     2 fB
                                    3.19%    35 A              -0.841  0.00     2 fB
                                    3.11%    50 A               6.433  0.00     2 fB
                                    2.64%    41 A               2.630  0.00     2 fB
                                    2.62%     2 A             -15.175  2.00     1 fA
                                    2.43%    55 A               8.449  0.00     2 fB
                                    1.88%    29 A              -7.599  2.00     2 fB
                                    1.84%    43 A               4.020  0.00     2 fB
                                    1.84%    52 A               7.342  0.00     2 fB
                                    1.78%    36 A               0.190  0.00     2 fB
                                    1.45%    39 A               1.405  0.00     2 fB
                                    1.31%    44 A               4.159  0.00     2 fB
                                    1.05%    58 A               9.524  0.00     2 fB
                                    1.02%    48 A               5.687  0.00     2 fB
                                    1.01%    32 A              -6.996  2.00     2 fB
       0.05395       265 A         15.34%    24 A             -11.319  2.00     2 fB
                                    9.81%    27 A              -8.415  2.00     2 fB
                                    9.58%    30 A              -7.219  2.00     2 fB
                                    6.88%     7 A              22.094  0.00     1 fA
                                    5.75%    25 A             -10.602  2.00     2 fB
                                    4.91%    46 A               4.736  0.00     2 fB
                                    3.40%    41 A               2.630  0.00     2 fB
                                    3.30%    55 A               8.449  0.00     2 fB
                                    2.57%    50 A               6.433  0.00     2 fB
                                    2.15%    29 A              -7.599  2.00     2 fB
                                    2.09%    43 A               4.020  0.00     2 fB
                                    2.03%    35 A              -0.841  0.00     2 fB
                                    2.00%     4 A               2.943  2.00     1 fA
                                    1.96%    39 A               1.405  0.00     2 fB
                                    1.73%    36 A               0.190  0.00     2 fB
                                    1.53%    13 A              42.594  0.00     1 fA
                                    1.48%    52 A               7.342  0.00     2 fB
                                    1.39%    48 A               5.687  0.00     2 fB
                                    1.34%    44 A               4.159  0.00     2 fB
                                    1.27%     2 A             -15.175  2.00     1 fA
                                    1.21%    38 A               0.947  0.00     2 fB
                                    1.21%    11 A              42.594  0.00     1 fA
                                    1.20%    51 A               6.844  0.00     2 fB
                                    1.20%    58 A               9.524  0.00     2 fB
                                    1.03%    17 A             -18.368  2.00     2 fB
      -0.05135         8 A         13.09%    24 A             -11.319  2.00     2 fB
                                   12.50%     7 A              22.094  0.00     1 fA
                                   11.45%    31 A              -7.144  2.00     2 fB
                                    9.68%    30 A              -7.219  2.00     2 fB
                                    5.88%    25 A             -10.602  2.00     2 fB
                                    3.71%    52 A               7.342  0.00     2 fB
                                    3.53%    54 A               8.301  0.00     2 fB
                                    3.51%    38 A               0.947  0.00     2 fB
                                    3.23%    36 A               0.190  0.00     2 fB
                                    2.97%    41 A               2.630  0.00     2 fB
                                    2.66%    55 A               8.449  0.00     2 fB
                                    2.54%    40 A               1.736  0.00     2 fB
                                    2.46%    43 A               4.020  0.00     2 fB
                                    2.33%     4 A               2.943  2.00     1 fA
                                    1.79%    19 A             -14.295  2.00     2 fB
                                    1.21%     6 A               7.775  0.00     1 fA
                                    1.16%     8 A              22.094  0.00     1 fA
                                    1.10%    32 A              -6.996  2.00     2 fB
                                    1.06%    47 A               5.532  0.00     2 fB
       0.05135       264 A         13.69%    24 A             -11.319  2.00     2 fB
                                   10.54%    31 A              -7.144  2.00     2 fB
                                    9.92%    30 A              -7.219  2.00     2 fB
                                    7.80%     7 A              22.094  0.00     1 fA
                                    6.16%    25 A             -10.602  2.00     2 fB
                                    3.91%    52 A               7.342  0.00     2 fB
                                    3.90%    38 A               0.947  0.00     2 fB
                                    3.82%    54 A               8.301  0.00     2 fB
                                    3.77%    41 A               2.630  0.00     2 fB
                                    3.19%     4 A               2.943  2.00     1 fA
                                    3.16%    55 A               8.449  0.00     2 fB
                                    2.66%    36 A               0.190  0.00     2 fB
                                    2.46%    19 A             -14.295  2.00     2 fB
                                    2.45%    40 A               1.736  0.00     2 fB
                                    2.11%    43 A               4.020  0.00     2 fB
                                    1.60%    13 A              42.594  0.00     1 fA
                                    1.33%    20 A             -14.133  2.00     2 fB
                                    1.20%    26 A              -8.606  2.00     2 fB
                                    1.12%    32 A              -6.996  2.00     2 fB
                                    1.11%    47 A               5.532  0.00     2 fB
 Mulliken charges used for AMS results%charges...


    =====================
     CALCULATION RESULTS
    =====================

Energy (hartree)            -0.09253418


--------------
Atomic charges
--------------
  Index   Atom    Charge
      1      F   -0.6192
      2      C    0.4087
      3      H   -0.2228
      4     Cl   -0.4995
      5      C    0.7214
      6      H   -0.2127
      7      H   -0.1976
      8      N    0.6274
      9      O   -0.4334
     10      O   -0.4421
     11      N   -0.0620
     12      H   -0.0462
     13      H   -0.0218


Dipole moment vector    (Debye):    -4.09616931    1.96875953    3.08194931
              magnitude (Debye):     5.49117734


-----------------------
Molecular orbitals info
-----------------------
n orbitals:              271
n spin:                    1

Note: only printing virtual orbitals with
      energy smaller than HOMO + 100. eV

HOMO (eV):              -1.9445
LUMO (eV):               1.1342
HOMO-LUMO gap (eV):      3.0787

   Index   Energy (eV)    Occupation
     175       98.0078         0.000       
     174       97.1580         0.000       
     173       96.6329         0.000       
     172       95.1547         0.000       
     171       94.2294         0.000       
     170       92.3941         0.000       
     169       92.2627         0.000       
     168       90.4304         0.000       
     167       88.9535         0.000       
     166       88.2203         0.000       
     165       87.2253         0.000       
     164       86.8325         0.000       
     163       85.9644         0.000       
     162       85.5561         0.000       
     161       84.8957         0.000       
     160       84.2227         0.000       
     159       82.2851         0.000       
     158       81.9897         0.000       
     157       79.2836         0.000       
     156       78.3114         0.000       
     155       77.5313         0.000       
     154       76.2966         0.000       
     153       75.7102         0.000       
     152       75.1383         0.000       
     151       72.5069         0.000       
     150       71.3497         0.000       
     149       70.4801         0.000       
     148       69.0999         0.000       
     147       68.3766         0.000       
     146       67.6794         0.000       
     145       67.2570         0.000       
     144       66.7940         0.000       
     143       65.7816         0.000       
     142       64.3549         0.000       
     141       63.1108         0.000       
     140       62.5725         0.000       
     139       61.5555         0.000       
     138       61.4427         0.000       
     137       60.7163         0.000       
     136       60.0218         0.000       
     135       59.2967         0.000       
     134       58.6919         0.000       
     133       57.8633         0.000       
     132       56.4701         0.000       
     131       55.5696         0.000       
     130       54.7787         0.000       
     129       53.9192         0.000       
     128       53.0598         0.000       
     127       52.5980         0.000       
     126       51.5341         0.000       
     125       50.2835         0.000       
     124       49.1784         0.000       
     123       48.6237         0.000       
     122       47.3006         0.000       
     121       46.6575         0.000       
     120       46.4218         0.000       
     119       45.3188         0.000       
     118       44.4025         0.000       
     117       44.1955         0.000       
     116       43.6074         0.000       
     115       42.8963         0.000       
     114       42.0603         0.000       
     113       41.4649         0.000       
     112       41.3438         0.000       
     111       40.8042         0.000       
     110       40.7460         0.000       
     109       39.8318         0.000       
     108       39.6795         0.000       
     107       39.3243         0.000       
     106       38.9997         0.000       
     105       38.5976         0.000       
     104       38.1086         0.000       
     103       37.9349         0.000       
     102       37.5029         0.000       
     101       36.4441         0.000       
     100       36.2678         0.000       
      99       35.6651         0.000       
      98       34.7925         0.000       
      97       33.9210         0.000       
      96       33.8927         0.000       
      95       33.1690         0.000       
      94       32.0021         0.000       
      93       31.1257         0.000       
      92       30.2017         0.000       
      91       29.7300         0.000       
      90       29.1490         0.000       
      89       28.8065         0.000       
      88       27.7353         0.000       
      87       27.0190         0.000       
      86       26.4090         0.000       
      85       26.0436         0.000       
      84       25.4882         0.000       
      83       24.6463         0.000       
      82       23.7505         0.000       
      81       23.0234         0.000       
      80       22.9343         0.000       
      79       22.3771         0.000       
      78       20.6801         0.000       
      77       20.3079         0.000       
      76       19.6794         0.000       
      75       18.3722         0.000       
      74       18.2790         0.000       
      73       17.8545         0.000       
      72       17.5020         0.000       
      71       16.8998         0.000       
      70       16.6149         0.000       
      69       16.2426         0.000       
      68       15.9046         0.000       
      67       15.0852         0.000       
      66       14.9032         0.000       
      65       14.6994         0.000       
      64       14.5302         0.000       
      63       14.3740         0.000       
      62       13.9049         0.000       
      61       13.3733         0.000       
      60       12.9691         0.000       
      59       12.6251         0.000       
      58       12.3336         0.000       
      57       11.7933         0.000       
      56       11.3514         0.000       
      55       11.0748         0.000       
      54       10.5997         0.000       
      53       10.0600         0.000       
      52        9.6779         0.000       
      51        9.2932         0.000       
      50        8.9344         0.000       
      49        8.7565         0.000       
      48        8.5501         0.000       
      47        7.5224         0.000       
      46        6.8589         0.000       
      45        6.1588         0.000       
      44        5.6464         0.000       
      43        5.2427         0.000       
      42        5.0350         0.000       
      41        4.2065         0.000       
      40        3.7062         0.000       
      39        2.7796         0.000       
      38        1.1342         0.000 < LUMO
      37       -1.9445         2.000 < HOMO
      36       -2.2046         2.000       
      35       -2.3070         2.000       
      34       -2.3893         2.000       
      33       -2.4639         2.000       
      32       -2.5558         2.000       
      31       -2.9413         2.000       
      30       -3.4414         2.000       
      29       -3.6573         2.000       
      28       -3.9068         2.000       
      27       -5.7333         2.000       
      26       -6.4443         2.000       
      25       -6.5993         2.000       
      24       -8.2112         2.000       
      23       -8.3632         2.000       
      22       -8.9867         2.000       
      21       -9.3122         2.000       
      20       -9.8578         2.000       
      19      -13.3578         2.000       
      18      -14.1890         2.000       
      17      -15.4101         2.000       
      16      -18.8460         2.000       
      15      -21.5458         2.000       
      14      -22.1548         2.000       
      13      -26.5438         2.000       
      12     -184.5537         2.000       
      11     -184.5545         2.000       
      10     -184.7205         2.000       
       9     -245.5588         2.000       
       8     -265.9281         2.000       
       7     -269.7285         2.000       
       6     -377.4079         2.000       
       5     -383.3388         2.000       
       4     -508.0458         2.000       
       3     -508.0617         2.000       
       2     -653.9683         2.000       
       1    -2744.8074         2.000       

AMS application finished. Exiting.
NORMAL TERMINATION
     Total cpu time:      73.02
  Total system time:       0.31
 Total elapsed time:      73.53
NORMAL TERMINATION
