srun: Job 662083 step creation temporarily disabled, retrying (Requested nodes are busy)
srun: Job 662083 step creation still disabled, retrying (Requested nodes are busy)
srun: Job 662083 step creation still disabled, retrying (Requested nodes are busy)
srun: Job 662083 step creation still disabled, retrying (Requested nodes are busy)
srun: Step created for StepId=662083.7

 *******************************************************************************
 *                                                                             *
 *  --------------------------------                                           *
 *   Amsterdam Modeling Suite (AMS)              2026.103                      *
 *  --------------------------------                                           *
 *                                               r260501 2026-05-01 873454b5   *
 *                                                                             *
 *                                                                             *
 *                              =================                              *
 *                              |               |                              *
 *                              |     A M S     |                              *
 *                              |               |                              *
 *                              =================                              *
 *                                                                             *
 *                                                                             *
 *   Online information and documentation:  https://www.scm.com/support/       *
 *   E-mail:  support@scm.com   info@scm.com                                   *
 *                                                                             *
 *   Scientific publications using AMS results must be properly referenced     *
 *   See the User Manuals (or the web site) for recommended citations          *
 *   The terms and conditions of the End User License Agreement apply to       *
 *   the use of AMS, https://www.scm.com/license-terms/                        *
 *                                                                             *
 **********************  x86_64_linux_intel / intelmpi  ************************
 
 Licensed to: Jong-June Jeon / University of Seoul 2026-06-02 13:44:15
 SCM User ID: u30731
  
 AMS 2026.103  RunTime: Jun02-2026 21:44:15  ShM Nodes: 1  Procs: 1

 AMS jobname: c1_fragA_ts
 AMS jobid  : 1639377890

 Start   directory: /gpfs/home1/yeseo1ee/projects/eda-asm-prediction/ADF_800/adf_outputs/batch_000/dipolar_000074/
 Results directory: /gpfs/home1/yeseo1ee/projects/eda-asm-prediction/ADF_800/adf_outputs/batch_000/dipolar_000074/c1_fragA_ts.results/
 Scratch directory: /tmp/amstmp_c1_fragA_ts_kid0.1639377890/

 RNG seed: -1806554404 -1297853327 -2020867508 -1312868881 483759126 1470717937 156462112 -710435223



                      ************************************************************************
                      *  ADF 2026.103  RunTime: Jun02-2026 21:44:16  ShM Nodes: 1  Procs: 1  *
                      ************************************************************************
  

       ****************************
       * SINGLE POINT CALCULATION *
       ****************************

--------
Geometry
--------
Formula: C4H4N4
Atoms
  Index Symbol   x (angstrom)   y (angstrom)   z (angstrom)
      1      C    -2.16178000    -2.57832000     0.72126000
      2      N    -2.00344000    -1.33839000    -0.01081000
      3      N    -2.01654000    -0.28745000     0.75566000
      4      C    -1.77986000     0.92132000     0.15556000
      5      C    -1.39690000     2.01741000     0.97411000
      6      N    -1.03920000     2.91186000     1.62900000
      7      C    -2.37987000     1.18977000    -1.10956000
      8      N    -2.85183000     1.43351000    -2.14557000
      9      H    -1.64834000    -2.57256000     1.69992000
     10      H    -3.23487000    -2.76808000     0.89174000
     11      H    -1.76897000    -3.39768000     0.10591000
     12      H    -1.73319000    -0.36765000     1.74262000

Total System Charge              0.00000


----------------
ADF Engine Input
----------------
 
   Basis
     Type TZ2P
     Core None
   End
   XC
     GGA BLYP
     Dispersion GRIMME3 BJDAMP
   End
   Symmetry NOSYM
   NumericalQuality Normal
   Unrestricted No
   SCF
     Iterations 200
     Converge 1.0e-6
   End
   Save TAPE21
 

 Title: *** (NO TITLE) ***

 *** adf ***



 ===========================
 A T T A C H E D   F I L E S
 ===========================
  



 ===============================
 M O D E L   P A R A M E T E R S
 ===============================
  
 DENSITY FUNCTIONAL POTENTIAL (scf)
    LDA:                               Exchange only                           == Not Default ==
    Gradient Corrections:              Becke88 LYP                             == Not Default ==

 SPIN  (restricted / unrestr.)
    Molecule:                          Restricted                               
    Fragments:                         Restricted                               

 OTHER ASPECTS
    Relativistic Corrections:          scalar (ZORA,MAPA)                       

    Nuclear Charge Density Model:      Point Charge Nuclei                      
    Core Treatment:                    Frozen Orbital(s)                        

    Hyperfine or Zeeman Interaction:   ---                                      

 Settings for Grimme D3 dispersion correction

      damping                        BJ
      s6                          1.000
      s8                          2.700
      a1                          0.430
      a2                          4.236

 Other (technical) parameters

      alpha                      14.000
      version                         4
 


 Fragment File(s)
 ----------------
 C:
         file : /gpfs/home1/yeseo1ee/projects/eda-asm-prediction/ADF_800/adf_outputs/batch_000/dipolar_000074/c1_fragA_ts.results/t21.50BA88D5.C
         jobid: 0
         title: Carbon (TZ2P)
 N:
         file : /gpfs/home1/yeseo1ee/projects/eda-asm-prediction/ADF_800/adf_outputs/batch_000/dipolar_000074/c1_fragA_ts.results/t21.44EAA48D.N
         jobid: 0
         title: Nitrogen (TZ2P)
 H:
         file : /gpfs/home1/yeseo1ee/projects/eda-asm-prediction/ADF_800/adf_outputs/batch_000/dipolar_000074/c1_fragA_ts.results/t21.6F35CCAB.H
         jobid: 0
         title: Hydrogen (TZ2P)



 ===============
 G E O M E T R Y  ***  3D  Molecule  ***
 ===============
  

 ATOMS
 =====                            X Y Z                    CHARGE
                                (Angstrom)             Nucl     +Core       At.Mass
                       --------------------------    ----------------       -------
    1  C              -2.1618   -2.5783    0.7213      6.00      6.00       12.0000
    2  N              -2.0034   -1.3384   -0.0108      7.00      7.00       14.0031
    3  N              -2.0165   -0.2874    0.7557      7.00      7.00       14.0031
    4  C              -1.7799    0.9213    0.1556      6.00      6.00       12.0000
    5  C              -1.3969    2.0174    0.9741      6.00      6.00       12.0000
    6  N              -1.0392    2.9119    1.6290      7.00      7.00       14.0031
    7  C              -2.3799    1.1898   -1.1096      6.00      6.00       12.0000
    8  N              -2.8518    1.4335   -2.1456      7.00      7.00       14.0031
    9  H              -1.6483   -2.5726    1.6999      1.00      1.00        1.0078
   10  H              -3.2349   -2.7681    0.8917      1.00      1.00        1.0078
   11  H              -1.7690   -3.3977    0.1059      1.00      1.00        1.0078
   12  H              -1.7332   -0.3676    1.7426      1.00      1.00        1.0078


 FRAGMENTS
 =========                                     Atoms in this Fragment     Cart. coord.s (Angstrom)
                                               -------------------------------------------------------
    1  C                                                 1  C           -2.1618   -2.5783    0.7213
    2  C                                                 4  C           -1.7799    0.9213    0.1556
    3  C                                                 5  C           -1.3969    2.0174    0.9741
    4  C                                                 7  C           -2.3799    1.1898   -1.1096
    5  N                                                 2  N           -2.0034   -1.3384   -0.0108
    6  N                                                 3  N           -2.0165   -0.2874    0.7557
    7  N                                                 6  N           -1.0392    2.9119    1.6290
    8  N                                                 8  N           -2.8518    1.4335   -2.1456
    9  H                                                 9  H           -1.6483   -2.5726    1.6999
   10  H                                                10  H           -3.2349   -2.7681    0.8917
   11  H                                                11  H           -1.7690   -3.3977    0.1059
   12  H                                                12  H           -1.7332   -0.3676    1.7426


 Interatomic Distance Matrix (Angstrom)
 --------------------------------------

   1)     0.000
   2)     1.449   0.000
   3)     2.296   1.301   0.000
   4)     3.566   2.277   1.370   0.000
   5)     4.666   3.550   2.397   1.421   0.000
   6)     5.677   4.657   3.457   2.585   1.165   0.000
   7)     4.195   2.782   2.407   1.426   2.448   3.502   0.000
   8)     4.979   3.600   3.475   2.590   3.491   4.441   1.164   0.000
   9)     1.105   2.139   2.500   3.822   4.654   5.519   4.752   5.682   0.000
  10)     1.103   2.092   2.767   4.034   5.127   6.134   4.517   5.199   1.791   0.000
  11)     1.097   2.076   3.187   4.319   5.497   6.532   4.785   5.439   1.799   1.778
          0.000
  12)     2.473   2.022   1.030   2.045   2.528   3.354   3.313   4.429   2.207   2.957
          3.444   0.000

 Min. Distance =    1.0300
 Max. Distance =    6.5317



 =====================================
 S Y M M E T R Y ,   E L E C T R O N S
 =====================================
  
 Symmetry: NOSYM

 Irreducible Representations, including subspecies
 -------------------------------------------------
 A


 Configuration of Valence Electrons
 ==================================
 ( determined in the SCF procedure )

 Total:   56

 Net Charge: 0 (Nuclei minus Electrons)

 Aufbau principle for MO occupations will be applied through SCF cycle no.     100
 Thereafter, the program will assign electrons to MOs that are spatially
 similar to the occupied MOs in a "reference" cycle ("KeepOrbitals").
 The reference cycle is always the PREVIOUS cycle: it will evolve with
 the SCF procedure.
 ***************************************************************************************************



                                      ****************************************
                                      *  B U I L D : (Fragments, Functions)  *
                                      ****************************************
  



 =======
 S F O s  ***  (Symmetrized Fragment Orbitals)  ***
 =======
  
 SFOs are linear combinations of (valence) Fragment Orbitals (FOs), such that the SFOs transform as the
 irreducible representations of the (molecular) symmetry group. Each SFO is therefore characterized by
 an irrep of the molecule and by a few (or only one) generating FOs.
 The SFOs constitute a symmetry-adapted basis for the Fock matrix. The MO eigenvector coefficients in
 this basis provide a direct interpretation of the MOs in terms of Frontier Orbital Theory.

 The SFOs are combined with auxiliary Core Functions (CFs) to ensure orthogonalization on the (frozen)
 Core Orbitals (COs). The Core-orthogonalized SFOs (CSFOs) constitute the true Fock basis.

 The FOs, and hence also the (C)SFOs are combinations of the elementary basis functions (BAS). The basis
 functions that participate in the description of the SFOs depend on the irrep. The indices of the
 involved functions are printed below for each irrep.
 (The complete list of primitive basis functions is printed in another section)

 Total nr. of (C)SFOs (summation over all irreps) :   252

 NOTE: a (C)SFO that is defined as a combination of more than one FO is usually NOT normalized.



                                       === A ===
 Nr. of SFOs :  252
 Cartesian basis functions that participate in this irrep (total number =   288) :
      1     2     3     4     5     6     9    12     7    10
     13     8    11    14    15    16    17    18    19    20
     21    22    23    24    25    26    27    28    29    30
     31    32    33    34    35    36    39    42    37    40
     43    38    41    44    45    46    47    48    49    50
     51    52    53    54    55    56    57    58    59    60
     61    62    63    64    65    66    69    72    67    70
     73    68    71    74    75    76    77    78    79    80
     81    82    83    84    85    86    87    88    89    90
     91    92    93    94    95    96    99   102    97   100
    103    98   101   104   105   106   107   108   109   110
    111   112   113   114   115   116   117   118   119   120
    121   122   123   124   125   126   129   132   127   130
    133   128   131   134   135   136   137   138   139   140
    141   142   143   144   145   146   147   148   149   150
    151   152   153   154   155   156   159   162   157   160
    163   158   161   164   165   166   167   168   169   170
    171   172   173   174   175   176   177   178   179   180
    181   182   183   184   185   186   189   192   187   190
    193   188   191   194   195   196   197   198   199   200
    201   202   203   204   205   206   207   208   209   210
    211   212   213   214   215   216   219   222   217   220
    223   218   221   224   225   226   227   228   229   230
    231   232   233   234   235   236   237   238   239   240
    241   242   243   244   245   246   247   248   249   250
    251   252   253   254   255   256   257   258   259   260
    261   262   263   264   265   266   267   268   269   270
    271   272   273   274   275   276   277   278   279   280
    281   282   283   284   285   286   287   288

    SFO  (index         Fragment          Generating    Expansion in Fragment Orbitals
  indx  incl.CFs)   Occup   Orb.Energy   FragmentType  Coeff.   Orbital     on Fragment
 --------------------------------------------------------------------------------------
     1       1      2.000     -10.066 au  C             1.00      1 S               1
                        (    -273.921 eV)
     2       2      2.000      -0.501 au  C             1.00      2 S               1
                        (     -13.620 eV)
     3       3       --         0.373 au  C             1.00      3 S               1
                        (      10.158 eV)
     4       4       --         5.405 au  C             1.00      4 S               1
                        (     147.073 eV)
     5       5       --        49.848 au  C             1.00      5 S               1
                        (    1356.422 eV)
     6       6      0.667      -0.193 au  C             1.00      1 P:x             1
                        (      -5.239 eV)
     7       7       --         0.169 au  C             1.00      2 P:x             1
                        (       4.589 eV)
     8       8       --         2.013 au  C             1.00      3 P:x             1
                        (      54.789 eV)
     9       9      0.667      -0.193 au  C             1.00      1 P:y             1
                        (      -5.239 eV)
    10      10       --         0.169 au  C             1.00      2 P:y             1
                        (       4.589 eV)
    11      11       --         2.013 au  C             1.00      3 P:y             1
                        (      54.789 eV)
    12      12      0.667      -0.193 au  C             1.00      1 P:z             1
                        (      -5.239 eV)
    13      13       --         0.169 au  C             1.00      2 P:z             1
                        (       4.589 eV)
    14      14       --         2.013 au  C             1.00      3 P:z             1
                        (      54.789 eV)
    15      15       --         1.243 au  C             1.00      1 D:z2            1
                        (      33.824 eV)
    16      16       --         1.243 au  C             1.00      1 D:x2-y2         1
                        (      33.824 eV)
    17      17       --         1.243 au  C             1.00      1 D:xy            1
                        (      33.824 eV)
    18      18       --         1.243 au  C             1.00      1 D:xz            1
                        (      33.824 eV)
    19      19       --         1.243 au  C             1.00      1 D:yz            1
                        (      33.824 eV)
    20      20       --         4.016 au  C             1.00      1 F:z3            1
                        (     109.271 eV)
    21      21       --         4.016 au  C             1.00      1 F:z             1
                        (     109.271 eV)
    22      22       --         4.016 au  C             1.00      1 F:xyz           1
                        (     109.271 eV)
    23      23       --         4.016 au  C             1.00      1 F:z2x           1
                        (     109.271 eV)
    24      24       --         4.016 au  C             1.00      1 F:z2y           1
                        (     109.271 eV)
    25      25       --         4.016 au  C             1.00      1 F:x             1
                        (     109.271 eV)
    26      26       --         4.016 au  C             1.00      1 F:y             1
                        (     109.271 eV)
    27      27      2.000     -10.066 au  C             1.00      1 S               2
                        (    -273.921 eV)
    28      28      2.000      -0.501 au  C             1.00      2 S               2
                        (     -13.620 eV)
    29      29       --         0.373 au  C             1.00      3 S               2
                        (      10.158 eV)
    30      30       --         5.405 au  C             1.00      4 S               2
                        (     147.073 eV)
    31      31       --        49.848 au  C             1.00      5 S               2
                        (    1356.422 eV)
    32      32      0.667      -0.193 au  C             1.00      1 P:x             2
                        (      -5.239 eV)
    33      33       --         0.169 au  C             1.00      2 P:x             2
                        (       4.589 eV)
    34      34       --         2.013 au  C             1.00      3 P:x             2
                        (      54.789 eV)
    35      35      0.667      -0.193 au  C             1.00      1 P:y             2
                        (      -5.239 eV)
    36      36       --         0.169 au  C             1.00      2 P:y             2
                        (       4.589 eV)
    37      37       --         2.013 au  C             1.00      3 P:y             2
                        (      54.789 eV)
    38      38      0.667      -0.193 au  C             1.00      1 P:z             2
                        (      -5.239 eV)
    39      39       --         0.169 au  C             1.00      2 P:z             2
                        (       4.589 eV)
    40      40       --         2.013 au  C             1.00      3 P:z             2
                        (      54.789 eV)
    41      41       --         1.243 au  C             1.00      1 D:z2            2
                        (      33.824 eV)
    42      42       --         1.243 au  C             1.00      1 D:x2-y2         2
                        (      33.824 eV)
    43      43       --         1.243 au  C             1.00      1 D:xy            2
                        (      33.824 eV)
    44      44       --         1.243 au  C             1.00      1 D:xz            2
                        (      33.824 eV)
    45      45       --         1.243 au  C             1.00      1 D:yz            2
                        (      33.824 eV)
    46      46       --         4.016 au  C             1.00      1 F:z3            2
                        (     109.271 eV)
    47      47       --         4.016 au  C             1.00      1 F:z             2
                        (     109.271 eV)
    48      48       --         4.016 au  C             1.00      1 F:xyz           2
                        (     109.271 eV)
    49      49       --         4.016 au  C             1.00      1 F:z2x           2
                        (     109.271 eV)
    50      50       --         4.016 au  C             1.00      1 F:z2y           2
                        (     109.271 eV)
    51      51       --         4.016 au  C             1.00      1 F:x             2
                        (     109.271 eV)
    52      52       --         4.016 au  C             1.00      1 F:y             2
                        (     109.271 eV)
    53      53      2.000     -10.066 au  C             1.00      1 S               3
                        (    -273.921 eV)
    54      54      2.000      -0.501 au  C             1.00      2 S               3
                        (     -13.620 eV)
    55      55       --         0.373 au  C             1.00      3 S               3
                        (      10.158 eV)
    56      56       --         5.405 au  C             1.00      4 S               3
                        (     147.073 eV)
    57      57       --        49.848 au  C             1.00      5 S               3
                        (    1356.422 eV)
    58      58      0.667      -0.193 au  C             1.00      1 P:x             3
                        (      -5.239 eV)
    59      59       --         0.169 au  C             1.00      2 P:x             3
                        (       4.589 eV)
    60      60       --         2.013 au  C             1.00      3 P:x             3
                        (      54.789 eV)
    61      61      0.667      -0.193 au  C             1.00      1 P:y             3
                        (      -5.239 eV)
    62      62       --         0.169 au  C             1.00      2 P:y             3
                        (       4.589 eV)
    63      63       --         2.013 au  C             1.00      3 P:y             3
                        (      54.789 eV)
    64      64      0.667      -0.193 au  C             1.00      1 P:z             3
                        (      -5.239 eV)
    65      65       --         0.169 au  C             1.00      2 P:z             3
                        (       4.589 eV)
    66      66       --         2.013 au  C             1.00      3 P:z             3
                        (      54.789 eV)
    67      67       --         1.243 au  C             1.00      1 D:z2            3
                        (      33.824 eV)
    68      68       --         1.243 au  C             1.00      1 D:x2-y2         3
                        (      33.824 eV)
    69      69       --         1.243 au  C             1.00      1 D:xy            3
                        (      33.824 eV)
    70      70       --         1.243 au  C             1.00      1 D:xz            3
                        (      33.824 eV)
    71      71       --         1.243 au  C             1.00      1 D:yz            3
                        (      33.824 eV)
    72      72       --         4.016 au  C             1.00      1 F:z3            3
                        (     109.271 eV)
    73      73       --         4.016 au  C             1.00      1 F:z             3
                        (     109.271 eV)
    74      74       --         4.016 au  C             1.00      1 F:xyz           3
                        (     109.271 eV)
    75      75       --         4.016 au  C             1.00      1 F:z2x           3
                        (     109.271 eV)
    76      76       --         4.016 au  C             1.00      1 F:z2y           3
                        (     109.271 eV)
    77      77       --         4.016 au  C             1.00      1 F:x             3
                        (     109.271 eV)
    78      78       --         4.016 au  C             1.00      1 F:y             3
                        (     109.271 eV)
    79      79      2.000     -10.066 au  C             1.00      1 S               4
                        (    -273.921 eV)
    80      80      2.000      -0.501 au  C             1.00      2 S               4
                        (     -13.620 eV)
    81      81       --         0.373 au  C             1.00      3 S               4
                        (      10.158 eV)
    82      82       --         5.405 au  C             1.00      4 S               4
                        (     147.073 eV)
    83      83       --        49.848 au  C             1.00      5 S               4
                        (    1356.422 eV)
    84      84      0.667      -0.193 au  C             1.00      1 P:x             4
                        (      -5.239 eV)
    85      85       --         0.169 au  C             1.00      2 P:x             4
                        (       4.589 eV)
    86      86       --         2.013 au  C             1.00      3 P:x             4
                        (      54.789 eV)
    87      87      0.667      -0.193 au  C             1.00      1 P:y             4
                        (      -5.239 eV)
    88      88       --         0.169 au  C             1.00      2 P:y             4
                        (       4.589 eV)
    89      89       --         2.013 au  C             1.00      3 P:y             4
                        (      54.789 eV)
    90      90      0.667      -0.193 au  C             1.00      1 P:z             4
                        (      -5.239 eV)
    91      91       --         0.169 au  C             1.00      2 P:z             4
                        (       4.589 eV)
    92      92       --         2.013 au  C             1.00      3 P:z             4
                        (      54.789 eV)
    93      93       --         1.243 au  C             1.00      1 D:z2            4
                        (      33.824 eV)
    94      94       --         1.243 au  C             1.00      1 D:x2-y2         4
                        (      33.824 eV)
    95      95       --         1.243 au  C             1.00      1 D:xy            4
                        (      33.824 eV)
    96      96       --         1.243 au  C             1.00      1 D:xz            4
                        (      33.824 eV)
    97      97       --         1.243 au  C             1.00      1 D:yz            4
                        (      33.824 eV)
    98      98       --         4.016 au  C             1.00      1 F:z3            4
                        (     109.271 eV)
    99      99       --         4.016 au  C             1.00      1 F:z             4
                        (     109.271 eV)
   100     100       --         4.016 au  C             1.00      1 F:xyz           4
                        (     109.271 eV)
   101     101       --         4.016 au  C             1.00      1 F:z2x           4
                        (     109.271 eV)
   102     102       --         4.016 au  C             1.00      1 F:z2y           4
                        (     109.271 eV)
   103     103       --         4.016 au  C             1.00      1 F:x             4
                        (     109.271 eV)
   104     104       --         4.016 au  C             1.00      1 F:y             4
                        (     109.271 eV)
   105     105      2.000     -14.160 au  N             1.00      1 S               5
                        (    -385.319 eV)
   106     106      2.000      -0.678 au  N             1.00      2 S               5
                        (     -18.450 eV)
   107     107       --         0.517 au  N             1.00      3 S               5
                        (      14.073 eV)
   108     108       --         6.872 au  N             1.00      4 S               5
                        (     186.990 eV)
   109     109       --        63.432 au  N             1.00      5 S               5
                        (    1726.082 eV)
   110     110      1.000      -0.260 au  N             1.00      1 P:x             5
                        (      -7.062 eV)
   111     111       --         0.281 au  N             1.00      2 P:x             5
                        (       7.649 eV)
   112     112       --         3.275 au  N             1.00      3 P:x             5
                        (      89.105 eV)
   113     113      1.000      -0.260 au  N             1.00      1 P:y             5
                        (      -7.062 eV)
   114     114       --         0.281 au  N             1.00      2 P:y             5
                        (       7.649 eV)
   115     115       --         3.275 au  N             1.00      3 P:y             5
                        (      89.105 eV)
   116     116      1.000      -0.260 au  N             1.00      1 P:z             5
                        (      -7.062 eV)
   117     117       --         0.281 au  N             1.00      2 P:z             5
                        (       7.649 eV)
   118     118       --         3.275 au  N             1.00      3 P:z             5
                        (      89.105 eV)
   119     119       --         1.250 au  N             1.00      1 D:z2            5
                        (      34.005 eV)
   120     120       --         1.250 au  N             1.00      1 D:x2-y2         5
                        (      34.005 eV)
   121     121       --         1.250 au  N             1.00      1 D:xy            5
                        (      34.005 eV)
   122     122       --         1.250 au  N             1.00      1 D:xz            5
                        (      34.005 eV)
   123     123       --         1.250 au  N             1.00      1 D:yz            5
                        (      34.005 eV)
   124     124       --         4.013 au  N             1.00      1 F:z3            5
                        (     109.190 eV)
   125     125       --         4.013 au  N             1.00      1 F:z             5
                        (     109.190 eV)
   126     126       --         4.013 au  N             1.00      1 F:xyz           5
                        (     109.190 eV)
   127     127       --         4.013 au  N             1.00      1 F:z2x           5
                        (     109.190 eV)
   128     128       --         4.013 au  N             1.00      1 F:z2y           5
                        (     109.190 eV)
   129     129       --         4.013 au  N             1.00      1 F:x             5
                        (     109.190 eV)
   130     130       --         4.013 au  N             1.00      1 F:y             5
                        (     109.190 eV)
   131     131      2.000     -14.160 au  N             1.00      1 S               6
                        (    -385.319 eV)
   132     132      2.000      -0.678 au  N             1.00      2 S               6
                        (     -18.450 eV)
   133     133       --         0.517 au  N             1.00      3 S               6
                        (      14.073 eV)
   134     134       --         6.872 au  N             1.00      4 S               6
                        (     186.990 eV)
   135     135       --        63.432 au  N             1.00      5 S               6
                        (    1726.082 eV)
   136     136      1.000      -0.260 au  N             1.00      1 P:x             6
                        (      -7.062 eV)
   137     137       --         0.281 au  N             1.00      2 P:x             6
                        (       7.649 eV)
   138     138       --         3.275 au  N             1.00      3 P:x             6
                        (      89.105 eV)
   139     139      1.000      -0.260 au  N             1.00      1 P:y             6
                        (      -7.062 eV)
   140     140       --         0.281 au  N             1.00      2 P:y             6
                        (       7.649 eV)
   141     141       --         3.275 au  N             1.00      3 P:y             6
                        (      89.105 eV)
   142     142      1.000      -0.260 au  N             1.00      1 P:z             6
                        (      -7.062 eV)
   143     143       --         0.281 au  N             1.00      2 P:z             6
                        (       7.649 eV)
   144     144       --         3.275 au  N             1.00      3 P:z             6
                        (      89.105 eV)
   145     145       --         1.250 au  N             1.00      1 D:z2            6
                        (      34.005 eV)
   146     146       --         1.250 au  N             1.00      1 D:x2-y2         6
                        (      34.005 eV)
   147     147       --         1.250 au  N             1.00      1 D:xy            6
                        (      34.005 eV)
   148     148       --         1.250 au  N             1.00      1 D:xz            6
                        (      34.005 eV)
   149     149       --         1.250 au  N             1.00      1 D:yz            6
                        (      34.005 eV)
   150     150       --         4.013 au  N             1.00      1 F:z3            6
                        (     109.190 eV)
   151     151       --         4.013 au  N             1.00      1 F:z             6
                        (     109.190 eV)
   152     152       --         4.013 au  N             1.00      1 F:xyz           6
                        (     109.190 eV)
   153     153       --         4.013 au  N             1.00      1 F:z2x           6
                        (     109.190 eV)
   154     154       --         4.013 au  N             1.00      1 F:z2y           6
                        (     109.190 eV)
   155     155       --         4.013 au  N             1.00      1 F:x             6
                        (     109.190 eV)
   156     156       --         4.013 au  N             1.00      1 F:y             6
                        (     109.190 eV)
   157     157      2.000     -14.160 au  N             1.00      1 S               7
                        (    -385.319 eV)
   158     158      2.000      -0.678 au  N             1.00      2 S               7
                        (     -18.450 eV)
   159     159       --         0.517 au  N             1.00      3 S               7
                        (      14.073 eV)
   160     160       --         6.872 au  N             1.00      4 S               7
                        (     186.990 eV)
   161     161       --        63.432 au  N             1.00      5 S               7
                        (    1726.082 eV)
   162     162      1.000      -0.260 au  N             1.00      1 P:x             7
                        (      -7.062 eV)
   163     163       --         0.281 au  N             1.00      2 P:x             7
                        (       7.649 eV)
   164     164       --         3.275 au  N             1.00      3 P:x             7
                        (      89.105 eV)
   165     165      1.000      -0.260 au  N             1.00      1 P:y             7
                        (      -7.062 eV)
   166     166       --         0.281 au  N             1.00      2 P:y             7
                        (       7.649 eV)
   167     167       --         3.275 au  N             1.00      3 P:y             7
                        (      89.105 eV)
   168     168      1.000      -0.260 au  N             1.00      1 P:z             7
                        (      -7.062 eV)
   169     169       --         0.281 au  N             1.00      2 P:z             7
                        (       7.649 eV)
   170     170       --         3.275 au  N             1.00      3 P:z             7
                        (      89.105 eV)
   171     171       --         1.250 au  N             1.00      1 D:z2            7
                        (      34.005 eV)
   172     172       --         1.250 au  N             1.00      1 D:x2-y2         7
                        (      34.005 eV)
   173     173       --         1.250 au  N             1.00      1 D:xy            7
                        (      34.005 eV)
   174     174       --         1.250 au  N             1.00      1 D:xz            7
                        (      34.005 eV)
   175     175       --         1.250 au  N             1.00      1 D:yz            7
                        (      34.005 eV)
   176     176       --         4.013 au  N             1.00      1 F:z3            7
                        (     109.190 eV)
   177     177       --         4.013 au  N             1.00      1 F:z             7
                        (     109.190 eV)
   178     178       --         4.013 au  N             1.00      1 F:xyz           7
                        (     109.190 eV)
   179     179       --         4.013 au  N             1.00      1 F:z2x           7
                        (     109.190 eV)
   180     180       --         4.013 au  N             1.00      1 F:z2y           7
                        (     109.190 eV)
   181     181       --         4.013 au  N             1.00      1 F:x             7
                        (     109.190 eV)
   182     182       --         4.013 au  N             1.00      1 F:y             7
                        (     109.190 eV)
   183     183      2.000     -14.160 au  N             1.00      1 S               8
                        (    -385.319 eV)
   184     184      2.000      -0.678 au  N             1.00      2 S               8
                        (     -18.450 eV)
   185     185       --         0.517 au  N             1.00      3 S               8
                        (      14.073 eV)
   186     186       --         6.872 au  N             1.00      4 S               8
                        (     186.990 eV)
   187     187       --        63.432 au  N             1.00      5 S               8
                        (    1726.082 eV)
   188     188      1.000      -0.260 au  N             1.00      1 P:x             8
                        (      -7.062 eV)
   189     189       --         0.281 au  N             1.00      2 P:x             8
                        (       7.649 eV)
   190     190       --         3.275 au  N             1.00      3 P:x             8
                        (      89.105 eV)
   191     191      1.000      -0.260 au  N             1.00      1 P:y             8
                        (      -7.062 eV)
   192     192       --         0.281 au  N             1.00      2 P:y             8
                        (       7.649 eV)
   193     193       --         3.275 au  N             1.00      3 P:y             8
                        (      89.105 eV)
   194     194      1.000      -0.260 au  N             1.00      1 P:z             8
                        (      -7.062 eV)
   195     195       --         0.281 au  N             1.00      2 P:z             8
                        (       7.649 eV)
   196     196       --         3.275 au  N             1.00      3 P:z             8
                        (      89.105 eV)
   197     197       --         1.250 au  N             1.00      1 D:z2            8
                        (      34.005 eV)
   198     198       --         1.250 au  N             1.00      1 D:x2-y2         8
                        (      34.005 eV)
   199     199       --         1.250 au  N             1.00      1 D:xy            8
                        (      34.005 eV)
   200     200       --         1.250 au  N             1.00      1 D:xz            8
                        (      34.005 eV)
   201     201       --         1.250 au  N             1.00      1 D:yz            8
                        (      34.005 eV)
   202     202       --         4.013 au  N             1.00      1 F:z3            8
                        (     109.190 eV)
   203     203       --         4.013 au  N             1.00      1 F:z             8
                        (     109.190 eV)
   204     204       --         4.013 au  N             1.00      1 F:xyz           8
                        (     109.190 eV)
   205     205       --         4.013 au  N             1.00      1 F:z2x           8
                        (     109.190 eV)
   206     206       --         4.013 au  N             1.00      1 F:z2y           8
                        (     109.190 eV)
   207     207       --         4.013 au  N             1.00      1 F:x             8
                        (     109.190 eV)
   208     208       --         4.013 au  N             1.00      1 F:y             8
                        (     109.190 eV)
   209     209      1.000      -0.240 au  H             1.00      1 S               9
                        (      -6.532 eV)
   210     210       --         0.088 au  H             1.00      2 S               9
                        (       2.394 eV)
   211     211       --         1.502 au  H             1.00      3 S               9
                        (      40.869 eV)
   212     212       --         0.406 au  H             1.00      1 P:x             9
                        (      11.051 eV)
   213     213       --         0.406 au  H             1.00      1 P:y             9
                        (      11.051 eV)
   214     214       --         0.406 au  H             1.00      1 P:z             9
                        (      11.051 eV)
   215     215       --         2.569 au  H             1.00      1 D:z2            9
                        (      69.917 eV)
   216     216       --         2.569 au  H             1.00      1 D:x2-y2         9
                        (      69.917 eV)
   217     217       --         2.569 au  H             1.00      1 D:xy            9
                        (      69.917 eV)
   218     218       --         2.569 au  H             1.00      1 D:xz            9
                        (      69.917 eV)
   219     219       --         2.569 au  H             1.00      1 D:yz            9
                        (      69.917 eV)
   220     220      1.000      -0.240 au  H             1.00      1 S              10
                        (      -6.532 eV)
   221     221       --         0.088 au  H             1.00      2 S              10
                        (       2.394 eV)
   222     222       --         1.502 au  H             1.00      3 S              10
                        (      40.869 eV)
   223     223       --         0.406 au  H             1.00      1 P:x            10
                        (      11.051 eV)
   224     224       --         0.406 au  H             1.00      1 P:y            10
                        (      11.051 eV)
   225     225       --         0.406 au  H             1.00      1 P:z            10
                        (      11.051 eV)
   226     226       --         2.569 au  H             1.00      1 D:z2           10
                        (      69.917 eV)
   227     227       --         2.569 au  H             1.00      1 D:x2-y2        10
                        (      69.917 eV)
   228     228       --         2.569 au  H             1.00      1 D:xy           10
                        (      69.917 eV)
   229     229       --         2.569 au  H             1.00      1 D:xz           10
                        (      69.917 eV)
   230     230       --         2.569 au  H             1.00      1 D:yz           10
                        (      69.917 eV)
   231     231      1.000      -0.240 au  H             1.00      1 S              11
                        (      -6.532 eV)
   232     232       --         0.088 au  H             1.00      2 S              11
                        (       2.394 eV)
   233     233       --         1.502 au  H             1.00      3 S              11
                        (      40.869 eV)
   234     234       --         0.406 au  H             1.00      1 P:x            11
                        (      11.051 eV)
   235     235       --         0.406 au  H             1.00      1 P:y            11
                        (      11.051 eV)
   236     236       --         0.406 au  H             1.00      1 P:z            11
                        (      11.051 eV)
   237     237       --         2.569 au  H             1.00      1 D:z2           11
                        (      69.917 eV)
   238     238       --         2.569 au  H             1.00      1 D:x2-y2        11
                        (      69.917 eV)
   239     239       --         2.569 au  H             1.00      1 D:xy           11
                        (      69.917 eV)
   240     240       --         2.569 au  H             1.00      1 D:xz           11
                        (      69.917 eV)
   241     241       --         2.569 au  H             1.00      1 D:yz           11
                        (      69.917 eV)
   242     242      1.000      -0.240 au  H             1.00      1 S              12
                        (      -6.532 eV)
   243     243       --         0.088 au  H             1.00      2 S              12
                        (       2.394 eV)
   244     244       --         1.502 au  H             1.00      3 S              12
                        (      40.869 eV)
   245     245       --         0.406 au  H             1.00      1 P:x            12
                        (      11.051 eV)
   246     246       --         0.406 au  H             1.00      1 P:y            12
                        (      11.051 eV)
   247     247       --         0.406 au  H             1.00      1 P:z            12
                        (      11.051 eV)
   248     248       --         2.569 au  H             1.00      1 D:z2           12
                        (      69.917 eV)
   249     249       --         2.569 au  H             1.00      1 D:x2-y2        12
                        (      69.917 eV)
   250     250       --         2.569 au  H             1.00      1 D:xy           12
                        (      69.917 eV)
   251     251       --         2.569 au  H             1.00      1 D:xz           12
                        (      69.917 eV)
   252     252       --         2.569 au  H             1.00      1 D:yz           12
                        (      69.917 eV)



 ================================
 (Slater-type)  F U N C T I O N S  ***  (Basis and Fit)  ***
 ================================
  

 Atom Type    1  (C)
 ==============

 Valence Basis Sets:  10
 -----------------------
   1 S    7.680000
   1 S    5.000000
   2 S    1.280000
   2 S    2.100000
   2 S    4.600000
   2 P    0.820000
   2 P    1.480000
   2 P    2.940000
   3 D    2.200000
   4 F    3.300000

 Atom Type    2  (N)
 ==============

 Valence Basis Sets:  10
 -----------------------
   1 S    8.740000
   1 S    5.900000
   2 S    5.150000
   2 S    2.500000
   2 S    1.500000
   2 P    3.680000
   2 P    1.880000
   2 P    1.000000
   3 D    2.200000
   4 F    3.300000

 Atom Type    3  (H)
 ==============

 Valence Basis Sets:   5
 -----------------------
   1 S    0.690000
   1 S    0.920000
   1 S    1.580000
   2 P    1.250000
   3 D    2.500000


 BAS: List of all Elementary Cartesian Basis Functions
 =====================================================

 The numbering in the list below (to the right of the function characteristics) is referred
 to in print-outs of MO eigenvectors and Mulliken populations in the BAS representation
 (as contrasted to the SFO representation).

 Notes:
 1. The functions are characterized by a polynomial prefactor (powers of x,y,z and r) and
    an exponential decay factor alpha.
 2. Since the basis sets are specific for an atom TYPE, the individual functions occur on
    all atoms of that type.
 3. The word 'Core' in the left margin signals that it is a Core Function (CF) : not a
    degree of freedom in the valence set, but only used to ensure orthogonalization of
    the other valence basis functions on the frozen Core Orbitals.


 (power of) X  Y  Z  R     Alpha  on Atom
            ==========     =====     ==========

 C                                    1    2    3    4
                                  ---------------------------------------------------------------------------
            0  0  0  0     7.680      1   31   61   91
            0  0  0  0     5.000      2   32   62   92
            0  0  0  1     1.280      3   33   63   93
            0  0  0  1     2.100      4   34   64   94
            0  0  0  1     4.600      5   35   65   95
            1  0  0  0     0.820      6   36   66   96
            0  1  0  0     0.820      7   37   67   97
            0  0  1  0     0.820      8   38   68   98
            1  0  0  0     1.480      9   39   69   99
            0  1  0  0     1.480     10   40   70  100
            0  0  1  0     1.480     11   41   71  101
            1  0  0  0     2.940     12   42   72  102
            0  1  0  0     2.940     13   43   73  103
            0  0  1  0     2.940     14   44   74  104
            2  0  0  0     2.200     15   45   75  105
            1  1  0  0     2.200     16   46   76  106
            1  0  1  0     2.200     17   47   77  107
            0  2  0  0     2.200     18   48   78  108
            0  1  1  0     2.200     19   49   79  109
            0  0  2  0     2.200     20   50   80  110
            3  0  0  0     3.300     21   51   81  111
            2  1  0  0     3.300     22   52   82  112
            2  0  1  0     3.300     23   53   83  113
            1  2  0  0     3.300     24   54   84  114
            1  1  1  0     3.300     25   55   85  115
            1  0  2  0     3.300     26   56   86  116
            0  3  0  0     3.300     27   57   87  117
            0  2  1  0     3.300     28   58   88  118
            0  1  2  0     3.300     29   59   89  119
            0  0  3  0     3.300     30   60   90  120

 N                                    5    6    7    8
                                  ---------------------------------------------------------------------------
            0  0  0  0     8.740    121  151  181  211
            0  0  0  0     5.900    122  152  182  212
            0  0  0  1     5.150    123  153  183  213
            0  0  0  1     2.500    124  154  184  214
            0  0  0  1     1.500    125  155  185  215
            1  0  0  0     3.680    126  156  186  216
            0  1  0  0     3.680    127  157  187  217
            0  0  1  0     3.680    128  158  188  218
            1  0  0  0     1.880    129  159  189  219
            0  1  0  0     1.880    130  160  190  220
            0  0  1  0     1.880    131  161  191  221
            1  0  0  0     1.000    132  162  192  222
            0  1  0  0     1.000    133  163  193  223
            0  0  1  0     1.000    134  164  194  224
            2  0  0  0     2.200    135  165  195  225
            1  1  0  0     2.200    136  166  196  226
            1  0  1  0     2.200    137  167  197  227
            0  2  0  0     2.200    138  168  198  228
            0  1  1  0     2.200    139  169  199  229
            0  0  2  0     2.200    140  170  200  230
            3  0  0  0     3.300    141  171  201  231
            2  1  0  0     3.300    142  172  202  232
            2  0  1  0     3.300    143  173  203  233
            1  2  0  0     3.300    144  174  204  234
            1  1  1  0     3.300    145  175  205  235
            1  0  2  0     3.300    146  176  206  236
            0  3  0  0     3.300    147  177  207  237
            0  2  1  0     3.300    148  178  208  238
            0  1  2  0     3.300    149  179  209  239
            0  0  3  0     3.300    150  180  210  240

 H                                    9   10   11   12
                                  ---------------------------------------------------------------------------
            0  0  0  0     0.690    241  253  265  277
            0  0  0  0     0.920    242  254  266  278
            0  0  0  0     1.580    243  255  267  279
            1  0  0  0     1.250    244  256  268  280
            0  1  0  0     1.250    245  257  269  281
            0  0  1  0     1.250    246  258  270  282
            2  0  0  0     2.500    247  259  271  283
            1  1  0  0     2.500    248  260  272  284
            1  0  1  0     2.500    249  261  273  285
            0  2  0  0     2.500    250  262  274  286
            0  1  1  0     2.500    251  263  275  287
            0  0  2  0     2.500    252  264  276  288

 Total number of charge fitting functions (nprimf)       872
 Total number of Cartesian basis functions (naos)        288
 Total number of Cartesian core functions  (ncos)          0

 ***************************************************************************************************



                                              ***********************
                                              *  T E C H N I C A L  *
                                              ***********************
  



 =============================================================
 P A R A L L E L I Z A T I O N  and  V E C T O R I Z A T I O N
 =============================================================
  
 Nr of parallel processes:                                1
 Maximum vector length in NumInt loops:                 128



 =====================
 S C F   U P D A T E S
 =====================
  
 Max. nr. of cycles:                               200
 Convergence criterion:                              0.0000010000
   secondary criterion:                              0.0010000000

 Mix parameter (when DIIS does not apply):           0.2000000000
 Mixed ADIIS+SDIIS will be used                  
    Max number of expansion vectors:                10
    Pure ADIIS when Max([F,P]) is above              0.1000000000
    Pure SDIIS when Max([F,P]) is below              0.0010000000
 Automatic ElectronSmearing (in case of problematic SCF convergence) disabled



 =================
 P R E C I S I O N  ***  (General: NumInt, NeglectFunctionTails, ...)  ***
 =================
  

 NumInt:           Target precision:                 4.0000000000
 -------           Initial precision:                4.0000000000
                   Min. precision (optimization):    4.0000000000

 Neglect Functions:          Basis functions:        0.1000000000E-05
 ------------------          Fit functions:          0.1000000000E-05



 ===========================
 L I N E A R   S C A L I N G
 ===========================
  

 Cut-off radii density fit:                        0.1000000000E-07
 Overlap cut-off criterion AO matrix elements:     0.1000000000E-05
 Cut-offs for Coulomb potential and fitted density:0.1000000000E-07
 Cut-off criterion for Coulomb multipole terms:    0.1000000000E-07
 Progressive Convergence parameter:                 0.000000000    
 ***************************************************************************************************



                                            ***************************
                                            *  C O M P U T A T I O N  *
                                            ***************************
  

 Number of elements of the density matrix on this node (used, total):     41616     41616



 ===========================================
 Numerical Integration : Fuzzy Cells (Becke)
 ===========================================
  
 Becke grid quality: NORMAL         
  
 Lebedev angular grid order:             min:  11 max:  23
 Nr. of radial points:                   min:  46 max:  52

 Total nr. of points:      80346
 Nr. of blocks:              628
 Block length:               128
 Nr. of dummy points:         38


 Test of Precision of the Numerical Integration Grid
 ===================================================

 Integral of the Total Core Density:                   0.00000000000000



 ========================
 Density Fitting (zlmFit)
 ========================
  
 ZlmFit Fit Quality: NORMAL         
  
 Max L-expansion:                        min:   6 max:   7
 Nr. of radial interpolation points:     min:  39 max:  48



 =====
 S C F  ***  ScaSCF  ***
 =====
  
 Initial density matrix is calculated as sum of fragments

 CYCLE    1
 SCF Error: norm([F,P])=      6.648803220834, max([F,P])=      1.463332770174
 orbitals (Q,E):
 ---------------
 A :19...38          ( 2.00    -0.5261)  ( 2.00    -0.5049)  ( 2.00    -0.4927)  ( 2.00    -0.4891)
                     ( 2.00    -0.4632)  ( 2.00    -0.4601)  ( 2.00    -0.4573)  ( 2.00    -0.4532)
                     ( 2.00    -0.4006)  ( 2.00    -0.3257)  ( 0.00    -0.2376)  ( 0.00    -0.1784)
                     ( 0.00    -0.1355)  ( 0.00    -0.1238)  ( 0.00    -0.0634)  ( 0.00    -0.0462)
                     ( 0.00    -0.0374)  ( 0.00    -0.0198)  ( 0.00    -0.0033)  ( 0.00     0.0028)

 CYCLE    2
   MIX coefficients:  0.8000  0.2000
 SCF Error: norm([F,P])=      1.127041303577, max([F,P])=      0.209733334749
 orbitals (Q,E):
 ---------------
 A :19...29          ( 2.00    -0.4862)  ( 2.00    -0.4753)  ( 2.00    -0.4205)  ( 2.00    -0.4200)
                     ( 2.00    -0.4151)  ( 2.00    -0.4077)  ( 2.00    -0.4009)  ( 2.00    -0.3941)
                     ( 2.00    -0.3678)  ( 2.00    -0.2905)  ( 0.00    -0.2151)

 CYCLE    3
  SDIIS (wt  0.000): -0.3031  1.3031
 A-DIIS (wt  1.000):  0.0000  1.0000
  DIIS coefficients:  0.0000  1.0000
 SCF Error: norm([F,P])=      0.544254008346, max([F,P])=      0.087048913873
 orbitals (Q,E):
 ---------------
 A :19...29          ( 2.00    -0.3579)  ( 2.00    -0.3469)  ( 2.00    -0.2852)  ( 2.00    -0.2729)
                     ( 2.00    -0.2656)  ( 2.00    -0.2559)  ( 2.00    -0.2486)  ( 2.00    -0.2437)
                     ( 2.00    -0.2310)  ( 2.00    -0.1636)  ( 0.00    -0.1037)

 CYCLE    4
  SDIIS (wt  0.000):  0.0708  0.4431  0.4862
 A-DIIS (wt  1.000):  0.0000  0.5790  0.4210
  DIIS coefficients:  0.0000  0.5790  0.4210
 SCF Error: norm([F,P])=      0.631572443978, max([F,P])=      0.128916423939
 orbitals (Q,E):
 ---------------
 A :19...29          ( 2.00    -0.4025)  ( 2.00    -0.3955)  ( 2.00    -0.3437)  ( 2.00    -0.3402)
                     ( 2.00    -0.3332)  ( 2.00    -0.3282)  ( 2.00    -0.3225)  ( 2.00    -0.3145)
                     ( 2.00    -0.2792)  ( 2.00    -0.2194)  ( 0.00    -0.1447)

 CYCLE    5
  SDIIS (wt  0.580): -0.0046  0.3737  0.3015  0.3295
 A-DIIS (wt  0.420):  0.0000  0.0000  0.0000  1.0000
  DIIS coefficients: -0.0027  0.2166  0.1748  0.6113
 SCF Error: norm([F,P])=      0.209090206238, max([F,P])=      0.042599517767
 orbitals (Q,E):
 ---------------
 A :19...29          ( 2.00    -0.4274)  ( 2.00    -0.4179)  ( 2.00    -0.3484)  ( 2.00    -0.3339)
                     ( 2.00    -0.3237)  ( 2.00    -0.3181)  ( 2.00    -0.3126)  ( 2.00    -0.3112)
                     ( 2.00    -0.3007)  ( 2.00    -0.2363)  ( 0.00    -0.1674)

 CYCLE    6
  SDIIS (wt  0.000): -0.0193  0.1841  0.1063  0.5765  0.1524
 A-DIIS (wt  1.000):  0.0000  0.0000  0.0000  0.8065  0.1935
  DIIS coefficients:  0.0000  0.0000  0.0000  0.8065  0.1935
 SCF Error: norm([F,P])=      0.642258221017, max([F,P])=      0.160787454930
 orbitals (Q,E):
 ---------------
 A :19...29          ( 2.00    -0.4172)  ( 2.00    -0.4095)  ( 2.00    -0.3519)  ( 2.00    -0.3383)
                     ( 2.00    -0.3311)  ( 2.00    -0.3218)  ( 2.00    -0.3196)  ( 2.00    -0.3136)
                     ( 2.00    -0.3013)  ( 2.00    -0.2276)  ( 0.00    -0.1629)

 CYCLE    7
  SDIIS (wt  0.564):  0.0268  0.0194  0.0419  0.4665  0.0183  0.4271
 A-DIIS (wt  0.436):  0.0000  0.0000  0.0000  0.4954  0.0000  0.5046
  DIIS coefficients:  0.0151  0.0109  0.0236  0.4791  0.0103  0.4609
 SCF Error: norm([F,P])=      0.212955872963, max([F,P])=      0.044202884838
 orbitals (Q,E):
 ---------------
 A :19...29          ( 2.00    -0.4120)  ( 2.00    -0.4041)  ( 2.00    -0.3474)  ( 2.00    -0.3393)
                     ( 2.00    -0.3325)  ( 2.00    -0.3272)  ( 2.00    -0.3212)  ( 2.00    -0.3140)
                     ( 2.00    -0.2941)  ( 2.00    -0.2235)  ( 0.00    -0.1545)

 CYCLE    8
  SDIIS (wt  0.851): -0.0054  0.0218  0.0078  0.2631 -0.0364  0.3406  0.4085
 A-DIIS (wt  0.149):  0.0000  0.0000  0.0000  0.0181  0.0000  0.0000  0.9819
  DIIS coefficients: -0.0046  0.0186  0.0066  0.2265 -0.0310  0.2899  0.4940
 SCF Error: norm([F,P])=      0.055646571349, max([F,P])=      0.015756334999
 orbitals (Q,E):
 ---------------
 A :19...29          ( 2.00    -0.4115)  ( 2.00    -0.4040)  ( 2.00    -0.3481)  ( 2.00    -0.3386)
                     ( 2.00    -0.3318)  ( 2.00    -0.3254)  ( 2.00    -0.3208)  ( 2.00    -0.3132)
                     ( 2.00    -0.2917)  ( 2.00    -0.2232)  ( 0.00    -0.1548)

 CYCLE    9
  SDIIS (wt  0.913): -0.0021  0.0050  0.0015  0.0842 -0.0167  0.1223  0.4024  0.4035
 A-DIIS (wt  0.087):  0.0000  0.0000  0.0000  0.0000  0.0000  0.0000  0.3528  0.6472
  DIIS coefficients: -0.0019  0.0045  0.0013  0.0768 -0.0152  0.1116  0.3980  0.4248
 SCF Error: norm([F,P])=      0.034622505582, max([F,P])=      0.009659432403
 orbitals (Q,E):
 ---------------
 A :19...29          ( 2.00    -0.4113)  ( 2.00    -0.4038)  ( 2.00    -0.3478)  ( 2.00    -0.3389)
                     ( 2.00    -0.3320)  ( 2.00    -0.3263)  ( 2.00    -0.3210)  ( 2.00    -0.3135)
                     ( 2.00    -0.2926)  ( 2.00    -0.2233)  ( 0.00    -0.1548)

 CYCLE   10
  SDIIS (wt  0.997): -0.0008  0.0016  0.0005  0.0366 -0.0078  0.0519  0.2534  0.3218  0.3427
 A-DIIS (wt  0.003):  0.0000  0.0000  0.0000  0.0000  0.0000  0.0000  0.0000  0.0000  1.0000
  DIIS coefficients: -0.0008  0.0016  0.0005  0.0365 -0.0078  0.0518  0.2527  0.3209  0.3446
 SCF Error: norm([F,P])=      0.004394833899, max([F,P])=      0.001285446550
 orbitals (Q,E):
 ---------------
 A :19...29          ( 2.00    -0.4113)  ( 2.00    -0.4037)  ( 2.00    -0.3479)  ( 2.00    -0.3390)
                     ( 2.00    -0.3322)  ( 2.00    -0.3261)  ( 2.00    -0.3210)  ( 2.00    -0.3136)
                     ( 2.00    -0.2925)  ( 2.00    -0.2233)  ( 0.00    -0.1547)

 CYCLE   11
  SDIIS (wt  1.000): -0.0001  0.0003  0.0002  0.0080 -0.0018  0.0083  0.0864  0.1396  0.2792  0.4800
  DIIS coefficients: -0.0001  0.0003  0.0002  0.0080 -0.0018  0.0083  0.0864  0.1396  0.2792  0.4800
 SCF Error: norm([F,P])=      0.001534573115, max([F,P])=      0.000402756561
 orbitals (Q,E):
 ---------------
 A :19...29          ( 2.00    -0.4114)  ( 2.00    -0.4038)  ( 2.00    -0.3478)  ( 2.00    -0.3389)
                     ( 2.00    -0.3321)  ( 2.00    -0.3262)  ( 2.00    -0.3210)  ( 2.00    -0.3135)
                     ( 2.00    -0.2925)  ( 2.00    -0.2233)  ( 0.00    -0.1547)

 CYCLE   12
  SDIIS (wt  1.000):  0.0001  0.0001  0.0023 -0.0006  0.0013  0.0266  0.0494  0.1131  0.2222  0.5855
  DIIS coefficients:  0.0001  0.0001  0.0023 -0.0006  0.0013  0.0266  0.0494  0.1131  0.2222  0.5855
 SCF Error: norm([F,P])=      0.000399407589, max([F,P])=      0.000112320390
 orbitals (Q,E):
 ---------------
 A :19...29          ( 2.00    -0.4113)  ( 2.00    -0.4038)  ( 2.00    -0.3478)  ( 2.00    -0.3389)
                     ( 2.00    -0.3321)  ( 2.00    -0.3262)  ( 2.00    -0.3210)  ( 2.00    -0.3135)
                     ( 2.00    -0.2925)  ( 2.00    -0.2233)  ( 0.00    -0.1547)

 CYCLE   13
  SDIIS (wt  1.000): -0.0000  0.0002 -0.0001 -0.0008  0.0053  0.0142  0.0408  0.0841  0.3157  0.5405
  DIIS coefficients: -0.0000  0.0002 -0.0001 -0.0008  0.0053  0.0142  0.0408  0.0841  0.3157  0.5405
 SCF Error: norm([F,P])=      0.000104718193, max([F,P])=      0.000026365655
 orbitals (Q,E):
 ---------------
 A :19...29          ( 2.00    -0.4113)  ( 2.00    -0.4038)  ( 2.00    -0.3478)  ( 2.00    -0.3389)
                     ( 2.00    -0.3321)  ( 2.00    -0.3262)  ( 2.00    -0.3210)  ( 2.00    -0.3136)
                     ( 2.00    -0.2925)  ( 2.00    -0.2233)  ( 0.00    -0.1547)

 CYCLE   14
  SDIIS (wt  1.000):  0.0001 -0.0000 -0.0002  0.0020  0.0047  0.0105  0.0191  0.0902  0.3204  0.5530
  DIIS coefficients:  0.0001 -0.0000 -0.0002  0.0020  0.0047  0.0105  0.0191  0.0902  0.3204  0.5530
 SCF Error: norm([F,P])=      0.000033459013, max([F,P])=      0.000007315748
 orbitals (Q,E):
 ---------------
 A :19...29          ( 2.00    -0.4113)  ( 2.00    -0.4038)  ( 2.00    -0.3478)  ( 2.00    -0.3389)
                     ( 2.00    -0.3321)  ( 2.00    -0.3262)  ( 2.00    -0.3210)  ( 2.00    -0.3136)
                     ( 2.00    -0.2925)  ( 2.00    -0.2233)  ( 0.00    -0.1547)

 CYCLE   15
  SDIIS (wt  1.000):  0.0000 -0.0002  0.0004  0.0014  0.0036  0.0073  0.0406  0.1625  0.3157  0.4686
  DIIS coefficients:  0.0000 -0.0002  0.0004  0.0014  0.0036  0.0073  0.0406  0.1625  0.3157  0.4686
 SCF Error: norm([F,P])=      0.000015940633, max([F,P])=      0.000003112686
 orbitals (Q,E):
 ---------------
 A :19...29          ( 2.00    -0.4113)  ( 2.00    -0.4038)  ( 2.00    -0.3478)  ( 2.00    -0.3389)
                     ( 2.00    -0.3321)  ( 2.00    -0.3262)  ( 2.00    -0.3210)  ( 2.00    -0.3136)
                     ( 2.00    -0.2925)  ( 2.00    -0.2233)  ( 0.00    -0.1547)

 CYCLE   16
  SDIIS (wt  1.000): -0.0001  0.0002  0.0006  0.0016  0.0032  0.0170  0.0563  0.1084  0.1694  0.6433
  DIIS coefficients: -0.0001  0.0002  0.0006  0.0016  0.0032  0.0170  0.0563  0.1084  0.1694  0.6433
 SCF Error: norm([F,P])=      0.000002147519, max([F,P])=      0.000000449608
 orbitals (Q,E):
 ---------------
 A :19...29          ( 2.00    -0.4113)  ( 2.00    -0.4038)  ( 2.00    -0.3478)  ( 2.00    -0.3389)
                     ( 2.00    -0.3321)  ( 2.00    -0.3262)  ( 2.00    -0.3210)  ( 2.00    -0.3136)
                     ( 2.00    -0.2925)  ( 2.00    -0.2233)  ( 0.00    -0.1547)

 SCF CONVERGED

 CYCLE   17
 ***************************************************************************************************



                                                *******************
                                                *  R E S U L T S  *
                                                *******************
  
 *** Using FIT density in Focky
  SDIIS (wt  1.000):  0.0000  0.0000  0.0001  0.0001  0.0014  0.0048  0.0143  0.0207  0.3466  0.6119
  DIIS coefficients:  0.0000  0.0000  0.0001  0.0001  0.0014  0.0048  0.0143  0.0207  0.3466  0.6119
 SCF Error: norm([F,P])=      0.000000835142, max([F,P])=      0.000000155765

 Scaled ZORA Orbital Energies, per Irrep and Spin:
 =================================================
                        Occup              E (au)              E (eV)       Diff (eV) with prev. cycle
                        -----      --------------------        ------       --------------------------
 A
              19        2.000     -0.41134424452983E+00       -11.193              -1.65E-06
              20        2.000     -0.40378030450976E+00       -10.987              -1.63E-06
              21        2.000     -0.34784028414920E+00        -9.465              -8.56E-07
              22        2.000     -0.33890614333802E+00        -9.222              -3.46E-07
              23        2.000     -0.33212765912243E+00        -9.038              -9.98E-07
              24        2.000     -0.32617449931424E+00        -8.876               6.44E-07
              25        2.000     -0.32098984259247E+00        -8.735               1.99E-07
              26        2.000     -0.31355119214981E+00        -8.532               7.76E-08
              27        2.000     -0.29245706367611E+00        -7.958              -1.42E-06
              28        2.000     -0.22328370126135E+00        -6.076              -1.22E-06
              29        0.000     -0.15470124120878E+00        -4.210
              30        0.000     -0.70613186836566E-01        -1.921
              31        0.000     -0.42205042743963E-01        -1.148
              32        0.000     -0.17710538150006E-01        -0.482
              33        0.000     -0.12491741652347E-01        -0.340
              34        0.000     -0.44220407118823E-02        -0.120
              35        0.000      0.22482845443279E-01         0.612
              36        0.000      0.30471845767168E-01         0.829
              37        0.000      0.51670843813730E-01         1.406
              38        0.000      0.56626781015984E-01         1.541
  
 HOMO :       28 A                -0.22328370126135E+00
 LUMO :       29 A                -0.15470124120878E+00
  


 All Electron Calculation, thus no Orbital Energies of the Core Orbitals are calculated


 Fit test: (difference of exact and fit density, squared integrated, result summed over spins)
         Sum-of-Fragments:                             0.00000000033472
         Orthogonalized Fragments:                     0.00009993991154
         SCF:                                          0.00020139720112



 ==========================
 Electron Density at Nuclei
 ==========================
  
 The electron density is calculated at points on a small sphere around the center of a nucleus.
 The printed electron density is the average electron density on these points.
 The radius of the sphere is the printed approximate finite nuclear radius.
 Note: ZORA-4 density is used, which includes small component density

         Atom        Nuclear Radius (Angstrom)             Electron Density (a.u.)
         ----        -------------------------             -----------------------
     1)   C                 0.0000320678                              127.01122
     2)   N                 0.0000333706                              206.55507
     3)   N                 0.0000333706                              206.07878
     4)   C                 0.0000320678                              126.89115
     5)   C                 0.0000320678                              127.36340
     6)   N                 0.0000333706                              206.94502
     7)   C                 0.0000320678                              127.35900
     8)   N                 0.0000333706                              206.96175
     9)   H                 0.0000181514                                0.50520
    10)   H                 0.0000181514                                0.50289
    11)   H                 0.0000181514                                0.50579
    12)   H                 0.0000181514                                0.48087



 =======================================
 M U L L I K E N   P O P U L A T I O N S
 =======================================
  
 The survey below gives for each atom:
 a) the total charge (Z minus electrons)
 b) the net spin polarization (nr of electrons spin-A minus spin-B)
 c) for each spin the atomic electron valence density (integrated) per L-value.

 Atom              Charge    Spin density          S         P         D         F
 ----              ------    ------------       ------    ------    ------    ------
 1 C               0.7325                       2.7813    2.4271    0.0558    0.0033
 2 N              -0.1931                       3.6464    3.4585    0.0815    0.0067
 3 N               0.2080                       3.3263    3.3534    0.1048    0.0074
 4 C               0.0648                       3.0440    2.7923    0.0920    0.0069
 5 C               0.0863                       3.0473    2.7908    0.0665    0.0091
 6 N              -0.2431                       3.7332    3.4487    0.0568    0.0045
 7 C               0.1390                       3.0379    2.7495    0.0643    0.0093
 8 N              -0.2396                       3.7340    3.4442    0.0569    0.0045
 9 H              -0.2149                       1.1291    0.0799    0.0059    0.0000
 10 H             -0.1476                       1.0627    0.0791    0.0059    0.0000
 11 H             -0.1697                       1.0886    0.0754    0.0057    0.0000
 12 H             -0.0226                       0.9101    0.1021    0.0104    0.0000

 Populations of individual BAS functions
 ----------------------------------------
 1 C            0.5066  1.4842 -0.1069  0.9441 -0.0467 -0.1500 -0.1179 -0.1527  0.8034  0.7029
                0.7643  0.2021  0.1813  0.1936  0.0050  0.0101  0.0073  0.0123  0.0151  0.0061
                0.0000 -0.0022 -0.0007  0.0009  0.0004  0.0001  0.0027  0.0025  0.0006 -0.0009
 4 C            0.5059  1.4831  0.2448  0.8429 -0.0327  0.1255 -0.0966 -0.0886  0.8067  0.7172
                0.7743  0.1904  0.1802  0.1832 -0.0132  0.0169  0.0136  0.0256  0.0281  0.0210
               -0.0067 -0.0044 -0.0034  0.0041  0.0009  0.0043  0.0043  0.0029  0.0024  0.0026
 5 C            0.5055  1.4807  0.2454  0.8473 -0.0315  0.0728  0.0206  0.0693  0.6857  0.6923
                0.6752  0.1691  0.2157  0.1902 -0.0122  0.0172  0.0100  0.0300  0.0136  0.0078
               -0.0057 -0.0038 -0.0028  0.0056  0.0016  0.0016  0.0062  0.0056  0.0011 -0.0003
 7 C            0.5055  1.4809  0.2323  0.8518 -0.0325  0.0541  0.0683 -0.0081  0.6872  0.6861
                0.6882  0.1746  0.1653  0.2337 -0.0036  0.0042  0.0185 -0.0159  0.0143  0.0469
               -0.0039 -0.0006 -0.0025 -0.0024  0.0012  0.0084 -0.0056 -0.0053  0.0081  0.0118
 2 N            0.5481  1.4313 -0.0250  0.9907  0.7012  0.1656  0.1520  0.2077  0.6969  0.7304
                0.8492  0.3026  0.0301  0.3240 -0.0030  0.0161  0.0105  0.0321  0.0298 -0.0039
               -0.0060 -0.0063 -0.0039  0.0057  0.0012  0.0014  0.0063  0.0086  0.0027 -0.0028
 3 N            0.5513  1.4302 -0.0367  1.0118  0.3697  0.1834  0.1771  0.1781  0.8528  0.8711
                0.8876  0.2851 -0.0435 -0.0383 -0.0185  0.0303  0.0061  0.0357  0.0259  0.0255
               -0.0087 -0.0066 -0.0051  0.0069  0.0013  0.0034  0.0077  0.0053  0.0018  0.0015
 6 N            0.5468  1.4319 -0.0251  1.0212  0.7585  0.1646  0.1912  0.1681  0.7147  0.7840
                0.7225  0.2600  0.2194  0.2243 -0.0013  0.0119  0.0071  0.0172  0.0131  0.0088
               -0.0043 -0.0031 -0.0021  0.0039  0.0007  0.0011  0.0047  0.0035  0.0003 -0.0004
 8 N            0.5468  1.4320 -0.0256  1.0244  0.7564  0.1644  0.1487  0.2097  0.7163  0.6703
                0.8339  0.2419  0.2336  0.2254  0.0022  0.0039  0.0153 -0.0021  0.0159  0.0217
               -0.0031 -0.0005 -0.0024 -0.0019  0.0006  0.0059 -0.0046 -0.0043  0.0061  0.0087
 9 H            0.1317  0.6914  0.3060  0.0259  0.0186  0.0354 -0.0023  0.0004  0.0016 -0.0050
                0.0016  0.0097
 10 H           0.0510  0.7033  0.3083  0.0365  0.0199  0.0227  0.0132  0.0017  0.0019 -0.0052
                0.0002 -0.0060
 11 H           0.0855  0.6962  0.3069  0.0253  0.0244  0.0257 -0.0035  0.0012  0.0008  0.0056
                0.0014  0.0002
 12 H          -0.0484  0.6601  0.2985  0.0319  0.0279  0.0423 -0.0048  0.0006  0.0030 -0.0052
                0.0032  0.0137

 Gross Charges per Atom (Z minus electrons)
 ==========================================
             0.7325   -0.1931    0.2080    0.0648    0.0863   -0.2431    0.1390   -0.2396   -0.2149   -0.1476
            -0.1697   -0.0226
 Net Total:  0.00000000


 Atom-Atom Population Matrix (off-diagonal elements not doubled)
 ===============================================================

     1 :     3.8604
     2 :     0.3924    6.6656
     3 :    -0.0408    0.4387    5.6855
     4 :    -0.0006   -0.1282    0.4511    4.8545
     5 :    -0.0009    0.0032   -0.0336    0.4283    4.6642
     6 :     0.0000    0.0009   -0.0039   -0.0229    0.9008    6.3716
     7 :    -0.0006    0.0001   -0.0380    0.4319   -0.0355   -0.0037    4.6014
     8 :    -0.0003   -0.0009   -0.0043   -0.0174   -0.0033    0.0002    0.9082    6.3582
     9 :     0.3555   -0.0431   -0.0278    0.0009   -0.0002   -0.0001    0.0001   -0.0002    1.0437
    10 :     0.3586   -0.0357   -0.0115    0.0029   -0.0001   -0.0001   -0.0003   -0.0001   -0.0842    0.9783
    11 :     0.3644   -0.0447    0.0028   -0.0019   -0.0001   -0.0000    0.0001   -0.0000   -0.0566   -0.0557
             0.9640
    12 :    -0.0206   -0.0550    0.3739   -0.0634   -0.0091    0.0003   -0.0026   -0.0005    0.0269   -0.0044
            -0.0025    0.7798



 =================================================
 H I R S H F E L D   C H A R G E   A N A L Y S I S
 =================================================
  
 For each fragment: the (numerical) integral of rho(scf) * rho(fragment)/rho(sum-of-fragments)
 (nuclear charges are included, electrons are counted negative)

 The fragments and their ordering are defined in the early G E O M E T R Y output section.
 If you use single-atom fragments, this usually implies that all atoms of the same
 chemical type are grouped together. This may not be the order in which you listed them
 in the input file!

  Fragment                       Charge
 ------------------------------------------
    1  C                        -0.0522
    2  C                         0.0399
    3  C                         0.0519
    4  C                         0.0617
    5  N                        -0.0724
    6  N                         0.0543
    7  N                        -0.2040
    8  N                        -0.1926
    9  H                         0.0418
   10  H                         0.0547
   11  H                         0.0625
   12  H                         0.1542

 Sum of these charges =         -0.00002594
 (accuracy NumInt/Tails)



 =============================
 V O R O N O I   C H A R G E S
 =============================
  
 For each atom: the (numerical) integral of the total electronic charge density in its Voronoi cell,
 i.e. the region of space that is closer to that atom than to any other atom.
 (cf. Wigner-Seitz cells in crystals)

 Within the Voronoi cell the subintegrals over the atomic sphere and the remaining part are evaluated
 separately to give the numbers of electrons (negative charge) in these regions.
 The net total charge in the cell (including the nuclear charge) is also given.

 Values are provided for
    a) the Initial (sum-of-fragments) density
    b) the Orthogonalized-Fragments density
    c) the SCF density
    d) the Voronoi Deformation Density (VDD): the difference SCF-Initial for the complete atomic cell

  Atom                Initial                    OrthFrag                   SCF
             Sphere RestCell NetTotal   Sphere RestCell NetTotal   Sphere RestCell NetTotal      VDD
 -------     ------------------------   ------------------------   ------------------------    -----
    1 C      -2.272   -2.243    1.485   -2.447   -2.471    1.082   -2.305   -2.259    1.437   -0.048
    2 N      -2.323   -4.734   -0.057   -2.444   -4.573   -0.018   -2.339   -4.813   -0.151   -0.094
    3 N      -2.330   -4.160    0.511   -2.507   -4.131    0.363   -2.348   -4.101    0.551    0.041
    4 C      -2.274   -3.567    0.158   -2.477   -3.450    0.073   -2.307   -3.554    0.139   -0.020
    5 C      -2.279   -3.669    0.052   -2.431   -3.452    0.117   -2.320   -3.587    0.093    0.041
    6 N      -2.325   -4.738   -0.062   -2.428   -4.682   -0.110   -2.338   -4.918   -0.256   -0.194
    7 C      -2.279   -3.705    0.016   -2.430   -3.473    0.097   -2.319   -3.602    0.078    0.062
    8 N      -2.325   -4.721   -0.045   -2.428   -4.673   -0.101   -2.337   -4.883   -0.220   -0.175
[...]
                                    7.68%     2 S               2.394  0.00    12 H
                                    6.88%     1 P:y            -5.239  0.67     3 C
                                   -3.12%     3 S              14.073  0.00     6 N
                                    2.99%     2 S             -18.450  2.00     6 N
                                    2.83%     1 P:y            -5.239  0.67     2 C
                                    1.59%     1 P:z            -7.062  1.00     5 N
                                    1.15%     1 P:z            11.051  0.00    12 H
                                    1.13%     1 P:x            -7.062  1.00     8 N
                                   -1.12%     2 P:y             7.649  0.00     7 N
                                   -1.10%     2 P:z             7.649  0.00     7 N
                                   -1.09%     2 P:z             7.649  0.00     6 N
                                   -1.07%     2 P:y             7.649  0.00     8 N
                                    1.07%     1 D:yz           33.824  0.00     2 C
      -1.148  0.00    31 A         28.34%     1 S              -6.532  1.00    12 H
                                   25.36%     2 S               2.394  0.00    12 H
                                   15.45%     2 S               2.394  0.00     9 H
                                    8.21%     1 S              -6.532  1.00     9 H
                                   -5.98%     2 P:z             7.649  0.00     6 N
                                    4.28%     1 P:z            -7.062  1.00     7 N
                                    4.05%     1 P:y            -7.062  1.00     8 N
                                    3.78%     1 P:z            -7.062  1.00     6 N
                                    3.33%     1 P:y            -5.239  0.67     3 C
                                    3.20%     1 P:y            -5.239  0.67     4 C
                                    3.11%     1 P:y            -7.062  1.00     7 N
                                   -3.10%     3 S              10.158  0.00     1 C
                                    2.73%     1 P:z            -5.239  0.67     3 C
                                    2.35%     1 P:z            11.051  0.00    12 H
                                    2.20%     2 S               2.394  0.00    10 H
                                   -2.04%     2 P:z             4.589  0.00     1 C
                                   -1.91%     2 P:z             4.589  0.00     2 C
                                   -1.71%     2 P:y             4.589  0.00     3 C
                                    1.59%     1 P:z            -5.239  0.67     1 C
                                    1.39%     1 S              -6.532  1.00    10 H
                                   -1.32%     2 P:y             7.649  0.00     6 N
                                    1.15%     1 P:y            -5.239  0.67     1 C
                                   -1.08%     3 S              10.158  0.00     3 C
      -0.482  0.00    32 A         20.42%     1 P:x            -5.239  0.67     3 C
                                   20.11%     1 P:x            -5.239  0.67     4 C
                                   18.64%     1 P:x            -7.062  1.00     7 N
                                   18.34%     1 P:x            -7.062  1.00     8 N
                                    4.31%     1 P:z            -5.239  0.67     3 C
                                    4.14%     1 P:z            -5.239  0.67     4 C
                                    3.87%     1 P:z            -7.062  1.00     8 N
                                    2.83%     1 P:z            -7.062  1.00     7 N
                                    2.76%     2 S               2.394  0.00    10 H
                                    2.47%     1 S              -6.532  1.00    10 H
                                   -2.38%     2 P:x             7.649  0.00     7 N
                                   -2.27%     2 P:x             4.589  0.00     3 C
                                    2.26%     1 S              -6.532  1.00    12 H
                                   -2.08%     2 P:x             4.589  0.00     4 C
                                   -2.06%     2 P:x             7.649  0.00     8 N
                                    1.43%     2 S               2.394  0.00    11 H
                                   -1.30%     3 S              10.158  0.00     1 C
                                    1.15%     2 P:y             4.589  0.00     2 C
      -0.340  0.00    33 A         23.59%     2 S               2.394  0.00    11 H
                                   19.10%     2 S               2.394  0.00    10 H
                                   13.60%     1 S              -6.532  1.00    11 H
                                   12.76%     1 S              -6.532  1.00    12 H
                                   10.41%     1 S              -6.532  1.00    10 H
                                   -8.02%     3 S              10.158  0.00     1 C
                                    7.94%     2 S               2.394  0.00     9 H
                                    4.17%     1 S              -6.532  1.00     9 H
                                    3.91%     2 S             -13.620  2.00     1 C
                                   -3.77%     2 S               2.394  0.00    12 H
                                   -3.11%     2 P:z             7.649  0.00     6 N
                                    2.99%     1 P:z            -7.062  1.00     7 N
                                   -2.65%     2 P:y             4.589  0.00     1 C
                                    2.54%     1 P:x            -5.239  0.67     4 C
                                    2.42%     1 P:z            -5.239  0.67     3 C
                                    2.40%     1 P:x            -7.062  1.00     8 N
                                    1.72%     1 P:z            -7.062  1.00     6 N
                                    1.70%     1 P:x            -5.239  0.67     3 C
                                    1.28%     2 P:y             4.589  0.00     2 C
                                   -1.18%     2 P:y             7.649  0.00     5 N
                                   -1.16%     1 P:y            -5.239  0.67     1 C
                                    1.11%     1 P:x            -7.062  1.00     7 N
                                    1.05%     1 P:x            11.051  0.00    10 H
      -0.120  0.00    34 A         24.18%     1 P:y            -5.239  0.67     4 C
                                   20.83%     1 P:y            -7.062  1.00     8 N
                                    9.78%     1 P:z            -5.239  0.67     3 C
                                    6.91%     1 P:z            -7.062  1.00     7 N
                                    6.60%     1 P:x            -5.239  0.67     3 C
                                    5.34%     1 P:y            -7.062  1.00     7 N
                                    5.01%     1 P:y            -5.239  0.67     3 C
                                    4.86%     1 P:x            -7.062  1.00     7 N
                                   -2.18%     2 P:y             7.649  0.00     8 N
                                    2.08%     1 P:z            -5.239  0.67     4 C
                                    1.94%     2 S               2.394  0.00    11 H
                                    1.72%     1 S              -6.532  1.00    11 H
                                    1.63%     2 S             -13.620  2.00     4 C
                                   -1.58%     2 P:y             4.589  0.00     4 C
                                    1.55%     1 P:y            -5.239  0.67     1 C
                                    1.53%     1 P:z            -7.062  1.00     8 N
                                    1.33%     2 S             -13.620  2.00     3 C
                                    1.30%     2 S               2.394  0.00    12 H
                                    1.25%     1 P:y            -5.239  0.67     2 C
                                    1.19%     1 P:y            -7.062  1.00     6 N
                                    1.15%     1 P:z            -5.239  0.67     2 C
                                    1.11%     1 S              -6.532  1.00    12 H
                                   -1.05%     3 S              10.158  0.00     3 C
       0.612  0.00    35 A         31.27%     1 S              -6.532  1.00     9 H
                                  -19.98%     2 P:x             4.589  0.00     1 C
                                   19.44%     1 S              -6.532  1.00    10 H
                                   17.54%     2 S               2.394  0.00    10 H
                                   15.31%     2 S               2.394  0.00     9 H
                                    8.33%     1 P:y            -5.239  0.67     1 C
                                    5.10%     2 P:y             4.589  0.00     1 C
                                    4.83%     1 P:x            -5.239  0.67     1 C
                                   -3.52%     2 P:z             4.589  0.00     1 C
                                    3.06%     3 S              40.869  0.00     9 H
                                    3.00%     2 S               2.394  0.00    12 H
                                    2.46%     1 P:y            -7.062  1.00     5 N
                                    1.76%     2 P:y             4.589  0.00     2 C
                                    1.68%     2 P:x             4.589  0.00     4 C
                                   -1.30%     3 S              14.073  0.00     8 N
                                    1.25%     1 P:x            -5.239  0.67     4 C
                                    1.07%     1 S              -6.532  1.00    12 H
                                   -1.06%     3 S              14.073  0.00     5 N
                                    1.03%     1 P:z            11.051  0.00     9 H
                                    1.00%     1 S              -6.532  1.00    11 H
       0.829  0.00    36 A         47.52%     1 S              -6.532  1.00    11 H
                                   27.92%     2 S               2.394  0.00    11 H
                                   19.83%     1 S              -6.532  1.00    10 H
                                  -13.61%     2 P:x             4.589  0.00     1 C
                                   12.63%     2 S               2.394  0.00    10 H
                                  -10.46%     2 P:z             4.589  0.00     1 C
                                    9.08%     1 P:y            -5.239  0.67     1 C
                                   -8.67%     2 P:y             4.589  0.00     1 C
                                    3.19%     1 S              -6.532  1.00     9 H
                                    2.00%     3 S              40.869  0.00    11 H
                                    1.89%     3 S              40.869  0.00    10 H
                                    1.55%     1 P:x            -5.239  0.67     1 C
                                   -1.10%     2 P:y             7.649  0.00     5 N



 =======================================================================
 Electrostatic potential at the Nuclei due to electrons and other nuclei
 =======================================================================
  
         Atom                  Potential
         ----                  ---------
     1)   C                  14.71937248
     2)   N                  18.35225600
     3)   N                  18.24834523
     4)   C                  14.66607202
     5)   C                  14.74038184
     6)   N                  18.41894524
     7)   C                  14.74387650
     8)   N                  18.42365426
     9)   H                   1.05840894
    10)   H                   1.06169319
    11)   H                   1.06708065
    12)   H                   0.92333545
 Mulliken charges used for AMS results%charges...


    =====================
     CALCULATION RESULTS
    =====================

Energy (hartree)            -2.80966805


--------------
Atomic charges
--------------
  Index   Atom    Charge
      1      C    0.7325
      2      N   -0.1931
      3      N    0.2080
      4      C    0.0648
      5      C    0.0863
      6      N   -0.2431
      7      C    0.1390
      8      N   -0.2396
      9      H   -0.2149
     10      H   -0.1476
     11      H   -0.1697
     12      H   -0.0226


Dipole moment vector    (Debye):     0.07327033   -5.81362447    3.58202379
              magnitude (Debye):     6.82894520


-----------------------
Molecular orbitals info
-----------------------
n orbitals:              252
n spin:                    1

Note: only printing virtual orbitals with
      energy smaller than HOMO + 100. eV

HOMO (eV):              -6.0759
LUMO (eV):              -4.2096
HOMO-LUMO gap (eV):      1.8662

   Index   Energy (eV)    Occupation
     154       93.2000         0.000       
     153       92.8758         0.000       
     152       90.5753         0.000       
     151       90.1680         0.000       
     150       86.9354         0.000       
     149       86.4939         0.000       
     148       84.2337         0.000       
     147       82.6345         0.000       
     146       81.8648         0.000       
     145       80.2273         0.000       
     144       79.4635         0.000       
     143       79.1953         0.000       
     142       78.8766         0.000       
     141       76.8890         0.000       
     140       76.3510         0.000       
     139       75.9171         0.000       
     138       75.6861         0.000       
     137       74.6968         0.000       
     136       73.6727         0.000       
     135       71.8366         0.000       
     134       69.4255         0.000       
     133       68.3792         0.000       
     132       67.2543         0.000       
     131       66.7448         0.000       
     130       65.5196         0.000       
     129       64.2477         0.000       
     128       63.0363         0.000       
     127       62.5216         0.000       
     126       61.6944         0.000       
     125       60.6460         0.000       
     124       59.1812         0.000       
     123       58.3263         0.000       
     122       57.0505         0.000       
     121       56.3335         0.000       
     120       56.1801         0.000       
     119       54.6199         0.000       
     118       54.3913         0.000       
     117       52.5301         0.000       
     116       52.1313         0.000       
     115       50.6077         0.000       
     114       49.7532         0.000       
     113       48.7610         0.000       
     112       48.1143         0.000       
     111       47.4134         0.000       
     110       46.7700         0.000       
     109       45.7361         0.000       
     108       45.5556         0.000       
     107       44.5621         0.000       
     106       44.2842         0.000       
     105       42.6628         0.000       
     104       41.9025         0.000       
     103       40.8929         0.000       
     102       38.9891         0.000       
     101       38.2594         0.000       
     100       38.0318         0.000       
      99       37.5825         0.000       
      98       36.8666         0.000       
      97       36.3112         0.000       
      96       35.9835         0.000       
      95       35.4936         0.000       
      94       33.8087         0.000       
      93       33.5897         0.000       
      92       32.1011         0.000       
      91       31.1465         0.000       
      90       30.5297         0.000       
      89       30.2912         0.000       
      88       29.8448         0.000       
      87       29.7059         0.000       
      86       28.9266         0.000       
      85       27.8737         0.000       
      84       27.5677         0.000       
      83       27.1297         0.000       
      82       26.6479         0.000       
      81       25.9743         0.000       
      80       25.0976         0.000       
      79       24.4949         0.000       
      78       23.4806         0.000       
      77       23.2351         0.000       
      76       22.9174         0.000       
      75       22.0546         0.000       
      74       20.9338         0.000       
      73       20.1148         0.000       
      72       19.6537         0.000       
      71       18.8120         0.000       
      70       17.5585         0.000       
      69       17.1183         0.000       
      68       15.2911         0.000       
      67       14.9543         0.000       
      66       14.3253         0.000       
      65       13.8277         0.000       
      64       13.5452         0.000       
      63       12.0977         0.000       
      62       11.3897         0.000       
      61       11.1116         0.000       
      60       10.2701         0.000       
      59       10.1940         0.000       
      58        9.2348         0.000       
      57        8.8295         0.000       
      56        8.4687         0.000       
      55        8.4312         0.000       
      54        8.1058         0.000       
      53        7.6894         0.000       
      52        7.2689         0.000       
      51        6.9734         0.000       
      50        6.7483         0.000       
      49        6.2513         0.000       
      48        5.7593         0.000       
      47        5.4011         0.000       
      46        4.9917         0.000       
      45        4.6357         0.000       
      44        3.9980         0.000       
      43        3.7172         0.000       
      42        3.6687         0.000       
      41        2.9406         0.000       
      40        2.3971         0.000       
      39        1.9678         0.000       
      38        1.5409         0.000       
      37        1.4060         0.000       
      36        0.8292         0.000       
      35        0.6118         0.000       
      34       -0.1203         0.000       
      33       -0.3399         0.000       
      32       -0.4819         0.000       
      31       -1.1485         0.000       
      30       -1.9215         0.000       
      29       -4.2096         0.000 < LUMO
      28       -6.0759         2.000 < HOMO
      27       -7.9582         2.000       
      26       -8.5322         2.000       
      25       -8.7346         2.000       
      24       -8.8757         2.000       
      23       -9.0377         2.000       
      22       -9.2221         2.000       
      21       -9.4652         2.000       
      20      -10.9874         2.000       
      19      -11.1932         2.000       
      18      -12.6981         2.000       
      17      -13.3298         2.000       
      16      -14.7076         2.000       
      15      -15.8139         2.000       
      14      -18.0535         2.000       
      13      -19.2242         2.000       
      12      -22.0589         2.000       
      11      -22.7534         2.000       
      10      -23.1958         2.000       
       9      -27.7524         2.000       
       8     -271.5371         2.000       
       7     -271.6406         2.000       
       6     -271.8138         2.000       
       5     -273.1677         2.000       
       4     -381.9467         2.000       
       3     -382.0667         2.000       
       2     -383.6198         2.000       
       1     -386.1556         2.000       

AMS application finished. Exiting.
NORMAL TERMINATION
     Total cpu time:      27.75
  Total system time:       0.23
 Total elapsed time:      28.16
NORMAL TERMINATION
