srun: Job 662083 step creation temporarily disabled, retrying (Requested nodes are busy)
srun: Job 662083 step creation still disabled, retrying (Requested nodes are busy)
srun: Step created for StepId=662083.6

 *******************************************************************************
 *                                                                             *
 *  --------------------------------                                           *
 *   Amsterdam Modeling Suite (AMS)              2026.103                      *
 *  --------------------------------                                           *
 *                                               r260501 2026-05-01 873454b5   *
 *                                                                             *
 *                                                                             *
 *                              =================                              *
 *                              |               |                              *
 *                              |     A M S     |                              *
 *                              |               |                              *
 *                              =================                              *
 *                                                                             *
 *                                                                             *
 *   Online information and documentation:  https://www.scm.com/support/       *
 *   E-mail:  support@scm.com   info@scm.com                                   *
 *                                                                             *
 *   Scientific publications using AMS results must be properly referenced     *
 *   See the User Manuals (or the web site) for recommended citations          *
 *   The terms and conditions of the End User License Agreement apply to       *
 *   the use of AMS, https://www.scm.com/license-terms/                        *
 *                                                                             *
 **********************  x86_64_linux_intel / intelmpi  ************************
 
 Licensed to: Jong-June Jeon / University of Seoul 2026-06-02 13:44:15
 SCM User ID: u30731
  
 AMS 2026.103  RunTime: Jun02-2026 21:38:55  ShM Nodes: 1  Procs: 1

 AMS jobname: c4_fragA_opt
 AMS jobid  : 2040289886

 Start   directory: /gpfs/home1/yeseo1ee/projects/eda-asm-prediction/ADF_800/adf_outputs/batch_000/dipolar_000074/
 Results directory: /gpfs/home1/yeseo1ee/projects/eda-asm-prediction/ADF_800/adf_outputs/batch_000/dipolar_000074/c4_fragA_opt.results/
 Scratch directory: /tmp/amstmp_c4_fragA_opt_kid0.2040289886/

 RNG seed: -546812469 415827590 210754624 2084527185 -239126847 -1762785833 -297345581 -677162769



                      ************************************************************************
                      *  ADF 2026.103  RunTime: Jun02-2026 21:38:55  ShM Nodes: 1  Procs: 1  *
                      ************************************************************************
  

       ***************************
       *  GEOMETRY OPTIMIZATION  *
       ***************************

Optimization Method                    Quasi Newton
Optimization Coordinates               Delocalized Coordinates
Optimize lattice                       F
 
 ------------------------------------------------------
 Convergence criteria (Hartree,Angstrom)
 ------------------------------------------------------
 Maximum gradient               0.000100000000
 Maximum rms gradient           0.000066666667
 Maximum step allowed           0.010000000000
 Maximum rms step allowed       0.006666666667
 Maximum energy change allowe   0.000120000000
 Maximum stress energy allowe   0.000500000000
 
Initial model Hessian                  Automatic Hessian
 
------------------------------------
Quasi-Newton Optimizer Parameters
------------------------------------
Hessian Update Method                  BFGS
Maximum number of steps                  200
First GDIIS cycle                          0
Maximum GDIIS vectors                      0
Trust radius (bohr)                        0.200000
Trust radius varies                        T
Constraints converged at all steps         T
Use projector                              T
 
 Rigid motions settings for: old optimizer
 Atomic rotations (x,y,z):     T T T
 Atomic translations (x,y,z):  T T T
 Tolerance:                  1.000000000000000E-006

--------
Geometry
--------
Formula: C4H4N4
Atoms
  Index Symbol   x (angstrom)   y (angstrom)   z (angstrom)
      1      C    -2.16178000    -2.57832000     0.72126000
      2      N    -2.00344000    -1.33839000    -0.01081000
      3      N    -2.01654000    -0.28745000     0.75566000
      4      C    -1.77986000     0.92132000     0.15556000
      5      C    -1.39690000     2.01741000     0.97411000
      6      N    -1.03920000     2.91186000     1.62900000
      7      C    -2.37987000     1.18977000    -1.10956000
      8      N    -2.85183000     1.43351000    -2.14557000
      9      H    -1.64834000    -2.57256000     1.69992000
     10      H    -3.23487000    -2.76808000     0.89174000
     11      H    -1.76897000    -3.39768000     0.10591000
     12      H    -1.73319000    -0.36765000     1.74262000

Total System Charge              0.00000


----------------
ADF Engine Input
----------------
 
   Basis
     Type TZ2P
     Core None
   End
   XC
     GGA BLYP
     Dispersion GRIMME3 BJDAMP
   End
   Symmetry NOSYM
   NumericalQuality Normal
   Unrestricted No
   SCF
     Iterations 200
     Converge 1.0e-6
   End
   Save TAPE21
 

 Title: *** (NO TITLE) ***

Challenging geometry: could not add a dihedral for atom    6
Challenging geometry: could not add a dihedral for atom    8
 Using automatic Hessian for delocalized coordinates.
 *** GO1_GOStep1 ***

 Energy gradients wrt nuclear displacements
 ==========================================

     Atom      Cartesian (a.u./angstrom)
                 X         Y         Z
 ----------------------------------------
     1 C     0.009463  0.009920 -0.002828
     2 N     0.028246  0.020223 -0.015989
     3 N    -0.078998  0.013058  0.059218
     4 C     0.051271 -0.060015 -0.019565
     5 C     0.003659  0.018774  0.010170
     6 N    -0.005075 -0.011844 -0.010049
     7 C    -0.024869  0.011743 -0.012236
     8 N     0.005542 -0.003017  0.009993
     9 H    -0.000210  0.000048 -0.000787
    10 H    -0.001396  0.005529 -0.001533
    11 H     0.000463 -0.004148 -0.002167
    12 H     0.011904 -0.000270 -0.014226
 ----------------------------------------
 
----------------------------------------------------------------------
Geometry Convergence after Step   1       (Hartree/Angstrom,Angstrom)
----------------------------------------------------------------------
current energy                               -2.80966805 Hartree
energy change                      -2.80966805     0.00012000    F
constrained gradient max            0.07900108     0.00010000    F
constrained gradient rms            0.02378924     0.00006667    F
gradient max                        0.07900189
gradient rms                        0.02378924
cart. step max                      0.08435097     0.01000000    F
cart. step rms                      0.04151300     0.00666667    F
 

--------
Geometry
--------
Formula: C4H4N4
Atoms
  Index Symbol   x (angstrom)   y (angstrom)   z (angstrom)
      1      C    -2.16996487    -2.59863820     0.75429523
      2      N    -1.99760898    -1.39427438    -0.04268972
      3      N    -1.95784486    -0.30447838     0.67431764
      4      C    -1.79378639     0.95122149     0.12675453
      5      C    -1.43127018     2.01446691     0.99307056
      6      N    -1.08901331     2.88707267     1.69426990
      7      C    -2.37548945     1.24803182    -1.13529316
      8      N    -2.83942546     1.51786097    -2.17311299
      9      H    -1.62741867    -2.56099571     1.71678371
     10      H    -3.23952060    -2.76495049     0.96620367
     11      H    -1.81093214    -3.45084564     0.16697869
     12      H    -1.68251509    -0.38073108     1.66826194

Total System Charge              0.00000

 *** GO1_GOStep2 ***

 Energy gradients wrt nuclear displacements
 ==========================================

     Atom      Cartesian (a.u./angstrom)
                 X         Y         Z
 ----------------------------------------
     1 C     0.002374  0.003941 -0.004492
     2 N     0.025301 -0.014402 -0.007719
     3 N    -0.060497  0.015029  0.034793
     4 C     0.042063 -0.016355 -0.013175
     5 C    -0.005863  0.001932 -0.003965
     6 N     0.003019  0.005793  0.003880
     7 C    -0.014030  0.007094  0.005179
     8 N    -0.000890  0.000960 -0.004740
     9 H    -0.000206 -0.000017 -0.000848
    10 H    -0.001325  0.001321  0.000274
    11 H    -0.000889 -0.002498 -0.000844
    12 H     0.010943 -0.002797 -0.008343
 ----------------------------------------

 dE(predicted):    -0.87284E-02, dE(actual):    -0.73660E-02, Trust radius:    0.400000, all in a.u.
 
----------------------------------------------------------------------
Geometry Convergence after Step   2       (Hartree/Angstrom,Angstrom)
----------------------------------------------------------------------
current energy                               -2.81703408 Hartree
energy change                      -0.00736603     0.00012000    F
constrained gradient max            0.06049622     0.00010000    F
constrained gradient rms            0.01570041     0.00006667    F
gradient max                        0.06049630
gradient rms                        0.01570041
cart. step max                      0.13392105     0.01000000    F
cart. step rms                      0.04764779     0.00666667    F
 

--------
Geometry
--------
Formula: C4H4N4
Atoms
  Index Symbol   x (angstrom)   y (angstrom)   z (angstrom)
      1      C    -2.16911978    -2.57997145     0.76381615
      2      N    -2.08905602    -1.38359402    -0.06473894
      3      N    -1.93659628    -0.31340747     0.64397073
      4      C    -1.87574397     0.96327340     0.14429401
      5      C    -1.47052219     1.99556156     1.02358704
      6      N    -1.10877429     2.84058539     1.73884329
      7      C    -2.34818953     1.24732677    -1.16041665
      8      N    -2.74057188     1.50601752    -2.22590391
      9      H    -1.51682750    -2.53320932     1.65588842
     10      H    -3.20556300    -2.74517611     1.10012472
     11      H    -1.87752140    -3.43476615     0.14614414
     12      H    -1.67630417    -0.39890013     1.64423100

Total System Charge              0.00000

 *** GO1_GOStep3 ***

 Energy gradients wrt nuclear displacements
 ==========================================

     Atom      Cartesian (a.u./angstrom)
                 X         Y         Z
 ----------------------------------------
     1 C     0.000591  0.007829 -0.000358
     2 N     0.013728 -0.004560 -0.008120
     3 N    -0.027885 -0.001666  0.018586
     4 C     0.016733 -0.006266 -0.007153
     5 C     0.002843  0.013002  0.010100
     6 N    -0.003549 -0.010826 -0.010020
     7 C    -0.009851  0.006331 -0.010419
     8 N     0.003306 -0.001744  0.008803
     9 H     0.000217 -0.000250  0.000865
    10 H    -0.000116  0.000717  0.000798
    11 H    -0.001005  0.000210 -0.001499
    12 H     0.004988 -0.002776 -0.001582
 ----------------------------------------

 dE(predicted):    -0.60254E-02, dE(actual):    -0.62035E-02, Trust radius:    0.800000, all in a.u.
 
----------------------------------------------------------------------
Geometry Convergence after Step   3       (Hartree/Angstrom,Angstrom)
----------------------------------------------------------------------
current energy                               -2.82323760 Hartree
energy change                      -0.00620352     0.00012000    F
constrained gradient max            0.02788615     0.00010000    F
constrained gradient rms            0.00869232     0.00006667    F
gradient max                        0.02788614
gradient rms                        0.00869232
cart. step max                      0.13622657     0.01000000    F
cart. step rms                      0.05146173     0.00666667    F
 

--------
Geometry
--------
Formula: C4H4N4
Atoms
  Index Symbol   x (angstrom)   y (angstrom)   z (angstrom)
      1      C    -2.18304480    -2.58562391     0.76476224
      2      N    -2.22528259    -1.35598471    -0.02870746
      3      N    -1.91634488    -0.29753713     0.63542513
      4      C    -1.92368658     0.98123712     0.15971545
      5      C    -1.50093013     2.00156722     1.04109059
      6      N    -1.15579093     2.84616587     1.77773015
      7      C    -2.30720593     1.23258625    -1.17487156
      8      N    -2.63365830     1.46423606    -2.27362646
      9      H    -1.42191727    -2.55296720     1.56579409
     10      H    -3.16588187    -2.78035170     1.22247661
     11      H    -1.95599195    -3.41693299     0.09150470
     12      H    -1.62505477    -0.37265487     1.62854652

Total System Charge              0.00000

 *** GO1_GOStep4 ***

 Energy gradients wrt nuclear displacements
 ==========================================

     Atom      Cartesian (a.u./angstrom)
                 X         Y         Z
 ----------------------------------------
     1 C    -0.002768 -0.003816 -0.003582
     2 N     0.002773  0.003039  0.001869
     3 N    -0.000039  0.011597 -0.004007
     4 C    -0.002863 -0.006174  0.000674
     5 C    -0.004117 -0.013886 -0.009145
     6 N     0.004487  0.011817  0.009587
     7 C     0.005052 -0.004794  0.011296
     8 N    -0.003394  0.002720 -0.009091
     9 H     0.001322  0.000037  0.000508
    10 H     0.000624 -0.000568  0.001198
    11 H    -0.000580 -0.000475  0.000517
    12 H    -0.000497  0.000501  0.000176
 ----------------------------------------

 dE(predicted):    -0.20614E-02, dE(actual):    -0.17839E-02, Trust radius:    0.800000, all in a.u.
 
----------------------------------------------------------------------
Geometry Convergence after Step   4       (Hartree/Angstrom,Angstrom)
----------------------------------------------------------------------
current energy                               -2.82502148 Hartree
energy change                      -0.00178388     0.00012000    F
constrained gradient max            0.01387340     0.00010000    F
constrained gradient rms            0.00547974     0.00006667    F
gradient max                        0.01387341
gradient rms                        0.00547974
cart. step max                      0.04675536     0.01000000    F
cart. step rms                      0.02014070     0.00666667    F
 

--------
Geometry
--------
Formula: C4H4N4
Atoms
  Index Symbol   x (angstrom)   y (angstrom)   z (angstrom)
      1      C    -2.18905107    -2.58048717     0.77158774
      2      N    -2.21762858    -1.36406340    -0.04033256
      3      N    -1.89612133    -0.30816495     0.62119257
      4      C    -1.90933157     0.97778786     0.15245164
      5      C    -1.49407396     1.99671918     1.03976667
      6      N    -1.15793416     2.83415650     1.78004530
      7      C    -2.32345126     1.24122963    -1.17177199
      8      N    -2.66320937     1.47965829    -2.26129085
      9      H    -1.46867263    -2.52393241     1.60722794
     10      H    -3.19050952    -2.78580818     1.18167326
     11      H    -1.91496411    -3.41496991     0.11997648
     12      H    -1.58984243    -0.38838544     1.60931379

Total System Charge              0.00000

 *** GO1_GOStep5 ***

 Energy gradients wrt nuclear displacements
 ==========================================

     Atom      Cartesian (a.u./angstrom)
                 X         Y         Z
 ----------------------------------------
     1 C    -0.002681 -0.000534  0.000024
     2 N     0.002624  0.001436 -0.001762
     3 N     0.000177  0.000801 -0.000532
     4 C    -0.000866 -0.001145 -0.000069
     5 C     0.001298  0.002888  0.004053
     6 N    -0.001727 -0.003543 -0.003592
     7 C    -0.000837 -0.000755 -0.002566
     8 N     0.001192 -0.000062  0.003590
     9 H     0.000836  0.000030 -0.000166
    10 H     0.000357 -0.000375  0.001108
    11 H    -0.000491  0.000862 -0.000096
    12 H     0.000119  0.000396  0.000009
 ----------------------------------------

 dE(predicted):    -0.20950E-03, dE(actual):    -0.29582E-03, Trust radius:    0.800000, all in a.u.
 
----------------------------------------------------------------------
Geometry Convergence after Step   5       (Hartree/Angstrom,Angstrom)
----------------------------------------------------------------------
current energy                               -2.82531730 Hartree
energy change                      -0.00029582     0.00012000    F
constrained gradient max            0.00397179     0.00010000    F
constrained gradient rms            0.00169077     0.00006667    F
gradient max                        0.00397179
gradient rms                        0.00169077
cart. step max                      0.08434377     0.01000000    F
cart. step rms                      0.02743591     0.00666667    F
 

--------
Geometry
--------
Formula: C4H4N4
Atoms
  Index Symbol   x (angstrom)   y (angstrom)   z (angstrom)
      1      C    -2.18711715    -2.58112747     0.77770241
      2      N    -2.24334694    -1.36935644    -0.03823637
      3      N    -1.91682472    -0.31081441     0.61762357
      4      C    -1.91467817     0.98033363     0.14930412
      5      C    -1.46865321     1.99104481     1.03169182
      6      N    -1.10545947     2.81834261     1.77002576
      7      C    -2.33935104     1.25538272    -1.17034076
      8      N    -2.68520140     1.49873721    -2.25676762
      9      H    -1.52160300    -2.48494656     1.65334894
     10      H    -3.19887187    -2.84033501     1.12707071
     11      H    -1.83062033    -3.39948551     0.14506555
     12      H    -1.60306268    -0.39403557     1.60335186

Total System Charge              0.00000

 *** GO1_GOStep6 ***

 Energy gradients wrt nuclear displacements
 ==========================================

     Atom      Cartesian (a.u./angstrom)
                 X         Y         Z
 ----------------------------------------
     1 C     0.000863  0.000500  0.001112
     2 N     0.001175 -0.002208 -0.003014
     3 N    -0.002610 -0.004920  0.001430
     4 C     0.001094  0.003994  0.000218
     5 C     0.002944  0.005427  0.004416
     6 N    -0.002417 -0.004626 -0.004218
     7 C    -0.002039  0.000923 -0.004403
     8 N     0.001527 -0.000357  0.003894
     9 H     0.000242 -0.000169 -0.000551
    10 H    -0.000283  0.000374  0.000728
    11 H    -0.000443  0.001221 -0.000070
    12 H    -0.000052 -0.000159  0.000459
 ----------------------------------------

 dE(predicted):    -0.12239E-03, dE(actual):    -0.13331E-03, Trust radius:    0.800000, all in a.u.
 
----------------------------------------------------------------------
Geometry Convergence after Step   6       (Hartree/Angstrom,Angstrom)
----------------------------------------------------------------------
current energy                               -2.82545062 Hartree
energy change                      -0.00013331     0.00012000    F
constrained gradient max            0.00544519     0.00010000    F
constrained gradient rms            0.00244666     0.00006667    F
gradient max                        0.00544517
gradient rms                        0.00244666
cart. step max                      0.15319753     0.01000000    F
cart. step rms                      0.05386844     0.00666667    F
 

--------
Geometry
--------
Formula: C4H4N4
Atoms
  Index Symbol   x (angstrom)   y (angstrom)   z (angstrom)
      1      C    -2.19892355    -2.58028076     0.78252064
      2      N    -2.25407950    -1.36703621    -0.02913840
      3      N    -1.90043071    -0.31111802     0.61578419
      4      C    -1.90919806     0.98336018     0.14786855
      5      C    -1.43286685     1.99093412     1.01813440
      6      N    -1.03758632     2.81043131     1.75010090
      7      C    -2.37555003     1.26298332    -1.15803833
      8      N    -2.75802189     1.50074586    -2.23404623
      9      H    -1.67480053    -2.44382189     1.74354335
     10      H    -3.22523797    -2.92609317     0.97934672
     11      H    -1.69105381    -3.35879461     0.20274270
     12      H    -1.55704078    -0.39757015     1.59102153

Total System Charge              0.00000

 *** GO1_GOStep7 ***

 Energy gradients wrt nuclear displacements
 ==========================================

     Atom      Cartesian (a.u./angstrom)
                 X         Y         Z
 ----------------------------------------
     1 C     0.001173  0.000620  0.003331
     2 N     0.001520 -0.003041 -0.003638
     3 N    -0.001341 -0.007919  0.003602
     4 C     0.000698  0.005609  0.000648
     5 C     0.001476  0.004241  0.002295
     6 N    -0.001138 -0.002477 -0.001993
     7 C    -0.002111  0.002346 -0.004229
     8 N     0.000913 -0.000392  0.001787
     9 H    -0.000307 -0.000514 -0.001301
    10 H    -0.001173  0.000267 -0.000091
    11 H    -0.000380  0.001675 -0.000102
    12 H     0.000671 -0.000415 -0.000309
 ----------------------------------------

 dE(predicted):    -0.16696E-03, dE(actual):    -0.20456E-03, Trust radius:    0.800000, all in a.u.
 
----------------------------------------------------------------------
Geometry Convergence after Step   7       (Hartree/Angstrom,Angstrom)
----------------------------------------------------------------------
current energy                               -2.82565518 Hartree
energy change                      -0.00020456     0.00012000    F
constrained gradient max            0.00791372     0.00010000    F
constrained gradient rms            0.00249138     0.00006667    F
gradient max                        0.00791372
gradient rms                        0.00249138
cart. step max                      0.07846116     0.01000000    F
cart. step rms                      0.03082742     0.00666667    F
 

--------
Geometry
--------
Formula: C4H4N4
Atoms
  Index Symbol   x (angstrom)   y (angstrom)   z (angstrom)
      1      C    -2.20565972    -2.58051967     0.78323194
      2      N    -2.30377162    -1.35430544    -0.00336224
      3      N    -1.90598536    -0.30328213     0.62194732
      4      C    -1.90295048     0.98650274     0.14602438
      5      C    -1.40712047     1.99080141     1.00803503
      6      N    -0.99220551     2.80445842     1.73646517
      7      C    -2.38494642     1.26244608    -1.15400061
      8      N    -2.78397290     1.49139212    -2.22619367
      9      H    -1.75163821    -2.43292599     1.77777342
     10      H    -3.21471119    -2.99983555     0.90731215
     11      H    -1.61259266    -3.31205749     0.22017876
     12      H    -1.54923548    -0.38893449     1.59242836

Total System Charge              0.00000

 *** GO1_GOStep8 ***

 Energy gradients wrt nuclear displacements
 ==========================================

     Atom      Cartesian (a.u./angstrom)
                 X         Y         Z
 ----------------------------------------
     1 C     0.002322 -0.001166  0.001772
     2 N    -0.000456 -0.001956  0.000414
     3 N     0.001036 -0.003115  0.000308
     4 C     0.000762  0.003855  0.000566
     5 C     0.000652  0.001944  0.000686
     6 N    -0.000610 -0.001190 -0.000709
     7 C    -0.001098  0.001977 -0.002337
     8 N     0.000394 -0.000438  0.001028
     9 H    -0.000628 -0.000446 -0.001124
    10 H    -0.000956  0.000154 -0.000460
    11 H    -0.000667  0.000510 -0.000055
    12 H    -0.000752 -0.000130 -0.000089
 ----------------------------------------

 dE(predicted):    -0.11563E-03, dE(actual):    -0.13086E-03, Trust radius:    0.800000, all in a.u.
 
----------------------------------------------------------------------
Geometry Convergence after Step   8       (Hartree/Angstrom,Angstrom)
----------------------------------------------------------------------
current energy                               -2.82578604 Hartree
energy change                      -0.00013086     0.00012000    F
constrained gradient max            0.00384639     0.00010000    F
constrained gradient rms            0.00133250     0.00006667    F
gradient max                        0.00384641
gradient rms                        0.00133250
cart. step max                      0.02632094     0.01000000    F
cart. step rms                      0.01092722     0.00666667    F
 

--------
Geometry
--------
Formula: C4H4N4
Atoms
  Index Symbol   x (angstrom)   y (angstrom)   z (angstrom)
      1      C    -2.20864950    -2.57590824     0.78134453
      2      N    -2.32476812    -1.34707162     0.00299112
      3      N    -1.91423025    -0.30055287     0.62604396
      4      C    -1.90856132     0.98560431     0.14942117
      5      C    -1.40099115     1.98734108     1.00706868
      6      N    -0.97259072     2.79860855     1.73197669
      7      C    -2.38840298     1.25726974    -1.15110064
      8      N    -2.78536138     1.48299497    -2.22553525
      9      H    -1.77466199    -2.42243799     1.78476453
     10      H    -3.20696351    -3.02322450     0.88677819
     11      H    -1.58627172    -3.28936382     0.22499499
     12      H    -1.54333736    -0.38951961     1.59109202

Total System Charge              0.00000

 *** GO1_GOStep9 ***

 Energy gradients wrt nuclear displacements
 ==========================================

     Atom      Cartesian (a.u./angstrom)
                 X         Y         Z
 ----------------------------------------
     1 C     0.001315  0.000197  0.000926
     2 N    -0.000153  0.000042  0.000377
     3 N     0.000403 -0.000826 -0.000626
     4 C    -0.000255  0.000558  0.000410
     5 C    -0.000998 -0.001839 -0.001633
     6 N     0.000929  0.001562  0.001638
     7 C     0.000751  0.000142  0.001698
     8 N    -0.000605  0.000145 -0.001612
     9 H    -0.000367 -0.000053 -0.000588
    10 H    -0.000497 -0.000046 -0.000272
    11 H    -0.000311  0.000092 -0.000232
    12 H    -0.000211  0.000025 -0.000086
 ----------------------------------------

 dE(predicted):    -0.32252E-04, dE(actual):    -0.28391E-04, Trust radius:    0.800000, all in a.u.
 
----------------------------------------------------------------------
Geometry Convergence after Step   9       (Hartree/Angstrom,Angstrom)
----------------------------------------------------------------------
current energy                               -2.82581443 Hartree
energy change                      -0.00002839     0.00012000    T
constrained gradient max            0.00182227     0.00010000    F
constrained gradient rms            0.00083368     0.00006667    F
gradient max                        0.00182225
gradient rms                        0.00083368
cart. step max                      0.00649913     0.01000000    T
cart. step rms                      0.00265152     0.00666667    T
 

--------
Geometry
--------
Formula: C4H4N4
Atoms
  Index Symbol   x (angstrom)   y (angstrom)   z (angstrom)
      1      C    -2.20988707    -2.57606232     0.78018697
      2      N    -2.32740598    -1.34564364     0.00467519
      3      N    -1.91604531    -0.29944869     0.62851405
      4      C    -1.90775324     0.98544533     0.14998979
      5      C    -1.39863856     1.98811745     1.00588116
      6      N    -0.96882299     2.79973977     1.72846829
      7      C    -2.38922505     1.25601462    -1.15008807
      8      N    -2.78700589     1.48195882    -2.22361625
      9      H    -1.78116112    -2.42265555     1.78639564
     10      H    -3.20570233    -3.02926803     0.88043470
     11      H    -1.58021239    -3.28536132     0.22626901
     12      H    -1.54293006    -0.38909644     1.59272951

Total System Charge              0.00000

 *** GO1_GOStep10 ***

 Energy gradients wrt nuclear displacements
 ==========================================

     Atom      Cartesian (a.u./angstrom)
                 X         Y         Z
 ----------------------------------------
     1 C     0.000409 -0.000045  0.000061
     2 N     0.000059 -0.000091  0.000177
     3 N    -0.000006  0.000492 -0.000123
     4 C    -0.000080 -0.000113  0.000070
     5 C    -0.000017  0.000003  0.000027
     6 N    -0.000034 -0.000226  0.000050
     7 C     0.000042  0.000349  0.000057
     8 N     0.000079 -0.000192  0.000214
     9 H    -0.000150  0.000027 -0.000270
    10 H    -0.000183 -0.000144 -0.000102
    11 H    -0.000122 -0.000075 -0.000127
    12 H     0.000003  0.000015 -0.000036
 ----------------------------------------

 dE(predicted):    -0.38643E-05, dE(actual):    -0.67819E-05, Trust radius:    0.800000, all in a.u.
 
----------------------------------------------------------------------
Geometry Convergence after Step  10       (Hartree/Angstrom,Angstrom)
----------------------------------------------------------------------
current energy                               -2.82582121 Hartree
energy change                      -0.00000678     0.00012000    T
constrained gradient max            0.00049727     0.00010000    F
constrained gradient rms            0.00015922     0.00006667    F
gradient max                        0.00049727
gradient rms                        0.00015922
cart. step max                      0.00364633     0.01000000    T
cart. step rms                      0.00130788     0.00666667    T
 

--------
Geometry
--------
Formula: C4H4N4
Atoms
  Index Symbol   x (angstrom)   y (angstrom)   z (angstrom)
      1      C    -2.21049490    -2.57585500     0.78031636
      2      N    -2.32824863    -1.34569625     0.00453963
      3      N    -1.91558548    -0.30004670     0.62834107
      4      C    -1.90622289     0.98475497     0.14946074
      5      C    -1.39751295     1.98785280     1.00529522
      6      N    -0.96842331     2.80010372     1.72763221
      7      C    -2.38973632     1.25594739    -1.14982775
      8      N    -2.78891710     1.48353692    -2.22254234
      9      H    -1.78480745    -2.42180931     1.78795369
     10      H    -3.20538891    -3.03122176     0.87772977
     11      H    -1.57718236    -3.28363630     0.22847979
     12      H    -1.54226971    -0.39019048     1.59246160

Total System Charge              0.00000

 *** GO1_GOStep11 ***

 Energy gradients wrt nuclear displacements
 ==========================================

     Atom      Cartesian (a.u./angstrom)
                 X         Y         Z
 ----------------------------------------
     1 C     0.000112  0.000136 -0.000053
     2 N     0.000038  0.000055 -0.000044
     3 N    -0.000055  0.000048  0.000063
     4 C     0.000061 -0.000246 -0.000063
     5 C     0.000010  0.000121  0.000056
     6 N    -0.000038 -0.000165  0.000099
     7 C    -0.000038  0.000308  0.000134
     8 N     0.000028 -0.000105  0.000040
     9 H    -0.000033 -0.000018 -0.000088
    10 H    -0.000056 -0.000075 -0.000070
    11 H    -0.000032 -0.000021 -0.000103
    12 H     0.000003 -0.000036  0.000028
 ----------------------------------------

 dE(predicted):    -0.62024E-06, dE(actual):    -0.10032E-05, Trust radius:    0.800000, all in a.u.
 
----------------------------------------------------------------------
Geometry Convergence after Step  11       (Hartree/Angstrom,Angstrom)
----------------------------------------------------------------------
current energy                               -2.82582221 Hartree
energy change                      -0.00000100     0.00012000    T
constrained gradient max            0.00026323     0.00010000    F
constrained gradient rms            0.00008918     0.00006667    F
gradient max                        0.00026322
gradient rms                        0.00008918
cart. step max                      0.00313714     0.01000000    T
cart. step rms                      0.00117365     0.00666667    T
 

--------
Geometry
--------
Formula: C4H4N4
Atoms
  Index Symbol   x (angstrom)   y (angstrom)   z (angstrom)
      1      C    -2.21083511    -2.57609218     0.78056047
      2      N    -2.32932314    -1.34588427     0.00492270
      3      N    -1.91583634    -0.30032258     0.62833023
      4      C    -1.90641979     0.98457701     0.14949675
      5      C    -1.39675474     1.98770964     1.00478945
      6      N    -0.96701082     2.80035335     1.72629980
      7      C    -2.39027337     1.25613369    -1.14963873
      8      N    -2.78964301     1.48531457    -2.22193837
      9      H    -1.78794459    -2.42164588     1.78943643
     10      H    -3.20486422    -3.03357124     0.87523341
     11      H    -1.57424813    -3.28218661     0.23025826
     12      H    -1.54163673    -0.39064551     1.59208959

Total System Charge              0.00000

 *** GO1_GOStep12 ***

 Energy gradients wrt nuclear displacements
 ==========================================

     Atom      Cartesian (a.u./angstrom)
                 X         Y         Z
 ----------------------------------------
     1 C    -0.000093  0.000101 -0.000129
     2 N     0.000058  0.000038 -0.000064
     3 N    -0.000094 -0.000112  0.000053
     4 C     0.000030 -0.000131 -0.000022
     5 C     0.000044  0.000176  0.000074
     6 N    -0.000046 -0.000148  0.000089
     7 C    -0.000044  0.000246  0.000043
     8 N     0.000036 -0.000046  0.000061
     9 H     0.000029 -0.000057  0.000008
    10 H     0.000023 -0.000024 -0.000056
    11 H     0.000023  0.000011 -0.000073
    12 H     0.000033 -0.000053  0.000017
 ----------------------------------------
 
----------------------------------------------------------------------
Geometry Convergence after Step  12       (Hartree/Angstrom,Angstrom)
----------------------------------------------------------------------
current energy                               -2.82582241 Hartree
energy change                      -0.00000019     0.00012000    T
constrained gradient max            0.00020253     0.00010000    F
constrained gradient rms            0.00007411     0.00006667    F
gradient max                        0.00020253
gradient rms                        0.00007411
cart. step max                      0.00153218     0.01000000    T
cart. step rms                      0.00064397     0.00666667    T
 

--------
Geometry
--------
Formula: C4H4N4
Atoms
  Index Symbol   x (angstrom)   y (angstrom)   z (angstrom)
      1      C    -2.21093250    -2.57642496     0.78067268
      2      N    -2.32985355    -1.34607609     0.00523678
      3      N    -1.91593467    -0.30052022     0.62844249
      4      C    -1.90654958     0.98437692     0.14959760
      5      C    -1.39641244     1.98761516     1.00446977
      6      N    -0.96622361     2.80087642     1.72505839
      7      C    -2.39041848     1.25606748    -1.14952948
      8      N    -2.78990816     1.48684674    -2.22145174
      9      H    -1.78939045    -2.42177180     1.79010979
     10      H    -3.20457276    -3.03483499     0.87397884
     11      H    -1.57278837    -3.28165275     0.23103700
     12      H    -1.54180541    -0.39076191     1.59221790

Total System Charge              0.00000

 *** GO1_GOStep13 ***

 Energy gradients wrt nuclear displacements
 ==========================================

     Atom      Cartesian (a.u./angstrom)
                 X         Y         Z
 ----------------------------------------
     1 C    -0.000163 -0.000003 -0.000160
     2 N     0.000009  0.000007 -0.000055
     3 N    -0.000013 -0.000105  0.000039
     4 C     0.000008 -0.000039  0.000035
     5 C     0.000005  0.000091  0.000041
     6 N    -0.000009 -0.000068  0.000114
     7 C    -0.000008  0.000128  0.000035
     8 N     0.000012  0.000036  0.000034
     9 H     0.000050 -0.000055  0.000028
    10 H     0.000061  0.000021 -0.000060
    11 H     0.000049  0.000019 -0.000058
    12 H    -0.000001 -0.000032  0.000006
 ----------------------------------------
 
----------------------------------------------------------------------
Geometry Convergence after Step  13       (Hartree/Angstrom,Angstrom)
----------------------------------------------------------------------
current energy                               -2.82582290 Hartree
energy change                      -0.00000049     0.00012000    T
constrained gradient max            0.00016369     0.00010000    F
constrained gradient rms            0.00005044     0.00006667    T
gradient max                        0.00016367
gradient rms                        0.00005044
cart. step max                      0.00050499     0.01000000    T
cart. step rms                      0.00021651     0.00666667    T
 

--------
Geometry
--------
Formula: C4H4N4
Atoms
  Index Symbol   x (angstrom)   y (angstrom)   z (angstrom)
      1      C    -2.21084999    -2.57656726     0.78070827
      2      N    -2.32962318    -1.34619602     0.00522982
      3      N    -1.91584752    -0.30057710     0.62845317
      4      C    -1.90659305     0.98430385     0.14964833
      5      C    -1.39657211     1.98758254     1.00449756
      6      N    -0.96656139     2.80121524     1.72478699
      7      C    -2.39028765     1.25596282    -1.14954222
      8      N    -2.78967937     1.48735174    -2.22136932
      9      H    -1.78896389    -2.42193212     1.78994809
     10      H    -3.20468136    -3.03456496     0.87434335
     11      H    -1.57325010    -3.28208425     0.23084498
     12      H    -1.54188039    -0.39075450     1.59229098

Total System Charge              0.00000

 *** GO1_GOStep14 ***

 Energy gradients wrt nuclear displacements
 ==========================================

     Atom      Cartesian (a.u./angstrom)
                 X         Y         Z
 ----------------------------------------
     1 C    -0.000091 -0.000049 -0.000108
     2 N    -0.000005  0.000001 -0.000038
     3 N     0.000012 -0.000030  0.000010
     4 C    -0.000004  0.000003  0.000061
     5 C    -0.000012  0.000013  0.000030
     6 N     0.000001 -0.000034  0.000118
     7 C     0.000009  0.000060  0.000040
     8 N     0.000008  0.000069  0.000037
     9 H     0.000024 -0.000042 -0.000017
    10 H     0.000039  0.000018 -0.000070
    11 H     0.000028  0.000016 -0.000062
    12 H    -0.000010 -0.000025 -0.000000
 ----------------------------------------
 
---------------------------------------------------------
Geometry Convergence after Step  14       ** CONVERGED **
---------------------------------------------------------
current energy                               -2.82582357 Hartree
energy change                      -0.00000068     0.00012000    T
constrained gradient max            0.00009142     0.00010000    T
constrained gradient rms            0.00002528     0.00006667    T
gradient max                        0.00009141
gradient rms                        0.00002528
cart. step max                      0.00030796     0.01000000    T
cart. step rms                      0.00011361     0.00666667    T
 
Geometry optimization converged

Optimized geometry:

--------
Geometry
--------
Formula: C4H4N4
Atoms
  Index Symbol   x (angstrom)   y (angstrom)   z (angstrom)
      1      C    -2.21084999    -2.57656726     0.78070827
      2      N    -2.32962318    -1.34619602     0.00522982
      3      N    -1.91584752    -0.30057710     0.62845317
      4      C    -1.90659305     0.98430385     0.14964833
      5      C    -1.39657211     1.98758254     1.00449756
      6      N    -0.96656139     2.80121524     1.72478699
      7      C    -2.39028765     1.25596282    -1.14954222
      8      N    -2.78967937     1.48735174    -2.22136932
      9      H    -1.78896389    -2.42193212     1.78994809
     10      H    -3.20468136    -3.03456496     0.87434335
     11      H    -1.57325010    -3.28208425     0.23084498
     12      H    -1.54188039    -0.39075450     1.59229098

Total System Charge              0.00000

Performing a single point calculation on the final geometry ...

 *** adf ***



 ===========================
 A T T A C H E D   F I L E S
 ===========================
  
 Restart/tmp/amstmp_c4_fragA_opt_kid0.2040289886/GO1_GOStep14.rkf*** GO1_GOStep14 ***



 ===============================
 M O D E L   P A R A M E T E R S
 ===============================
  
 DENSITY FUNCTIONAL POTENTIAL (scf)
    LDA:                               Exchange only                           == Not Default ==
    Gradient Corrections:              Becke88 LYP                             == Not Default ==

 SPIN  (restricted / unrestr.)
    Molecule:                          Restricted                               
    Fragments:                         Restricted                               

 OTHER ASPECTS
    Relativistic Corrections:          scalar (ZORA,MAPA)                       

    Nuclear Charge Density Model:      Point Charge Nuclei                      
    Core Treatment:                    Frozen Orbital(s)                        

    Hyperfine or Zeeman Interaction:   ---                                      

 Settings for Grimme D3 dispersion correction

      damping                        BJ
      s6                          1.000
      s8                          2.700
      a1                          0.430
      a2                          4.236

 Other (technical) parameters

      alpha                      14.000
      version                         4
 



 ===============
 G E O M E T R Y  ***  3D  Molecule  ***
 ===============
  

 ATOMS
 =====                            X Y Z                    CHARGE
                                (Angstrom)             Nucl     +Core       At.Mass
                       --------------------------    ----------------       -------
    1  C              -2.2108   -2.5766    0.7807      6.00      6.00       12.0000
    2  N              -2.3296   -1.3462    0.0052      7.00      7.00       14.0031
    3  N              -1.9158   -0.3006    0.6285      7.00      7.00       14.0031
    4  C              -1.9066    0.9843    0.1496      6.00      6.00       12.0000
    5  C              -1.3966    1.9876    1.0045      6.00      6.00       12.0000
    6  N              -0.9666    2.8012    1.7248      7.00      7.00       14.0031
    7  C              -2.3903    1.2560   -1.1495      6.00      6.00       12.0000
    8  N              -2.7897    1.4874   -2.2214      7.00      7.00       14.0031
    9  H              -1.7890   -2.4219    1.7899      1.00      1.00        1.0078
   10  H              -3.2047   -3.0346    0.8743      1.00      1.00        1.0078
   11  H              -1.5733   -3.2821    0.2308      1.00      1.00        1.0078
   12  H              -1.5419   -0.3908    1.5923      1.00      1.00        1.0078


 FRAGMENTS
 =========                                     Atoms in this Fragment     Cart. coord.s (Angstrom)
                                               -------------------------------------------------------
    1  C                                                 1  C           -2.2108   -2.5766    0.7807
    2  C                                                 4  C           -1.9066    0.9843    0.1496
    3  C                                                 5  C           -1.3966    1.9876    1.0045
    4  C                                                 7  C           -2.3903    1.2560   -1.1495
    5  N                                                 2  N           -2.3296   -1.3462    0.0052
    6  N                                                 3  N           -1.9158   -0.3006    0.6285
    7  N                                                 6  N           -0.9666    2.8012    1.7248
    8  N                                                 8  N           -2.7897    1.4874   -2.2214
    9  H                                                 9  H           -1.7890   -2.4219    1.7899
   10  H                                                10  H           -3.2047   -3.0346    0.8743
   11  H                                                11  H           -1.5733   -3.2821    0.2308
   12  H                                                12  H           -1.5419   -0.3908    1.5923


 Interatomic Distance Matrix (Angstrom)
 --------------------------------------

   1)     0.000
   2)     1.459   0.000
   3)     2.300   1.286   0.000
   4)     3.629   2.373   1.371   0.000
   5)     4.642   3.603   2.376   1.413   0.000
   6)     5.600   4.692   3.424   2.582   1.169   0.000
   7)     4.295   2.848   2.410   1.413   2.482   3.560   0.000
   8)     5.086   3.633   3.476   2.580   3.549   4.541   1.167   0.000
   9)     1.105   2.153   2.422   3.782   4.496   5.288   4.746   5.690   0.000
  10)     1.098   2.091   3.033   4.285   5.339   6.308   4.813   5.496   1.794   0.000
  11)     1.098   2.091   3.027   4.280   5.329   6.293   4.813   5.499   1.794   1.771
          0.000
  12)     2.426   2.013   1.038   2.026   2.454   3.246   3.309   4.430   2.056   3.205
          3.196   0.000

 Min. Distance =    1.0378
 Max. Distance =    6.3078



 =====================================
 S Y M M E T R Y ,   E L E C T R O N S
 =====================================
  
 Symmetry: NOSYM

 Irreducible Representations, including subspecies
 -------------------------------------------------
 A


 Configuration of Valence Electrons
 ==================================
 ( determined in the SCF procedure )

 Total:   56

 Net Charge: 0 (Nuclei minus Electrons)

 Aufbau principle for MO occupations will be applied through SCF cycle no.     100
 Thereafter, the program will assign electrons to MOs that are spatially
 similar to the occupied MOs in a "reference" cycle ("KeepOrbitals").
 The reference cycle is always the PREVIOUS cycle: it will evolve with
 the SCF procedure.
 ***************************************************************************************************



                                      ****************************************
                                      *  B U I L D : (Fragments, Functions)  *
                                      ****************************************
  



 =======
 S F O s  ***  (Symmetrized Fragment Orbitals)  ***
 =======
  
 SFOs are linear combinations of (valence) Fragment Orbitals (FOs), such that the SFOs transform as the
 irreducible representations of the (molecular) symmetry group. Each SFO is therefore characterized by
 an irrep of the molecule and by a few (or only one) generating FOs.
 The SFOs constitute a symmetry-adapted basis for the Fock matrix. The MO eigenvector coefficients in
 this basis provide a direct interpretation of the MOs in terms of Frontier Orbital Theory.

 The SFOs are combined with auxiliary Core Functions (CFs) to ensure orthogonalization on the (frozen)
 Core Orbitals (COs). The Core-orthogonalized SFOs (CSFOs) constitute the true Fock basis.

 The FOs, and hence also the (C)SFOs are combinations of the elementary basis functions (BAS). The basis
 functions that participate in the description of the SFOs depend on the irrep. The indices of the
 involved functions are printed below for each irrep.
 (The complete list of primitive basis functions is printed in another section)

 Total nr. of (C)SFOs (summation over all irreps) :   252

 NOTE: a (C)SFO that is defined as a combination of more than one FO is usually NOT normalized.



                                       === A ===
 Nr. of SFOs :  252
 Cartesian basis functions that participate in this irrep (total number =   288) :
      1     2     3     4     5     6     9    12     7    10
     13     8    11    14    15    16    17    18    19    20
     21    22    23    24    25    26    27    28    29    30
     31    32    33    34    35    36    39    42    37    40
     43    38    41    44    45    46    47    48    49    50
     51    52    53    54    55    56    57    58    59    60
     61    62    63    64    65    66    69    72    67    70
     73    68    71    74    75    76    77    78    79    80
     81    82    83    84    85    86    87    88    89    90
     91    92    93    94    95    96    99   102    97   100
    103    98   101   104   105   106   107   108   109   110
    111   112   113   114   115   116   117   118   119   120
    121   122   123   124   125   126   129   132   127   130
    133   128   131   134   135   136   137   138   139   140
    141   142   143   144   145   146   147   148   149   150
    151   152   153   154   155   156   159   162   157   160
    163   158   161   164   165   166   167   168   169   170
    171   172   173   174   175   176   177   178   179   180
    181   182   183   184   185   186   189   192   187   190
    193   188   191   194   195   196   197   198   199   200
    201   202   203   204   205   206   207   208   209   210
    211   212   213   214   215   216   219   222   217   220
    223   218   221   224   225   226   227   228   229   230
    231   232   233   234   235   236   237   238   239   240
    241   242   243   244   245   246   247   248   249   250
    251   252   253   254   255   256   257   258   259   260
    261   262   263   264   265   266   267   268   269   270
    271   272   273   274   275   276   277   278   279   280
    281   282   283   284   285   286   287   288

    SFO  (index         Fragment          Generating    Expansion in Fragment Orbitals
  indx  incl.CFs)   Occup   Orb.Energy   FragmentType  Coeff.   Orbital     on Fragment
 --------------------------------------------------------------------------------------
     1       1      2.000     -10.066 au  C             1.00      1 S               1
                        (    -273.921 eV)
     2       2      2.000      -0.501 au  C             1.00      2 S               1
                        (     -13.620 eV)
     3       3       --         0.373 au  C             1.00      3 S               1
                        (      10.158 eV)
     4       4       --         5.405 au  C             1.00      4 S               1
                        (     147.073 eV)
     5       5       --        49.848 au  C             1.00      5 S               1
                        (    1356.422 eV)
     6       6      0.667      -0.193 au  C             1.00      1 P:x             1
                        (      -5.239 eV)
     7       7       --         0.169 au  C             1.00      2 P:x             1
                        (       4.589 eV)
     8       8       --         2.013 au  C             1.00      3 P:x             1
                        (      54.789 eV)
     9       9      0.667      -0.193 au  C             1.00      1 P:y             1
                        (      -5.239 eV)
    10      10       --         0.169 au  C             1.00      2 P:y             1
                        (       4.589 eV)
    11      11       --         2.013 au  C             1.00      3 P:y             1
                        (      54.789 eV)
    12      12      0.667      -0.193 au  C             1.00      1 P:z             1
                        (      -5.239 eV)
    13      13       --         0.169 au  C             1.00      2 P:z             1
                        (       4.589 eV)
    14      14       --         2.013 au  C             1.00      3 P:z             1
                        (      54.789 eV)
    15      15       --         1.243 au  C             1.00      1 D:z2            1
                        (      33.824 eV)
    16      16       --         1.243 au  C             1.00      1 D:x2-y2         1
                        (      33.824 eV)
    17      17       --         1.243 au  C             1.00      1 D:xy            1
                        (      33.824 eV)
    18      18       --         1.243 au  C             1.00      1 D:xz            1
                        (      33.824 eV)
    19      19       --         1.243 au  C             1.00      1 D:yz            1
                        (      33.824 eV)
    20      20       --         4.016 au  C             1.00      1 F:z3            1
                        (     109.271 eV)
    21      21       --         4.016 au  C             1.00      1 F:z             1
                        (     109.271 eV)
    22      22       --         4.016 au  C             1.00      1 F:xyz           1
                        (     109.271 eV)
    23      23       --         4.016 au  C             1.00      1 F:z2x           1
                        (     109.271 eV)
    24      24       --         4.016 au  C             1.00      1 F:z2y           1
                        (     109.271 eV)
    25      25       --         4.016 au  C             1.00      1 F:x             1
                        (     109.271 eV)
    26      26       --         4.016 au  C             1.00      1 F:y             1
                        (     109.271 eV)
    27      27      2.000     -10.066 au  C             1.00      1 S               2
                        (    -273.921 eV)
    28      28      2.000      -0.501 au  C             1.00      2 S               2
                        (     -13.620 eV)
    29      29       --         0.373 au  C             1.00      3 S               2
                        (      10.158 eV)
    30      30       --         5.405 au  C             1.00      4 S               2
                        (     147.073 eV)
    31      31       --        49.848 au  C             1.00      5 S               2
                        (    1356.422 eV)
    32      32      0.667      -0.193 au  C             1.00      1 P:x             2
                        (      -5.239 eV)
    33      33       --         0.169 au  C             1.00      2 P:x             2
                        (       4.589 eV)
    34      34       --         2.013 au  C             1.00      3 P:x             2
                        (      54.789 eV)
    35      35      0.667      -0.193 au  C             1.00      1 P:y             2
                        (      -5.239 eV)
    36      36       --         0.169 au  C             1.00      2 P:y             2
                        (       4.589 eV)
    37      37       --         2.013 au  C             1.00      3 P:y             2
                        (      54.789 eV)
    38      38      0.667      -0.193 au  C             1.00      1 P:z             2
                        (      -5.239 eV)
    39      39       --         0.169 au  C             1.00      2 P:z             2
                        (       4.589 eV)
    40      40       --         2.013 au  C             1.00      3 P:z             2
                        (      54.789 eV)
    41      41       --         1.243 au  C             1.00      1 D:z2            2
                        (      33.824 eV)
    42      42       --         1.243 au  C             1.00      1 D:x2-y2         2
                        (      33.824 eV)
    43      43       --         1.243 au  C             1.00      1 D:xy            2
                        (      33.824 eV)
    44      44       --         1.243 au  C             1.00      1 D:xz            2
                        (      33.824 eV)
    45      45       --         1.243 au  C             1.00      1 D:yz            2
                        (      33.824 eV)
    46      46       --         4.016 au  C             1.00      1 F:z3            2
                        (     109.271 eV)
    47      47       --         4.016 au  C             1.00      1 F:z             2
                        (     109.271 eV)
    48      48       --         4.016 au  C             1.00      1 F:xyz           2
                        (     109.271 eV)
    49      49       --         4.016 au  C             1.00      1 F:z2x           2
                        (     109.271 eV)
    50      50       --         4.016 au  C             1.00      1 F:z2y           2
                        (     109.271 eV)
    51      51       --         4.016 au  C             1.00      1 F:x             2
                        (     109.271 eV)
    52      52       --         4.016 au  C             1.00      1 F:y             2
                        (     109.271 eV)
    53      53      2.000     -10.066 au  C             1.00      1 S               3
                        (    -273.921 eV)
    54      54      2.000      -0.501 au  C             1.00      2 S               3
                        (     -13.620 eV)
    55      55       --         0.373 au  C             1.00      3 S               3
                        (      10.158 eV)
    56      56       --         5.405 au  C             1.00      4 S               3
                        (     147.073 eV)
    57      57       --        49.848 au  C             1.00      5 S               3
                        (    1356.422 eV)
    58      58      0.667      -0.193 au  C             1.00      1 P:x             3
                        (      -5.239 eV)
    59      59       --         0.169 au  C             1.00      2 P:x             3
                        (       4.589 eV)
    60      60       --         2.013 au  C             1.00      3 P:x             3
                        (      54.789 eV)
    61      61      0.667      -0.193 au  C             1.00      1 P:y             3
                        (      -5.239 eV)
    62      62       --         0.169 au  C             1.00      2 P:y             3
                        (       4.589 eV)
    63      63       --         2.013 au  C             1.00      3 P:y             3
                        (      54.789 eV)
    64      64      0.667      -0.193 au  C             1.00      1 P:z             3
                        (      -5.239 eV)
    65      65       --         0.169 au  C             1.00      2 P:z             3
                        (       4.589 eV)
    66      66       --         2.013 au  C             1.00      3 P:z             3
                        (      54.789 eV)
    67      67       --         1.243 au  C             1.00      1 D:z2            3
                        (      33.824 eV)
    68      68       --         1.243 au  C             1.00      1 D:x2-y2         3
                        (      33.824 eV)
    69      69       --         1.243 au  C             1.00      1 D:xy            3
                        (      33.824 eV)
    70      70       --         1.243 au  C             1.00      1 D:xz            3
                        (      33.824 eV)
    71      71       --         1.243 au  C             1.00      1 D:yz            3
                        (      33.824 eV)
    72      72       --         4.016 au  C             1.00      1 F:z3            3
                        (     109.271 eV)
    73      73       --         4.016 au  C             1.00      1 F:z             3
                        (     109.271 eV)
    74      74       --         4.016 au  C             1.00      1 F:xyz           3
                        (     109.271 eV)
    75      75       --         4.016 au  C             1.00      1 F:z2x           3
                        (     109.271 eV)
    76      76       --         4.016 au  C             1.00      1 F:z2y           3
                        (     109.271 eV)
    77      77       --         4.016 au  C             1.00      1 F:x             3
                        (     109.271 eV)
    78      78       --         4.016 au  C             1.00      1 F:y             3
                        (     109.271 eV)
    79      79      2.000     -10.066 au  C             1.00      1 S               4
                        (    -273.921 eV)
    80      80      2.000      -0.501 au  C             1.00      2 S               4
                        (     -13.620 eV)
    81      81       --         0.373 au  C             1.00      3 S               4
                        (      10.158 eV)
    82      82       --         5.405 au  C             1.00      4 S               4
                        (     147.073 eV)
    83      83       --        49.848 au  C             1.00      5 S               4
                        (    1356.422 eV)
    84      84      0.667      -0.193 au  C             1.00      1 P:x             4
                        (      -5.239 eV)
    85      85       --         0.169 au  C             1.00      2 P:x             4
                        (       4.589 eV)
    86      86       --         2.013 au  C             1.00      3 P:x             4
                        (      54.789 eV)
    87      87      0.667      -0.193 au  C             1.00      1 P:y             4
                        (      -5.239 eV)
    88      88       --         0.169 au  C             1.00      2 P:y             4
                        (       4.589 eV)
    89      89       --         2.013 au  C             1.00      3 P:y             4
                        (      54.789 eV)
    90      90      0.667      -0.193 au  C             1.00      1 P:z             4
                        (      -5.239 eV)
    91      91       --         0.169 au  C             1.00      2 P:z             4
                        (       4.589 eV)
    92      92       --         2.013 au  C             1.00      3 P:z             4
                        (      54.789 eV)
    93      93       --         1.243 au  C             1.00      1 D:z2            4
                        (      33.824 eV)
    94      94       --         1.243 au  C             1.00      1 D:x2-y2         4
                        (      33.824 eV)
    95      95       --         1.243 au  C             1.00      1 D:xy            4
                        (      33.824 eV)
    96      96       --         1.243 au  C             1.00      1 D:xz            4
                        (      33.824 eV)
    97      97       --         1.243 au  C             1.00      1 D:yz            4
                        (      33.824 eV)
    98      98       --         4.016 au  C             1.00      1 F:z3            4
                        (     109.271 eV)
    99      99       --         4.016 au  C             1.00      1 F:z             4
                        (     109.271 eV)
   100     100       --         4.016 au  C             1.00      1 F:xyz           4
                        (     109.271 eV)
   101     101       --         4.016 au  C             1.00      1 F:z2x           4
                        (     109.271 eV)
   102     102       --         4.016 au  C             1.00      1 F:z2y           4
                        (     109.271 eV)
   103     103       --         4.016 au  C             1.00      1 F:x             4
                        (     109.271 eV)
   104     104       --         4.016 au  C             1.00      1 F:y             4
                        (     109.271 eV)
   105     105      2.000     -14.160 au  N             1.00      1 S               5
                        (    -385.319 eV)
   106     106      2.000      -0.678 au  N             1.00      2 S               5
                        (     -18.450 eV)
   107     107       --         0.517 au  N             1.00      3 S               5
                        (      14.073 eV)
   108     108       --         6.872 au  N             1.00      4 S               5
                        (     186.990 eV)
   109     109       --        63.432 au  N             1.00      5 S               5
                        (    1726.082 eV)
   110     110      1.000      -0.260 au  N             1.00      1 P:x             5
                        (      -7.062 eV)
   111     111       --         0.281 au  N             1.00      2 P:x             5
                        (       7.649 eV)
   112     112       --         3.275 au  N             1.00      3 P:x             5
                        (      89.105 eV)
   113     113      1.000      -0.260 au  N             1.00      1 P:y             5
                        (      -7.062 eV)
   114     114       --         0.281 au  N             1.00      2 P:y             5
                        (       7.649 eV)
   115     115       --         3.275 au  N             1.00      3 P:y             5
                        (      89.105 eV)
   116     116      1.000      -0.260 au  N             1.00      1 P:z             5
                        (      -7.062 eV)
   117     117       --         0.281 au  N             1.00      2 P:z             5
                        (       7.649 eV)
   118     118       --         3.275 au  N             1.00      3 P:z             5
                        (      89.105 eV)
   119     119       --         1.250 au  N             1.00      1 D:z2            5
                        (      34.005 eV)
   120     120       --         1.250 au  N             1.00      1 D:x2-y2         5
                        (      34.005 eV)
   121     121       --         1.250 au  N             1.00      1 D:xy            5
                        (      34.005 eV)
   122     122       --         1.250 au  N             1.00      1 D:xz            5
                        (      34.005 eV)
   123     123       --         1.250 au  N             1.00      1 D:yz            5
                        (      34.005 eV)
   124     124       --         4.013 au  N             1.00      1 F:z3            5
                        (     109.190 eV)
   125     125       --         4.013 au  N             1.00      1 F:z             5
                        (     109.190 eV)
   126     126       --         4.013 au  N             1.00      1 F:xyz           5
                        (     109.190 eV)
   127     127       --         4.013 au  N             1.00      1 F:z2x           5
                        (     109.190 eV)
   128     128       --         4.013 au  N             1.00      1 F:z2y           5
                        (     109.190 eV)
   129     129       --         4.013 au  N             1.00      1 F:x             5
                        (     109.190 eV)
   130     130       --         4.013 au  N             1.00      1 F:y             5
                        (     109.190 eV)
   131     131      2.000     -14.160 au  N             1.00      1 S               6
                        (    -385.319 eV)
   132     132      2.000      -0.678 au  N             1.00      2 S               6
                        (     -18.450 eV)
   133     133       --         0.517 au  N             1.00      3 S               6
                        (      14.073 eV)
   134     134       --         6.872 au  N             1.00      4 S               6
                        (     186.990 eV)
   135     135       --        63.432 au  N             1.00      5 S               6
                        (    1726.082 eV)
   136     136      1.000      -0.260 au  N             1.00      1 P:x             6
                        (      -7.062 eV)
   137     137       --         0.281 au  N             1.00      2 P:x             6
                        (       7.649 eV)
   138     138       --         3.275 au  N             1.00      3 P:x             6
                        (      89.105 eV)
   139     139      1.000      -0.260 au  N             1.00      1 P:y             6
                        (      -7.062 eV)
   140     140       --         0.281 au  N             1.00      2 P:y             6
                        (       7.649 eV)
   141     141       --         3.275 au  N             1.00      3 P:y             6
                        (      89.105 eV)
   142     142      1.000      -0.260 au  N             1.00      1 P:z             6
                        (      -7.062 eV)
   143     143       --         0.281 au  N             1.00      2 P:z             6
                        (       7.649 eV)
   144     144       --         3.275 au  N             1.00      3 P:z             6
                        (      89.105 eV)
   145     145       --         1.250 au  N             1.00      1 D:z2            6
                        (      34.005 eV)
   146     146       --         1.250 au  N             1.00      1 D:x2-y2         6
                        (      34.005 eV)
   147     147       --         1.250 au  N             1.00      1 D:xy            6
                        (      34.005 eV)
   148     148       --         1.250 au  N             1.00      1 D:xz            6
                        (      34.005 eV)
   149     149       --         1.250 au  N             1.00      1 D:yz            6
                        (      34.005 eV)
   150     150       --         4.013 au  N             1.00      1 F:z3            6
                        (     109.190 eV)
   151     151       --         4.013 au  N             1.00      1 F:z             6
                        (     109.190 eV)
   152     152       --         4.013 au  N             1.00      1 F:xyz           6
                        (     109.190 eV)
   153     153       --         4.013 au  N             1.00      1 F:z2x           6
                        (     109.190 eV)
   154     154       --         4.013 au  N             1.00      1 F:z2y           6
                        (     109.190 eV)
   155     155       --         4.013 au  N             1.00      1 F:x             6
                        (     109.190 eV)
   156     156       --         4.013 au  N             1.00      1 F:y             6
                        (     109.190 eV)
   157     157      2.000     -14.160 au  N             1.00      1 S               7
                        (    -385.319 eV)
   158     158      2.000      -0.678 au  N             1.00      2 S               7
                        (     -18.450 eV)
   159     159       --         0.517 au  N             1.00      3 S               7
                        (      14.073 eV)
   160     160       --         6.872 au  N             1.00      4 S               7
                        (     186.990 eV)
   161     161       --        63.432 au  N             1.00      5 S               7
                        (    1726.082 eV)
   162     162      1.000      -0.260 au  N             1.00      1 P:x             7
                        (      -7.062 eV)
   163     163       --         0.281 au  N             1.00      2 P:x             7
                        (       7.649 eV)
   164     164       --         3.275 au  N             1.00      3 P:x             7
                        (      89.105 eV)
   165     165      1.000      -0.260 au  N             1.00      1 P:y             7
                        (      -7.062 eV)
   166     166       --         0.281 au  N             1.00      2 P:y             7
                        (       7.649 eV)
   167     167       --         3.275 au  N             1.00      3 P:y             7
                        (      89.105 eV)
   168     168      1.000      -0.260 au  N             1.00      1 P:z             7
                        (      -7.062 eV)
   169     169       --         0.281 au  N             1.00      2 P:z             7
                        (       7.649 eV)
   170     170       --         3.275 au  N             1.00      3 P:z             7
                        (      89.105 eV)
   171     171       --         1.250 au  N             1.00      1 D:z2            7
                        (      34.005 eV)
   172     172       --         1.250 au  N             1.00      1 D:x2-y2         7
                        (      34.005 eV)
   173     173       --         1.250 au  N             1.00      1 D:xy            7
                        (      34.005 eV)
   174     174       --         1.250 au  N             1.00      1 D:xz            7
                        (      34.005 eV)
   175     175       --         1.250 au  N             1.00      1 D:yz            7
                        (      34.005 eV)
   176     176       --         4.013 au  N             1.00      1 F:z3            7
                        (     109.190 eV)
   177     177       --         4.013 au  N             1.00      1 F:z             7
                        (     109.190 eV)
   178     178       --         4.013 au  N             1.00      1 F:xyz           7
                        (     109.190 eV)
   179     179       --         4.013 au  N             1.00      1 F:z2x           7
                        (     109.190 eV)
   180     180       --         4.013 au  N             1.00      1 F:z2y           7
                        (     109.190 eV)
   181     181       --         4.013 au  N             1.00      1 F:x             7
                        (     109.190 eV)
   182     182       --         4.013 au  N             1.00      1 F:y             7
                        (     109.190 eV)
   183     183      2.000     -14.160 au  N             1.00      1 S               8
                        (    -385.319 eV)
   184     184      2.000      -0.678 au  N             1.00      2 S               8
                        (     -18.450 eV)
   185     185       --         0.517 au  N             1.00      3 S               8
                        (      14.073 eV)
   186     186       --         6.872 au  N             1.00      4 S               8
                        (     186.990 eV)
   187     187       --        63.432 au  N             1.00      5 S               8
                        (    1726.082 eV)
   188     188      1.000      -0.260 au  N             1.00      1 P:x             8
                        (      -7.062 eV)
   189     189       --         0.281 au  N             1.00      2 P:x             8
                        (       7.649 eV)
   190     190       --         3.275 au  N             1.00      3 P:x             8
                        (      89.105 eV)
   191     191      1.000      -0.260 au  N             1.00      1 P:y             8
                        (      -7.062 eV)
   192     192       --         0.281 au  N             1.00      2 P:y             8
                        (       7.649 eV)
   193     193       --         3.275 au  N             1.00      3 P:y             8
                        (      89.105 eV)
   194     194      1.000      -0.260 au  N             1.00      1 P:z             8
                        (      -7.062 eV)
   195     195       --         0.281 au  N             1.00      2 P:z             8
                        (       7.649 eV)
   196     196       --         3.275 au  N             1.00      3 P:z             8
                        (      89.105 eV)
   197     197       --         1.250 au  N             1.00      1 D:z2            8
                        (      34.005 eV)
   198     198       --         1.250 au  N             1.00      1 D:x2-y2         8
                        (      34.005 eV)
   199     199       --         1.250 au  N             1.00      1 D:xy            8
                        (      34.005 eV)
   200     200       --         1.250 au  N             1.00      1 D:xz            8
                        (      34.005 eV)
   201     201       --         1.250 au  N             1.00      1 D:yz            8
                        (      34.005 eV)
   202     202       --         4.013 au  N             1.00      1 F:z3            8
                        (     109.190 eV)
   203     203       --         4.013 au  N             1.00      1 F:z             8
                        (     109.190 eV)
   204     204       --         4.013 au  N             1.00      1 F:xyz           8
                        (     109.190 eV)
   205     205       --         4.013 au  N             1.00      1 F:z2x           8
                        (     109.190 eV)
   206     206       --         4.013 au  N             1.00      1 F:z2y           8
                        (     109.190 eV)
   207     207       --         4.013 au  N             1.00      1 F:x             8
                        (     109.190 eV)
   208     208       --         4.013 au  N             1.00      1 F:y             8
                        (     109.190 eV)
   209     209      1.000      -0.240 au  H             1.00      1 S               9
                        (      -6.532 eV)
   210     210       --         0.088 au  H             1.00      2 S               9
                        (       2.394 eV)
   211     211       --         1.502 au  H             1.00      3 S               9
                        (      40.869 eV)
   212     212       --         0.406 au  H             1.00      1 P:x             9
                        (      11.051 eV)
   213     213       --         0.406 au  H             1.00      1 P:y             9
                        (      11.051 eV)
   214     214       --         0.406 au  H             1.00      1 P:z             9
                        (      11.051 eV)
   215     215       --         2.569 au  H             1.00      1 D:z2            9
                        (      69.917 eV)
   216     216       --         2.569 au  H             1.00      1 D:x2-y2         9
                        (      69.917 eV)
   217     217       --         2.569 au  H             1.00      1 D:xy            9
                        (      69.917 eV)
   218     218       --         2.569 au  H             1.00      1 D:xz            9
                        (      69.917 eV)
   219     219       --         2.569 au  H             1.00      1 D:yz            9
                        (      69.917 eV)
   220     220      1.000      -0.240 au  H             1.00      1 S              10
                        (      -6.532 eV)
   221     221       --         0.088 au  H             1.00      2 S              10
                        (       2.394 eV)
   222     222       --         1.502 au  H             1.00      3 S              10
                        (      40.869 eV)
   223     223       --         0.406 au  H             1.00      1 P:x            10
                        (      11.051 eV)
   224     224       --         0.406 au  H             1.00      1 P:y            10
                        (      11.051 eV)
   225     225       --         0.406 au  H             1.00      1 P:z            10
                        (      11.051 eV)
   226     226       --         2.569 au  H             1.00      1 D:z2           10
                        (      69.917 eV)
   227     227       --         2.569 au  H             1.00      1 D:x2-y2        10
                        (      69.917 eV)
   228     228       --         2.569 au  H             1.00      1 D:xy           10
                        (      69.917 eV)
   229     229       --         2.569 au  H             1.00      1 D:xz           10
                        (      69.917 eV)
   230     230       --         2.569 au  H             1.00      1 D:yz           10
                        (      69.917 eV)
   231     231      1.000      -0.240 au  H             1.00      1 S              11
                        (      -6.532 eV)
   232     232       --         0.088 au  H             1.00      2 S              11
                        (       2.394 eV)
   233     233       --         1.502 au  H             1.00      3 S              11
                        (      40.869 eV)
   234     234       --         0.406 au  H             1.00      1 P:x            11
                        (      11.051 eV)
   235     235       --         0.406 au  H             1.00      1 P:y            11
                        (      11.051 eV)
   236     236       --         0.406 au  H             1.00      1 P:z            11
                        (      11.051 eV)
   237     237       --         2.569 au  H             1.00      1 D:z2           11
                        (      69.917 eV)
[...]
                                   20.71%     1 P:x            -5.239  0.67     4 C
                                   18.86%     1 P:x            -7.062  1.00     8 N
                                    4.12%     1 P:z            -5.239  0.67     3 C
                                    3.55%     1 P:z            -5.239  0.67     4 C
                                    3.53%     1 P:z            -7.062  1.00     7 N
                                   -3.26%     2 P:x             4.589  0.00     3 C
                                    3.22%     1 P:z            -7.062  1.00     8 N
                                   -2.78%     2 P:x             7.649  0.00     7 N
                                   -2.56%     2 P:x             4.589  0.00     4 C
                                   -2.03%     2 P:x             7.649  0.00     8 N
      -0.434  0.00    33 A         20.37%     2 S               2.394  0.00    11 H
                                   19.91%     2 S               2.394  0.00    10 H
                                   12.25%     1 S              -6.532  1.00    11 H
                                   11.61%     1 S              -6.532  1.00    10 H
                                   -7.83%     3 S              10.158  0.00     1 C
                                    7.34%     1 S              -6.532  1.00    12 H
                                    7.00%     2 S               2.394  0.00     9 H
                                    5.18%     1 P:y            -5.239  0.67     4 C
                                    5.12%     1 P:y            -7.062  1.00     8 N
                                   -4.56%     2 S               2.394  0.00    12 H
                                    4.10%     2 S             -13.620  2.00     1 C
                                    3.37%     1 P:z            -7.062  1.00     7 N
                                    3.03%     1 P:z            -5.239  0.67     3 C
                                    2.50%     1 P:y            -5.239  0.67     3 C
                                    2.33%     1 S              -6.532  1.00     9 H
                                   -2.08%     2 P:y             4.589  0.00     1 C
                                    1.69%     2 S             -13.620  2.00     3 C
                                    1.51%     1 P:z            -7.062  1.00     6 N
                                    1.47%     1 P:y            -7.062  1.00     7 N
                                    1.25%     2 S             -18.450  2.00     5 N
                                   -1.04%     2 P:z             7.649  0.00     6 N
                                   -1.03%     1 P:y            -5.239  0.67     1 C
      -0.284  0.00    34 A         21.37%     1 P:y            -5.239  0.67     4 C
                                   18.87%     1 P:y            -7.062  1.00     8 N
                                    9.23%     1 P:z            -5.239  0.67     3 C
                                    7.45%     2 S               2.394  0.00    10 H
                                    7.41%     2 S               2.394  0.00    11 H
                                    6.04%     1 S              -6.532  1.00    12 H
                                    5.96%     1 P:z            -7.062  1.00     7 N
                                    4.86%     1 S              -6.532  1.00    10 H
                                    4.85%     1 S              -6.532  1.00    11 H
                                    4.37%     1 P:y            -7.062  1.00     7 N
                                    3.22%     1 P:y            -5.239  0.67     3 C
                                   -2.20%     2 P:y             4.589  0.00     1 C
                                   -2.10%     2 P:y             7.649  0.00     8 N
                                    2.03%     2 P:y             4.589  0.00     2 C
                                   -1.86%     3 S              10.158  0.00     1 C
                                   -1.64%     2 P:z             7.649  0.00     6 N
                                    1.44%     1 P:y            -5.239  0.67     2 C
                                    1.30%     1 P:x            -5.239  0.67     4 C
                                    1.30%     1 P:y            -7.062  1.00     6 N
                                   -1.18%     3 S              10.158  0.00     3 C
                                    1.12%     2 S               2.394  0.00    12 H
                                    1.10%     1 P:x            -7.062  1.00     8 N
                                    1.02%     1 P:z            -5.239  0.67     4 C
       0.576  0.00    35 A         35.64%     1 S              -6.532  1.00     9 H
                                   22.56%     1 P:y            -5.239  0.67     1 C
                                    9.91%     2 S               2.394  0.00     9 H
                                    8.57%     1 S              -6.532  1.00    11 H
                                    8.26%     1 S              -6.532  1.00    10 H
                                   -7.69%     2 P:z             4.589  0.00     1 C
                                    4.12%     1 P:y            -7.062  1.00     5 N
                                    4.05%     2 S               2.394  0.00    11 H
                                    3.76%     2 S               2.394  0.00    10 H
                                    3.68%     2 S               2.394  0.00    12 H
                                    3.30%     2 P:y             4.589  0.00     1 C
                                   -3.22%     2 P:x             4.589  0.00     1 C
                                    3.20%     3 S              40.869  0.00     9 H
                                   -2.50%     3 S              14.073  0.00     5 N
                                    2.18%     1 S              -6.532  1.00    12 H
                                    1.95%     2 P:z             4.589  0.00     2 C
                                    1.73%     2 S             -13.620  2.00     1 C
                                   -1.73%     3 S              10.158  0.00     2 C
                                   -1.39%     1 P:z            -5.239  0.67     1 C
                                   -1.14%     3 S              14.073  0.00     8 N
                                    1.13%     1 P:z            11.051  0.00     9 H
                                    1.12%     1 P:y            -7.062  1.00     6 N
       0.807  0.00    36 A         35.71%     1 S              -6.532  1.00    10 H
                                   35.25%     1 S              -6.532  1.00    11 H
                                  -32.21%     2 P:x             4.589  0.00     1 C
                                   23.98%     2 S               2.394  0.00    10 H
                                   23.64%     2 S               2.394  0.00    11 H
                                    5.57%     1 P:x            -5.239  0.67     1 C
                                   -4.97%     2 P:z             4.589  0.00     1 C
                                    2.43%     3 S              40.869  0.00    11 H
                                    2.43%     3 S              40.869  0.00    10 H
                                    1.41%     2 P:x             7.649  0.00     5 N
       1.510  0.00    37 A         18.18%     2 P:y             4.589  0.00     2 C
                                   17.17%     1 P:z            -5.239  0.67     1 C
                                   13.28%     1 S              -6.532  1.00     9 H
                                   13.27%     2 P:y             4.589  0.00     1 C
                                   11.22%     1 P:y            -5.239  0.67     1 C
                                   -8.68%     3 S              14.073  0.00     5 N
                                   -7.33%     3 S              14.073  0.00     7 N
                                    6.11%     1 P:y            -5.239  0.67     3 C
                                    5.42%     2 S             -18.450  2.00     5 N
                                    4.93%     2 P:z             4.589  0.00     3 C
                                   -4.18%     2 S               2.394  0.00     9 H
                                    3.99%     2 P:y             4.589  0.00     3 C
                                    3.90%     1 P:y            -7.062  1.00     6 N
                                    3.82%     2 P:z             4.589  0.00     2 C
                                    2.23%     2 P:x             4.589  0.00     2 C
                                    2.06%     1 P:y            11.051  0.00    12 H
                                    2.04%     2 P:y             7.649  0.00     6 N
                                    1.83%     2 S               2.394  0.00    12 H
                                    1.80%     1 P:z            -7.062  1.00     5 N
                                    1.58%     2 P:x             4.589  0.00     3 C
                                   -1.49%     1 S              -6.532  1.00    12 H
                                    1.31%     1 P:x            -5.239  0.67     1 C
                                    1.26%     1 P:y            11.051  0.00     9 H
                                    1.20%     2 P:z             4.589  0.00     1 C
                                    1.14%     2 S             -13.620  2.00     4 C
                                    1.14%     1 P:y            -5.239  0.67     2 C
                                   -1.13%     2 P:y             4.589  0.00     4 C
                                   -1.13%     1 P:z            -7.062  1.00     6 N

 Energy gradients wrt nuclear displacements
 ==========================================

     Atom      Cartesian (a.u./angstrom)
                 X         Y         Z
 ----------------------------------------
     1 C    -0.000091 -0.000049 -0.000108
     2 N    -0.000005  0.000001 -0.000038
     3 N     0.000012 -0.000030  0.000010
     4 C    -0.000004  0.000003  0.000061
     5 C    -0.000012  0.000013  0.000030
     6 N     0.000001 -0.000034  0.000118
     7 C     0.000009  0.000060  0.000040
     8 N     0.000008  0.000069  0.000037
     9 H     0.000024 -0.000042 -0.000017
    10 H     0.000039  0.000018 -0.000070
    11 H     0.000028  0.000016 -0.000062
    12 H    -0.000010 -0.000025 -0.000000
 ----------------------------------------



 =======================================================================
 Electrostatic potential at the Nuclei due to electrons and other nuclei
 =======================================================================
  
         Atom                  Potential
         ----                  ---------
     1)   C                  14.71503316
     2)   N                  18.34813846
     3)   N                  18.24450628
     4)   C                  14.66468274
     5)   C                  14.73813283
     6)   N                  18.41793973
     7)   C                  14.74302350
     8)   N                  18.42169359
     9)   H                   1.05601473
    10)   H                   1.06205591
    11)   H                   1.06197453
    12)   H                   0.92861763
 Mulliken charges used for AMS results%charges...


    =====================
     CALCULATION RESULTS
    =====================

Energy (hartree)            -2.82582357

Gradients (hartree/bohr)
  Index   Atom            d/dx            d/dy            d/dz
      1      C   -0.0000480711   -0.0000257142   -0.0000572274
      2      N   -0.0000025990    0.0000004098   -0.0000201731
      3      N    0.0000061937   -0.0000159796    0.0000051693
      4      C   -0.0000018903    0.0000014441    0.0000322167
      5      C   -0.0000065622    0.0000068580    0.0000160783
      6      N    0.0000007767   -0.0000178272    0.0000626730
      7      C    0.0000050136    0.0000319997    0.0000212173
      8      N    0.0000040604    0.0000364703    0.0000194915
      9      H    0.0000126528   -0.0000221153   -0.0000090471
     10      H    0.0000208162    0.0000092700   -0.0000372829
     11      H    0.0000149533    0.0000084246   -0.0000329315
     12      H   -0.0000053441   -0.0000132400   -0.0000001841


--------------
Atomic charges
--------------
  Index   Atom    Charge
      1      C    0.7240
      2      N   -0.2065
      3      N    0.2441
      4      C    0.0552
      5      C    0.0893
      6      N   -0.2474
      7      C    0.1337
      8      N   -0.2384
      9      H   -0.2313
     10      H   -0.1449
     11      H   -0.1448
     12      H   -0.0328


Dipole moment vector    (Debye):     0.40753300   -5.79584298    3.30879598
              magnitude (Debye):     6.68625529


-----------------------
Molecular orbitals info
-----------------------
n orbitals:              252
n spin:                    1

Note: only printing virtual orbitals with
      energy smaller than HOMO + 100. eV

HOMO (eV):              -6.1354
LUMO (eV):              -3.7446
HOMO-LUMO gap (eV):      2.3908

   Index   Energy (eV)    Occupation
     153       92.9431         0.000       
     152       91.4931         0.000       
     151       89.9930         0.000       
     150       89.3883         0.000       
     149       89.1827         0.000       
     148       85.9012         0.000       
     147       82.7158         0.000       
     146       81.7647         0.000       
     145       80.5689         0.000       
     144       80.0197         0.000       
     143       78.9727         0.000       
     142       78.7627         0.000       
     141       77.0591         0.000       
     140       76.3939         0.000       
     139       75.9967         0.000       
     138       75.5117         0.000       
     137       75.2242         0.000       
     136       73.8573         0.000       
     135       72.3991         0.000       
     134       70.4829         0.000       
     133       68.6343         0.000       
     132       67.3778         0.000       
     131       66.1254         0.000       
     130       66.0692         0.000       
     129       64.0930         0.000       
     128       63.2723         0.000       
     127       61.9194         0.000       
     126       61.1735         0.000       
     125       60.0360         0.000       
     124       58.9368         0.000       
     123       58.8070         0.000       
     122       57.9629         0.000       
     121       56.6334         0.000       
     120       55.9991         0.000       
     119       55.1046         0.000       
     118       53.4544         0.000       
     117       53.3244         0.000       
     116       51.5099         0.000       
     115       50.4084         0.000       
     114       50.3656         0.000       
     113       48.2816         0.000       
     112       48.0752         0.000       
     111       47.6393         0.000       
     110       46.5558         0.000       
     109       46.3858         0.000       
     108       45.3326         0.000       
     107       44.2937         0.000       
     106       44.1192         0.000       
     105       42.5163         0.000       
     104       41.0395         0.000       
     103       40.9515         0.000       
     102       39.4877         0.000       
     101       38.5569         0.000       
     100       38.1562         0.000       
      99       37.9913         0.000       
      98       37.0571         0.000       
      97       36.7239         0.000       
      96       36.0768         0.000       
      95       35.2826         0.000       
      94       34.8080         0.000       
      93       33.5149         0.000       
      92       32.2445         0.000       
      91       30.8400         0.000       
      90       30.5690         0.000       
      89       30.3873         0.000       
      88       29.5482         0.000       
      87       28.9165         0.000       
      86       28.6443         0.000       
      85       27.2799         0.000       
      84       27.0261         0.000       
      83       26.7903         0.000       
      82       26.1648         0.000       
      81       26.0104         0.000       
      80       25.4318         0.000       
      79       24.2914         0.000       
      78       24.2676         0.000       
      77       22.9448         0.000       
      76       22.7689         0.000       
      75       22.1873         0.000       
      74       22.0186         0.000       
      73       20.5671         0.000       
      72       19.8614         0.000       
      71       18.9921         0.000       
      70       17.3693         0.000       
      69       17.2885         0.000       
      68       15.6375         0.000       
      67       14.8249         0.000       
      66       14.1371         0.000       
      65       13.4049         0.000       
      64       13.1156         0.000       
      63       12.0734         0.000       
      62       11.8425         0.000       
      61       11.6724         0.000       
      60       10.3503         0.000       
      59       10.0662         0.000       
      58        9.0295         0.000       
      57        8.9961         0.000       
      56        8.6030         0.000       
      55        8.4186         0.000       
      54        7.9778         0.000       
      53        7.7198         0.000       
      52        7.6524         0.000       
      51        7.2713         0.000       
      50        6.6603         0.000       
      49        6.1681         0.000       
      48        5.8348         0.000       
      47        5.6163         0.000       
      46        4.6877         0.000       
      45        4.5123         0.000       
      44        3.8640         0.000       
      43        3.7811         0.000       
      42        3.1577         0.000       
      41        2.7917         0.000       
      40        2.6367         0.000       
      39        1.9872         0.000       
      38        1.8368         0.000       
      37        1.5100         0.000       
      36        0.8066         0.000       
      35        0.5756         0.000       
      34       -0.2835         0.000       
      33       -0.4345         0.000       
      32       -0.5131         0.000       
      31       -1.2189         0.000       
      30       -1.9765         0.000       
      29       -3.7446         0.000 < LUMO
      28       -6.1354         2.000 < HOMO
      27       -8.0264         2.000       
      26       -8.5750         2.000       
      25       -8.7511         2.000       
      24       -8.8953         2.000       
      23       -9.0694         2.000       
      22       -9.2279         2.000       
      21       -9.4698         2.000       
      20      -11.1575         2.000       
      19      -11.1918         2.000       
      18      -12.7337         2.000       
      17      -13.4255         2.000       
      16      -14.7666         2.000       
      15      -15.9307         2.000       
      14      -18.1377         2.000       
      13      -19.2455         2.000       
      12      -22.1348         2.000       
      11      -22.7550         2.000       
      10      -23.2429         2.000       
       9      -27.7960         2.000       
       8     -271.5523         2.000       
       7     -271.6902         2.000       
       6     -271.9334         2.000       
       5     -273.1750         2.000       
       4     -381.9989         2.000       
       3     -382.0935         2.000       
       2     -383.6830         2.000       
       1     -386.2404         2.000       

AMS application finished. Exiting.
NORMAL TERMINATION
     Total cpu time:     317.11
  Total system time:       1.52
 Total elapsed time:     320.42
NORMAL TERMINATION
