
 *******************************************************************************
 *                                                                             *
 *  --------------------------------                                           *
 *   Amsterdam Modeling Suite (AMS)              2026.103                      *
 *  --------------------------------                                           *
 *                                               r260501 2026-05-01 873454b5   *
 *                                                                             *
 *                                                                             *
 *                              =================                              *
 *                              |               |                              *
 *                              |     A M S     |                              *
 *                              |               |                              *
 *                              =================                              *
 *                                                                             *
 *                                                                             *
 *   Online information and documentation:  https://www.scm.com/support/       *
 *   E-mail:  support@scm.com   info@scm.com                                   *
 *                                                                             *
 *   Scientific publications using AMS results must be properly referenced     *
 *   See the User Manuals (or the web site) for recommended citations          *
 *   The terms and conditions of the End User License Agreement apply to       *
 *   the use of AMS, https://www.scm.com/license-terms/                        *
 *                                                                             *
 **********************  x86_64_linux_intel / intelmpi  ************************
 
 Licensed to: Jong-June Jeon / University of Seoul 2026-06-02 13:44:15
 SCM User ID: u30731
  
 AMS 2026.103  RunTime: Jun02-2026 21:32:46  ShM Nodes: 1  Procs: 1

 AMS jobname: c5_fragB_opt
 AMS jobid  : 1904803775

 Start   directory: /gpfs/home1/yeseo1ee/projects/eda-asm-prediction/ADF_800/adf_outputs/batch_000/dipolar_000074/
 Results directory: /gpfs/home1/yeseo1ee/projects/eda-asm-prediction/ADF_800/adf_outputs/batch_000/dipolar_000074/c5_fragB_opt.results/
 Scratch directory: /tmp/amstmp_c5_fragB_opt_kid0.1904803775/

 RNG seed: -58502733 -1698716396 734119071 2061534337 1285131972 891593587 -1321215181 -1271040538



                      ************************************************************************
                      *  ADF 2026.103  RunTime: Jun02-2026 21:32:47  ShM Nodes: 1  Procs: 1  *
                      ************************************************************************
  

       ***************************
       *  GEOMETRY OPTIMIZATION  *
       ***************************

Optimization Method                    Quasi Newton
Optimization Coordinates               Delocalized Coordinates
Optimize lattice                       F
 
 ------------------------------------------------------
 Convergence criteria (Hartree,Angstrom)
 ------------------------------------------------------
 Maximum gradient               0.000100000000
 Maximum rms gradient           0.000066666667
 Maximum step allowed           0.010000000000
 Maximum rms step allowed       0.006666666667
 Maximum energy change allowe   0.000140000000
 Maximum stress energy allowe   0.000500000000
 
Initial model Hessian                  Automatic Hessian
 
------------------------------------
Quasi-Newton Optimizer Parameters
------------------------------------
Hessian Update Method                  BFGS
Maximum number of steps                  200
First GDIIS cycle                          0
Maximum GDIIS vectors                      0
Trust radius (bohr)                        0.200000
Trust radius varies                        T
Constraints converged at all steps         T
Use projector                              T
 
 Rigid motions settings for: old optimizer
 Atomic rotations (x,y,z):     T T T
 Atomic translations (x,y,z):  T T T
 Tolerance:                  1.000000000000000E-006

--------
Geometry
--------
Formula: C7H5NO
Atoms
  Index Symbol   x (angstrom)   y (angstrom)   z (angstrom)
      1      C     0.22150000     0.15824000    -0.84131000
      2      C     1.21958000     0.37851000     0.30469000
      3      O     0.76063000    -0.60565000     1.24123000
      4      C     0.83891000    -1.72649000     0.34046000
      5      C     2.29895000    -1.61316000    -0.12547000
      6      C     2.55426000    -0.29170000    -0.14021000
      7      C     3.71809000     0.39447000    -0.54858000
      8      N     4.66517000     0.99022000    -0.87598000
      9      C    -0.04821000    -1.20796000    -0.81397000
     10      H     0.16311000     0.81035000    -1.71104000
     11      H     1.29758000     1.37553000     0.74847000
     12      H     0.55595000    -2.66422000     0.82775000
     13      H     2.94401000    -2.43847000    -0.42298000
     14      H    -0.30078000    -1.81857000    -1.67870000

Total System Charge              0.00000


----------------
ADF Engine Input
----------------
 
   Basis
     Type TZ2P
     Core None
   End
   XC
     GGA BLYP
     Dispersion GRIMME3 BJDAMP
   End
   Symmetry NOSYM
   NumericalQuality Normal
   Unrestricted No
   SCF
     Iterations 200
     Converge 1.0e-6
   End
   Save TAPE21
 

 Title: *** (NO TITLE) ***

Challenging geometry: could not add a dihedral for atom    8
 Using automatic Hessian for delocalized coordinates.
 *** GO1_GOStep1 ***

 Energy gradients wrt nuclear displacements
 ==========================================

     Atom      Cartesian (a.u./angstrom)
                 X         Y         Z
 ----------------------------------------
     1 C     0.001704  0.083701  0.023800
     2 C     0.015693 -0.023464 -0.005602
     3 O     0.001425 -0.001077 -0.034475
     4 C     0.026228  0.020936 -0.004772
     5 C    -0.019100 -0.001160  0.004795
     6 C    -0.023160  0.009237  0.010141
     7 C     0.007780  0.005136 -0.004037
     8 N    -0.005173 -0.004806  0.002802
     9 C    -0.044827 -0.078684  0.025760
    10 H     0.016051 -0.002364 -0.007941
    11 H     0.000055  0.005359  0.000088
    12 H     0.000221 -0.004175 -0.000476
    13 H     0.003642 -0.005685 -0.002445
    14 H     0.019460 -0.002954 -0.007639
 ----------------------------------------
 
----------------------------------------------------------------------
Geometry Convergence after Step   1       (Hartree/Angstrom,Angstrom)
----------------------------------------------------------------------
current energy                               -3.24801156 Hartree
energy change                      -3.24801156     0.00014000    F
constrained gradient max            0.08366050     0.00010000    F
constrained gradient rms            0.02275803     0.00006667    F
gradient max                        0.08365961
gradient rms                        0.02275803
cart. step max                      0.03573869     0.01000000    F
cart. step rms                      0.01232834     0.00666667    F
 

--------
Geometry
--------
Formula: C7H5NO
Atoms
  Index Symbol   x (angstrom)   y (angstrom)   z (angstrom)
      1      C     0.23086339     0.13881000    -0.85443583
      2      C     1.22171788     0.37291943     0.30377587
      3      O     0.76794988    -0.60847482     1.25675577
      4      C     0.83739725    -1.72714817     0.34149483
      5      C     2.31042084    -1.61767518    -0.11773625
      6      C     2.56933864    -0.29660134    -0.13955252
      7      C     3.72892950     0.39368011    -0.54873696
      8      N     4.66951575     1.00441967    -0.87795690
      9      C    -0.02692150    -1.19268542    -0.82954875
     10      H     0.12737131     0.79794644    -1.71206777
     11      H     1.29017579     1.36770223     0.74808047
     12      H     0.53881822    -2.65768820     0.82951657
     13      H     2.95238944    -2.44222778    -0.41099105
     14      H    -0.32921637    -1.79187697    -1.68423747

Total System Charge              0.00000

 *** GO1_GOStep2 ***

 Energy gradients wrt nuclear displacements
 ==========================================

     Atom      Cartesian (a.u./angstrom)
                 X         Y         Z
 ----------------------------------------
     1 C    -0.006255  0.036055  0.015570
     2 C     0.009855 -0.021649 -0.007044
     3 O     0.002493 -0.001743 -0.011831
     4 C     0.016233  0.017704 -0.005025
     5 C    -0.010925 -0.003167  0.001924
     6 C    -0.012603  0.008693  0.004964
     7 C    -0.001385 -0.001512 -0.000851
     8 N     0.003920  0.001591 -0.000475
     9 C    -0.028788 -0.030992  0.017926
    10 H     0.011696 -0.005176 -0.007844
    11 H    -0.001038  0.002209  0.001127
    12 H    -0.000483 -0.001444  0.001342
    13 H     0.001214 -0.001958 -0.001357
    14 H     0.016065  0.001388 -0.008426
 ----------------------------------------

 dE(predicted):    -0.45478E-02, dE(actual):    -0.50248E-02, Trust radius:    0.400000, all in a.u.
 
----------------------------------------------------------------------
Geometry Convergence after Step   2       (Hartree/Angstrom,Angstrom)
----------------------------------------------------------------------
current energy                               -3.25303639 Hartree
energy change                      -0.00502483     0.00014000    F
constrained gradient max            0.03601524     0.00010000    F
constrained gradient rms            0.01200075     0.00006667    F
gradient max                        0.03601422
gradient rms                        0.01200075
cart. step max                      0.08591743     0.01000000    F
cart. step rms                      0.02351105     0.00666667    F
 

--------
Geometry
--------
Formula: C7H5NO
Atoms
  Index Symbol   x (angstrom)   y (angstrom)   z (angstrom)
      1      C     0.24763254     0.12237571    -0.87989127
      2      C     1.23153189     0.38016611     0.28762784
      3      O     0.77017332    -0.60714602     1.24103523
      4      C     0.84389640    -1.73910499     0.32948466
      5      C     2.33433696    -1.62437521    -0.10809418
      6      C     2.59260035    -0.30272596    -0.13798500
      7      C     3.75170594     0.39124913    -0.53431439
      8      N     4.68423026     1.01328115    -0.85478715
      9      C     0.00025798    -1.18679188    -0.85465887
     10      H     0.04900876     0.81074807    -1.69434030
     11      H     1.28863052     1.37245929     0.73329899
     12      H     0.52772721    -2.65956989     0.82120806
     13      H     2.98215167    -2.44740226    -0.38271726
     14      H    -0.41513380    -1.78206325    -1.66150636

Total System Charge              0.00000

 *** GO1_GOStep3 ***

 Energy gradients wrt nuclear displacements
 ==========================================

     Atom      Cartesian (a.u./angstrom)
                 X         Y         Z
 ----------------------------------------
     1 C    -0.009319 -0.005820  0.009730
     2 C     0.005839  0.000406 -0.002019
     3 O     0.002314 -0.001354 -0.009661
     4 C     0.004165 -0.002002 -0.000162
     5 C    -0.001381 -0.004872 -0.000857
     6 C    -0.002135  0.006067  0.000139
     7 C     0.005544  0.003460 -0.002600
     8 N    -0.005719 -0.004287  0.002586
     9 C    -0.011049  0.009542  0.011964
    10 H     0.005978 -0.004786 -0.005766
    11 H    -0.001597  0.000062  0.001778
    12 H    -0.001007  0.000451  0.002131
    13 H    -0.000592  0.000413  0.000011
    14 H     0.008959  0.002720 -0.007275
 ----------------------------------------

 dE(predicted):    -0.38882E-02, dE(actual):    -0.38471E-02, Trust radius:    0.800000, all in a.u.
 
----------------------------------------------------------------------
Geometry Convergence after Step   3       (Hartree/Angstrom,Angstrom)
----------------------------------------------------------------------
current energy                               -3.25688352 Hartree
energy change                      -0.00384712     0.00014000    F
constrained gradient max            0.01196699     0.00010000    F
constrained gradient rms            0.00523558     0.00006667    F
gradient max                        0.01196742
gradient rms                        0.00523558
cart. step max                      0.09919439     0.01000000    F
cart. step rms                      0.02852023     0.00666667    F
 

--------
Geometry
--------
Formula: C7H5NO
Atoms
  Index Symbol   x (angstrom)   y (angstrom)   z (angstrom)
      1      C     0.27428614     0.11643128    -0.91994237
      2      C     1.23890245     0.37588070     0.26830422
      3      O     0.76240009    -0.60453425     1.22747713
      4      C     0.85243466    -1.73901305     0.31186224
      5      C     2.35742194    -1.62774714    -0.09269615
      6      C     2.61515670    -0.30999098    -0.12748236
      7      C     3.77352706     0.38903887    -0.51574129
      8      N     4.70395398     1.02341357    -0.83387302
      9      C     0.03014501    -1.19545214    -0.89474435
     10      H    -0.03147156     0.84984757    -1.65719337
     11      H     1.29160521     1.37026079     0.70630001
     12      H     0.52465688    -2.65750784     0.79635269
     13      H     3.01005963    -2.45216258    -0.35039221
     14      H    -0.51432819    -1.79736481    -1.61387117

Total System Charge              0.00000

 *** GO1_GOStep4 ***

 Energy gradients wrt nuclear displacements
 ==========================================

     Atom      Cartesian (a.u./angstrom)
                 X         Y         Z
 ----------------------------------------
     1 C    -0.000952 -0.000293  0.000423
     2 C    -0.000954  0.002420  0.000641
     3 O     0.001328 -0.000616  0.001848
     4 C    -0.002704 -0.001677  0.001140
     5 C     0.004248  0.000407 -0.001748
     6 C     0.002303 -0.001696 -0.001274
     7 C    -0.007972 -0.005874  0.002008
     8 N     0.007628  0.005104 -0.002245
     9 C    -0.002464  0.001217  0.000904
    10 H     0.000277 -0.001730 -0.002258
    11 H    -0.000954 -0.001694  0.001701
    12 H    -0.000509  0.001941  0.001694
    13 H    -0.000331  0.000962  0.000222
    14 H     0.001056  0.001530 -0.003057
 ----------------------------------------

 dE(predicted):    -0.18614E-02, dE(actual):    -0.20872E-02, Trust radius:    0.800000, all in a.u.
 
----------------------------------------------------------------------
Geometry Convergence after Step   4       (Hartree/Angstrom,Angstrom)
----------------------------------------------------------------------
current energy                               -3.25897069 Hartree
energy change                      -0.00208717     0.00014000    F
constrained gradient max            0.00801439     0.00010000    F
constrained gradient rms            0.00263516     0.00006667    F
gradient max                        0.00801448
gradient rms                        0.00263516
cart. step max                      0.03046023     0.01000000    F
cart. step rms                      0.01110546     0.00666667    F
 

--------
Geometry
--------
Formula: C7H5NO
Atoms
  Index Symbol   x (angstrom)   y (angstrom)   z (angstrom)
      1      C     0.27751054     0.11473977    -0.93052819
      2      C     1.24236066     0.37593178     0.25641637
      3      O     0.75874551    -0.60083889     1.21669339
      4      C     0.85726147    -1.73848717     0.30427888
      5      C     2.36262568    -1.62760202    -0.09103792
      6      C     2.62122033    -0.31034733    -0.12535917
      7      C     3.78244991     0.38992073    -0.50382603
      8      N     4.71171010     1.02155858    -0.81477859
      9      C     0.03564229    -1.19877990    -0.90313011
     10      H    -0.05828078     0.86263141    -1.63914474
     11      H     1.29678836     1.37493230     0.68453763
     12      H     0.52986592    -2.66116191     0.78163519
     13      H     3.01563845    -2.45360245    -0.34505580
     14      H    -0.54478843    -1.80779489    -1.58634091

Total System Charge              0.00000

 *** GO1_GOStep5 ***

 Energy gradients wrt nuclear displacements
 ==========================================

     Atom      Cartesian (a.u./angstrom)
                 X         Y         Z
 ----------------------------------------
     1 C     0.000595  0.001824  0.000097
     2 C    -0.002296  0.002174  0.000480
     3 O    -0.000211  0.000054 -0.000916
     4 C    -0.003248 -0.001642  0.001800
     5 C     0.003494  0.001096 -0.001252
     6 C     0.003438 -0.002185 -0.000388
     7 C     0.005087  0.003395 -0.001860
     8 N    -0.005644 -0.003997  0.002087
     9 C    -0.000279 -0.001139 -0.000304
    10 H    -0.000410 -0.000322 -0.000312
    11 H    -0.000056 -0.000863  0.000646
    12 H    -0.000108  0.000836  0.000502
    13 H    -0.000112  0.000371 -0.000115
    14 H    -0.000250  0.000397 -0.000465
 ----------------------------------------

 dE(predicted):    -0.19638E-03, dE(actual):    -0.20423E-03, Trust radius:    0.800000, all in a.u.
 
----------------------------------------------------------------------
Geometry Convergence after Step   5       (Hartree/Angstrom,Angstrom)
----------------------------------------------------------------------
current energy                               -3.25917491 Hartree
energy change                      -0.00020423     0.00014000    F
constrained gradient max            0.00572503     0.00010000    F
constrained gradient rms            0.00195464     0.00006667    F
gradient max                        0.00572505
gradient rms                        0.00195464
cart. step max                      0.00594445     0.01000000    T
cart. step rms                      0.00209860     0.00666667    T
 

--------
Geometry
--------
Formula: C7H5NO
Atoms
  Index Symbol   x (angstrom)   y (angstrom)   z (angstrom)
      1      C     0.27738826     0.11439995    -0.93093993
      2      C     1.24261938     0.37533041     0.25526235
      3      O     0.75953945    -0.60119271     1.21651715
      4      C     0.85815515    -1.73808587     0.30255587
      5      C     2.36174561    -1.62781642    -0.08962227
      6      C     2.61954262    -0.31000419    -0.12658645
      7      C     3.78183874     0.39057434    -0.50283447
      8      N     4.71400892     1.02281136    -0.81310783
      9      C     0.03595671    -1.19877773    -0.90376019
     10      H    -0.05912008     0.86589494    -1.63530429
     11      H     1.29842741     1.37651830     0.67909586
     12      H     0.53136245    -2.66352335     0.77569075
     13      H     3.01501107    -2.45485531    -0.34082797
     14      H    -0.54772568    -1.81017372    -1.58177859

Total System Charge              0.00000

 *** GO1_GOStep6 ***

 Energy gradients wrt nuclear displacements
 ==========================================

     Atom      Cartesian (a.u./angstrom)
                 X         Y         Z
 ----------------------------------------
     1 C     0.000789  0.001021  0.000183
     2 C    -0.002308  0.001135  0.000639
     3 O     0.000444 -0.000228 -0.001088
     4 C    -0.002583 -0.000177  0.000874
     5 C     0.002081  0.000709 -0.000025
     6 C     0.001439 -0.001775 -0.000499
     7 C    -0.002006 -0.001205  0.000666
     8 N     0.002117  0.001168 -0.000525
     9 C     0.000148 -0.000745 -0.000292
    10 H    -0.000140  0.000047  0.000041
    11 H     0.000228 -0.000171  0.000120
    12 H     0.000059  0.000156 -0.000047
    13 H    -0.000036 -0.000065 -0.000098
    14 H    -0.000232  0.000130  0.000051
 ----------------------------------------

 dE(predicted):    -0.26662E-04, dE(actual):    -0.22188E-04, Trust radius:    0.800000, all in a.u.
 
----------------------------------------------------------------------
Geometry Convergence after Step   6       (Hartree/Angstrom,Angstrom)
----------------------------------------------------------------------
current energy                               -3.25919710 Hartree
energy change                      -0.00002219     0.00014000    T
constrained gradient max            0.00252021     0.00010000    F
constrained gradient rms            0.00098462     0.00006667    F
gradient max                        0.00252020
gradient rms                        0.00098462
cart. step max                      0.00290125     0.01000000    T
cart. step rms                      0.00101365     0.00666667    T
 

--------
Geometry
--------
Formula: C7H5NO
Atoms
  Index Symbol   x (angstrom)   y (angstrom)   z (angstrom)
      1      C     0.27715014     0.11382192    -0.93037744
      2      C     1.24312024     0.37481360     0.25531829
      3      O     0.76023552    -0.60090544     1.21792653
      4      C     0.85881741    -1.73738145     0.30279847
      5      C     2.35994664    -1.62758661    -0.09124875
      6      C     2.61850548    -0.30944891    -0.12658522
      7      C     3.78137144     0.39066670    -0.50221779
      8      N     4.71294930     1.02322723    -0.81177522
      9      C     0.03503619    -1.19868069    -0.90233165
     10      H    -0.05621883     0.86563158    -1.63590755
     11      H     1.29894357     1.37703987     0.67716800
     12      H     0.53264006    -2.66389001     0.77471120
     13      H     3.01289922    -2.45506463    -0.34206206
     14      H    -0.54664638    -1.81114319    -1.58105681

Total System Charge              0.00000

 *** GO1_GOStep7 ***

 Energy gradients wrt nuclear displacements
 ==========================================

     Atom      Cartesian (a.u./angstrom)
                 X         Y         Z
 ----------------------------------------
     1 C     0.000626  0.000092  0.000292
     2 C    -0.001869 -0.000170  0.000214
     3 O     0.000362 -0.000092 -0.000362
     4 C    -0.001322  0.001021  0.000261
     5 C     0.000739  0.000123 -0.000329
     6 C     0.000788 -0.000665 -0.000067
     7 C    -0.000371 -0.000345  0.000199
     8 N     0.000566  0.000221 -0.000033
     9 C     0.000153 -0.000177  0.000101
    10 H     0.000109  0.000118  0.000001
    11 H     0.000276  0.000073 -0.000052
    12 H     0.000030 -0.000107 -0.000203
    13 H    -0.000025 -0.000187 -0.000019
    14 H    -0.000062  0.000094 -0.000001
 ----------------------------------------

 dE(predicted):    -0.69324E-05, dE(actual):    -0.12822E-04, Trust radius:    0.800000, all in a.u.
 
----------------------------------------------------------------------
Geometry Convergence after Step   7       (Hartree/Angstrom,Angstrom)
----------------------------------------------------------------------
current energy                               -3.25920992 Hartree
energy change                      -0.00001282     0.00014000    T
constrained gradient max            0.00189953     0.00010000    F
constrained gradient rms            0.00048077     0.00006667    F
gradient max                        0.00189954
gradient rms                        0.00048077
cart. step max                      0.00269343     0.01000000    T
cart. step rms                      0.00083594     0.00666667    T
 

--------
Geometry
--------
Formula: C7H5NO
Atoms
  Index Symbol   x (angstrom)   y (angstrom)   z (angstrom)
      1      C     0.27626446     0.11429976    -0.92944140
      2      C     1.24378506     0.37482578     0.25551027
      3      O     0.75978235    -0.60104746     1.21794386
      4      C     0.85938576    -1.73773765     0.30258603
      5      C     2.35942542    -1.62746907    -0.09017246
      6      C     2.61763310    -0.30903454    -0.12696893
      7      C     3.78070738     0.39039557    -0.50320062
      8      N     4.71243279     1.02195474    -0.81337491
      9      C     0.03568106    -1.19843455    -0.90258428
     10      H    -0.05673392     0.86650730    -1.63472816
     11      H     1.29905526     1.37707226     0.67750882
     12      H     0.53255658    -2.66424014     0.77424300
     13      H     3.01272766    -2.45486986    -0.34010780
     14      H    -0.54395295    -1.81112213    -1.58285341

Total System Charge              0.00000

 *** GO1_GOStep8 ***

 Energy gradients wrt nuclear displacements
 ==========================================

     Atom      Cartesian (a.u./angstrom)
                 X         Y         Z
 ----------------------------------------
     1 C     0.000128  0.000114  0.000536
     2 C    -0.000767 -0.000384  0.000044
     3 O     0.000047 -0.000054 -0.000467
     4 C    -0.000657  0.000716 -0.000091
     5 C     0.000124 -0.000082  0.000093
     6 C     0.000374 -0.000132 -0.000331
     7 C     0.000356  0.000143 -0.000051
     8 N    -0.000230 -0.000329  0.000239
     9 C     0.000315 -0.000033  0.000268
    10 H     0.000184  0.000173  0.000017
    11 H     0.000170  0.000139 -0.000076
    12 H    -0.000020 -0.000175 -0.000149
    13 H    -0.000107 -0.000174  0.000052
    14 H     0.000083  0.000077 -0.000084
 ----------------------------------------

 dE(predicted):    -0.24082E-05, dE(actual):    -0.67217E-05, Trust radius:    0.800000, all in a.u.
 
----------------------------------------------------------------------
Geometry Convergence after Step   8       (Hartree/Angstrom,Angstrom)
----------------------------------------------------------------------
current energy                               -3.25921665 Hartree
energy change                      -0.00000672     0.00014000    T
constrained gradient max            0.00079732     0.00010000    F
constrained gradient rms            0.00027363     0.00006667    F
gradient max                        0.00079734
gradient rms                        0.00027363
cart. step max                      0.00176453     0.01000000    T
cart. step rms                      0.00067831     0.00666667    T
 

--------
Geometry
--------
Formula: C7H5NO
Atoms
  Index Symbol   x (angstrom)   y (angstrom)   z (angstrom)
      1      C     0.27664899     0.11385647    -0.93025071
      2      C     1.24439315     0.37504430     0.25517464
      3      O     0.75996396    -0.60101316     1.21779079
      4      C     0.86010084    -1.73815525     0.30236840
      5      C     2.35910964    -1.62704015    -0.09090364
      6      C     2.61764011    -0.30848779    -0.12588081
      7      C     3.78095472     0.39053218    -0.50207558
      8      N     4.71318425     1.02127483    -0.81255188
      9      C     0.03500696    -1.19856995    -0.90221299
     10      H    -0.05654139     0.86577813    -1.63572998
     11      H     1.29840862     1.37719936     0.67745221
     12      H     0.53301621    -2.66422066     0.77465873
     13      H     3.01258144    -2.45391034    -0.34185908
     14      H    -0.54571748    -1.81118796    -1.58162009

Total System Charge              0.00000

 *** GO1_GOStep9 ***

 Energy gradients wrt nuclear displacements
 ==========================================

     Atom      Cartesian (a.u./angstrom)
                 X         Y         Z
 ----------------------------------------
     1 C     0.000095 -0.000035  0.000177
     2 C    -0.000209 -0.000078 -0.000155
     3 O     0.000026 -0.000023 -0.000329
     4 C     0.000024  0.000102 -0.000251
     5 C    -0.000287 -0.000036 -0.000128
     6 C     0.000263  0.000048  0.000152
     7 C     0.000112  0.000049  0.000078
     8 N    -0.000079 -0.000260  0.000157
     9 C     0.000004  0.000122  0.000392
    10 H     0.000196  0.000135 -0.000008
    11 H     0.000099  0.000072 -0.000003
    12 H    -0.000131 -0.000083 -0.000073
    13 H    -0.000167 -0.000099  0.000057
    14 H     0.000055  0.000086 -0.000065
 ----------------------------------------
 
----------------------------------------------------------------------
Geometry Convergence after Step   9       (Hartree/Angstrom,Angstrom)
----------------------------------------------------------------------
current energy                               -3.25921661 Hartree
energy change                       0.00000004     0.00014000    T
constrained gradient max            0.00043798     0.00010000    F
constrained gradient rms            0.00013633     0.00006667    F
gradient max                        0.00043799
gradient rms                        0.00013633
cart. step max                      0.00083531     0.01000000    T
cart. step rms                      0.00034520     0.00666667    T
 

--------
Geometry
--------
Formula: C7H5NO
Atoms
  Index Symbol   x (angstrom)   y (angstrom)   z (angstrom)
      1      C     0.27690000     0.11395051    -0.93053077
      2      C     1.24450306     0.37501434     0.25540685
      3      O     0.75967213    -0.60105246     1.21801704
      4      C     0.86016017    -1.73818430     0.30237425
      5      C     2.35941672    -1.62712441    -0.09013696
      6      C     2.61760410    -0.30857242    -0.12567583
      7      C     3.78088230     0.39025136    -0.50244881
      8      N     4.71293207     1.02106281    -0.81338719
      9      C     0.03560694    -1.19854526    -0.90296105
     10      H    -0.05720448     0.86597828    -1.63545147
     11      H     1.29826834     1.37696992     0.67804306
     12      H     0.53260021    -2.66398529     0.77469720
     13      H     3.01308635    -2.45372856    -0.34147236
     14      H    -0.54567792    -1.81093452    -1.58211395

Total System Charge              0.00000

 *** GO1_GOStep10 ***

 Energy gradients wrt nuclear displacements
 ==========================================

     Atom      Cartesian (a.u./angstrom)
                 X         Y         Z
 ----------------------------------------
     1 C     0.000064  0.000036  0.000010
     2 C    -0.000054  0.000003 -0.000083
     3 O    -0.000024  0.000012  0.000080
     4 C    -0.000009  0.000046 -0.000255
     5 C    -0.000096  0.000008  0.000005
     6 C     0.000136 -0.000072  0.000013
     7 C     0.000084 -0.000054  0.000063
     8 N    -0.000031 -0.000200  0.000146
     9 C     0.000023  0.000077  0.000072
    10 H     0.000120  0.000099  0.000001
    11 H     0.000055 -0.000012  0.000046
    12 H    -0.000128  0.000018 -0.000047
    13 H    -0.000138 -0.000071  0.000020
    14 H    -0.000004  0.000108 -0.000072
 ----------------------------------------
 
----------------------------------------------------------------------
Geometry Convergence after Step  10       (Hartree/Angstrom,Angstrom)
----------------------------------------------------------------------
current energy                               -3.25921648 Hartree
energy change                       0.00000013     0.00014000    T
constrained gradient max            0.00021659     0.00010000    F
constrained gradient rms            0.00005850     0.00006667    T
gradient max                        0.00021660
gradient rms                        0.00005850
cart. step max                      0.00030518     0.01000000    T
cart. step rms                      0.00009742     0.00666667    T
 

--------
Geometry
--------
Formula: C7H5NO
Atoms
  Index Symbol   x (angstrom)   y (angstrom)   z (angstrom)
      1      C     0.27690575     0.11396838    -0.93058308
      2      C     1.24451894     0.37504496     0.25544873
      3      O     0.75949490    -0.60102495     1.21796119
      4      C     0.86015606    -1.73823348     0.30244422
      5      C     2.35948940    -1.62712709    -0.09003150
      6      C     2.61757721    -0.30854491    -0.12560395
      7      C     3.78093022     0.39021525    -0.50245560
      8      N     4.71310453     1.02087806    -0.81349005
      9      C     0.03571504    -1.19857015    -0.90311964
     10      H    -0.05750966     0.86597311    -1.63538829
     11      H     1.29825668     1.37697516     0.67812276
     12      H     0.53254689    -2.66400144     0.77475719
     13      H     3.01333068    -2.45357811    -0.34151393
     14      H    -0.54576666    -1.81087480    -1.58218805

Total System Charge              0.00000

 *** GO1_GOStep11 ***

 Energy gradients wrt nuclear displacements
 ==========================================

     Atom      Cartesian (a.u./angstrom)
                 X         Y         Z
 ----------------------------------------
     1 C     0.000060  0.000090  0.000004
     2 C     0.000002  0.000053 -0.000025
     3 O    -0.000080  0.000037  0.000053
     4 C    -0.000044 -0.000036 -0.000136
     5 C    -0.000061 -0.000014 -0.000006
     6 C     0.000078 -0.000090  0.000004
     7 C    -0.000006 -0.000121  0.000096
     8 N     0.000116 -0.000107  0.000097
     9 C     0.000027  0.000043 -0.000007
    10 H     0.000094  0.000093 -0.000004
    11 H     0.000059 -0.000022  0.000046
    12 H    -0.000121  0.000030 -0.000052
    13 H    -0.000101 -0.000071  0.000003
    14 H    -0.000023  0.000114 -0.000073
 ----------------------------------------
 
---------------------------------------------------------
Geometry Convergence after Step  11       ** CONVERGED **
---------------------------------------------------------
current energy                               -3.25921600 Hartree
energy change                       0.00000048     0.00014000    T
constrained gradient max            0.00009755     0.00010000    T
constrained gradient rms            0.00003303     0.00006667    T
gradient max                        0.00009756
gradient rms                        0.00003303
cart. step max                      0.00013951     0.01000000    T
cart. step rms                      0.00004189     0.00666667    T
 
Geometry optimization converged

Optimized geometry:

--------
Geometry
--------
Formula: C7H5NO
Atoms
  Index Symbol   x (angstrom)   y (angstrom)   z (angstrom)
      1      C     0.27690575     0.11396838    -0.93058308
      2      C     1.24451894     0.37504496     0.25544873
      3      O     0.75949490    -0.60102495     1.21796119
      4      C     0.86015606    -1.73823348     0.30244422
      5      C     2.35948940    -1.62712709    -0.09003150
      6      C     2.61757721    -0.30854491    -0.12560395
      7      C     3.78093022     0.39021525    -0.50245560
      8      N     4.71310453     1.02087806    -0.81349005
      9      C     0.03571504    -1.19857015    -0.90311964
     10      H    -0.05750966     0.86597311    -1.63538829
     11      H     1.29825668     1.37697516     0.67812276
     12      H     0.53254689    -2.66400144     0.77475719
     13      H     3.01333068    -2.45357811    -0.34151393
     14      H    -0.54576666    -1.81087480    -1.58218805

Total System Charge              0.00000

Performing a single point calculation on the final geometry ...

 *** adf ***



 ===========================
 A T T A C H E D   F I L E S
 ===========================
  
 Restart/tmp/amstmp_c5_fragB_opt_kid0.1904803775/GO1_GOStep11.rkf*** GO1_GOStep11 ***



 ===============================
 M O D E L   P A R A M E T E R S
 ===============================
  
 DENSITY FUNCTIONAL POTENTIAL (scf)
    LDA:                               Exchange only                           == Not Default ==
    Gradient Corrections:              Becke88 LYP                             == Not Default ==

 SPIN  (restricted / unrestr.)
    Molecule:                          Restricted                               
    Fragments:                         Restricted                               

 OTHER ASPECTS
    Relativistic Corrections:          scalar (ZORA,MAPA)                       

    Nuclear Charge Density Model:      Point Charge Nuclei                      
    Core Treatment:                    Frozen Orbital(s)                        

    Hyperfine or Zeeman Interaction:   ---                                      

 Settings for Grimme D3 dispersion correction

      damping                        BJ
      s6                          1.000
      s8                          2.700
      a1                          0.430
      a2                          4.236

 Other (technical) parameters

      alpha                      14.000
      version                         4
 



 ===============
 G E O M E T R Y  ***  3D  Molecule  ***
 ===============
  

 ATOMS
 =====                            X Y Z                    CHARGE
                                (Angstrom)             Nucl     +Core       At.Mass
                       --------------------------    ----------------       -------
    1  C               0.2769    0.1140   -0.9306      6.00      6.00       12.0000
    2  C               1.2445    0.3750    0.2554      6.00      6.00       12.0000
    3  O               0.7595   -0.6010    1.2180      8.00      8.00       15.9949
    4  C               0.8602   -1.7382    0.3024      6.00      6.00       12.0000
    5  C               2.3595   -1.6271   -0.0900      6.00      6.00       12.0000
    6  C               2.6176   -0.3085   -0.1256      6.00      6.00       12.0000
    7  C               3.7809    0.3902   -0.5025      6.00      6.00       12.0000
    8  N               4.7131    1.0209   -0.8135      7.00      7.00       14.0031
    9  C               0.0357   -1.1986   -0.9031      6.00      6.00       12.0000
   10  H              -0.0575    0.8660   -1.6354      1.00      1.00        1.0078
   11  H               1.2983    1.3770    0.6781      1.00      1.00        1.0078
   12  H               0.5325   -2.6640    0.7748      1.00      1.00        1.0078
   13  H               3.0133   -2.4536   -0.3415      1.00      1.00        1.0078
   14  H              -0.5458   -1.8109   -1.5822      1.00      1.00        1.0078


 FRAGMENTS
 =========                                     Atoms in this Fragment     Cart. coord.s (Angstrom)
                                               -------------------------------------------------------
    1  C                                                 1  C            0.2769    0.1140   -0.9306
    2  C                                                 2  C            1.2445    0.3750    0.2554
    3  C                                                 4  C            0.8602   -1.7382    0.3024
    4  C                                                 5  C            2.3595   -1.6271   -0.0900
    5  C                                                 6  C            2.6176   -0.3085   -0.1256
    6  C                                                 7  C            3.7809    0.3902   -0.5025
    7  C                                                 9  C            0.0357   -1.1986   -0.9031
    8  O                                                 3  O            0.7595   -0.6010    1.2180
    9  N                                                 8  N            4.7131    1.0209   -0.8135
   10  H                                                10  H           -0.0575    0.8660   -1.6354
   11  H                                                11  H            1.2983    1.3770    0.6781
   12  H                                                12  H            0.5325   -2.6640    0.7748
   13  H                                                13  H            3.0133   -2.4536   -0.3415
   14  H                                                14  H           -0.5458   -1.8109   -1.5822


 Interatomic Distance Matrix (Angstrom)
 --------------------------------------

   1)     0.000
   2)     1.553   0.000
   3)     2.315   1.454   0.000
   4)     2.300   2.148   1.463   0.000
   5)     2.842   2.318   2.307   1.554   0.000
   6)     2.511   1.580   2.312   2.306   1.344   0.000
   7)     3.541   2.647   3.615   3.703   2.502   1.408   0.000
   8)     4.529   3.687   4.732   4.869   3.616   2.575   1.168   0.000
   9)     1.335   2.298   2.319   1.557   2.499   2.839   4.088   5.178   0.000
  10)     1.084   2.348   3.311   3.373   3.801   3.289   4.030   4.843   2.193   0.000
  11)     2.286   1.089   2.120   3.168   3.277   2.286   2.921   3.743   3.275   2.730
          0.000
  12)     3.270   3.164   2.122   1.090   2.272   3.272   4.638   5.795   2.282   4.315
          4.114   0.000
  13)     3.798   3.389   3.308   2.359   1.083   2.192   2.950   3.897   3.280   4.704
          4.319   2.728   0.000
  14)     2.192   3.371   3.318   2.352   3.271   3.793   4.973   6.022   1.084   2.722
          4.321   2.729   3.824   0.000

 Min. Distance =    1.0834
 Max. Distance =    6.0221



 =====================================
 S Y M M E T R Y ,   E L E C T R O N S
 =====================================
  
 Symmetry: NOSYM

 Irreducible Representations, including subspecies
 -------------------------------------------------
 A


 Configuration of Valence Electrons
 ==================================
 ( determined in the SCF procedure )

 Total:   62

 Net Charge: 0 (Nuclei minus Electrons)

 Aufbau principle for MO occupations will be applied through SCF cycle no.     100
 Thereafter, the program will assign electrons to MOs that are spatially
 similar to the occupied MOs in a "reference" cycle ("KeepOrbitals").
 The reference cycle is always the PREVIOUS cycle: it will evolve with
 the SCF procedure.
 ***************************************************************************************************



                                      ****************************************
                                      *  B U I L D : (Fragments, Functions)  *
                                      ****************************************
  



 =======
 S F O s  ***  (Symmetrized Fragment Orbitals)  ***
 =======
  
 SFOs are linear combinations of (valence) Fragment Orbitals (FOs), such that the SFOs transform as the
 irreducible representations of the (molecular) symmetry group. Each SFO is therefore characterized by
 an irrep of the molecule and by a few (or only one) generating FOs.
 The SFOs constitute a symmetry-adapted basis for the Fock matrix. The MO eigenvector coefficients in
 this basis provide a direct interpretation of the MOs in terms of Frontier Orbital Theory.

 The SFOs are combined with auxiliary Core Functions (CFs) to ensure orthogonalization on the (frozen)
 Core Orbitals (COs). The Core-orthogonalized SFOs (CSFOs) constitute the true Fock basis.

 The FOs, and hence also the (C)SFOs are combinations of the elementary basis functions (BAS). The basis
 functions that participate in the description of the SFOs depend on the irrep. The indices of the
 involved functions are printed below for each irrep.
 (The complete list of primitive basis functions is printed in another section)

 Total nr. of (C)SFOs (summation over all irreps) :   289

 NOTE: a (C)SFO that is defined as a combination of more than one FO is usually NOT normalized.



                                       === A ===
 Nr. of SFOs :  289
 Cartesian basis functions that participate in this irrep (total number =   330) :
      1     2     3     4     5     6     9    12     7    10
     13     8    11    14    15    16    17    18    19    20
     21    22    23    24    25    26    27    28    29    30
     31    32    33    34    35    36    39    42    37    40
     43    38    41    44    45    46    47    48    49    50
     51    52    53    54    55    56    57    58    59    60
     61    62    63    64    65    66    69    72    67    70
     73    68    71    74    75    76    77    78    79    80
     81    82    83    84    85    86    87    88    89    90
     91    92    93    94    95    96    99   102    97   100
    103    98   101   104   105   106   107   108   109   110
    111   112   113   114   115   116   117   118   119   120
    121   122   123   124   125   126   129   132   127   130
    133   128   131   134   135   136   137   138   139   140
    141   142   143   144   145   146   147   148   149   150
    151   152   153   154   155   156   159   162   157   160
    163   158   161   164   165   166   167   168   169   170
    171   172   173   174   175   176   177   178   179   180
    181   182   183   184   185   186   189   192   187   190
    193   188   191   194   195   196   197   198   199   200
    201   202   203   204   205   206   207   208   209   210
    211   212   213   214   215   216   219   222   217   220
    223   218   221   224   225   226   227   228   229   230
    231   232   233   234   235   236   237   238   239   240
    241   242   243   244   245   246   249   252   247   250
    253   248   251   254   255   256   257   258   259   260
    261   262   263   264   265   266   267   268   269   270
    271   272   273   274   275   276   277   278   279   280
    281   282   283   284   285   286   287   288   289   290
    291   292   293   294   295   296   297   298   299   300
    301   302   303   304   305   306   307   308   309   310
    311   312   313   314   315   316   317   318   319   320
    321   322   323   324   325   326   327   328   329   330

    SFO  (index         Fragment          Generating    Expansion in Fragment Orbitals
  indx  incl.CFs)   Occup   Orb.Energy   FragmentType  Coeff.   Orbital     on Fragment
 --------------------------------------------------------------------------------------
     1       1      2.000     -10.066 au  C             1.00      1 S               1
                        (    -273.921 eV)
     2       2      2.000      -0.501 au  C             1.00      2 S               1
                        (     -13.620 eV)
     3       3       --         0.373 au  C             1.00      3 S               1
                        (      10.158 eV)
     4       4       --         5.405 au  C             1.00      4 S               1
                        (     147.073 eV)
     5       5       --        49.848 au  C             1.00      5 S               1
                        (    1356.422 eV)
     6       6      0.667      -0.193 au  C             1.00      1 P:x             1
                        (      -5.239 eV)
     7       7       --         0.169 au  C             1.00      2 P:x             1
                        (       4.589 eV)
     8       8       --         2.013 au  C             1.00      3 P:x             1
                        (      54.789 eV)
     9       9      0.667      -0.193 au  C             1.00      1 P:y             1
                        (      -5.239 eV)
    10      10       --         0.169 au  C             1.00      2 P:y             1
                        (       4.589 eV)
    11      11       --         2.013 au  C             1.00      3 P:y             1
                        (      54.789 eV)
    12      12      0.667      -0.193 au  C             1.00      1 P:z             1
                        (      -5.239 eV)
    13      13       --         0.169 au  C             1.00      2 P:z             1
                        (       4.589 eV)
    14      14       --         2.013 au  C             1.00      3 P:z             1
                        (      54.789 eV)
    15      15       --         1.243 au  C             1.00      1 D:z2            1
                        (      33.824 eV)
    16      16       --         1.243 au  C             1.00      1 D:x2-y2         1
                        (      33.824 eV)
    17      17       --         1.243 au  C             1.00      1 D:xy            1
                        (      33.824 eV)
    18      18       --         1.243 au  C             1.00      1 D:xz            1
                        (      33.824 eV)
    19      19       --         1.243 au  C             1.00      1 D:yz            1
                        (      33.824 eV)
    20      20       --         4.016 au  C             1.00      1 F:z3            1
                        (     109.271 eV)
    21      21       --         4.016 au  C             1.00      1 F:z             1
                        (     109.271 eV)
    22      22       --         4.016 au  C             1.00      1 F:xyz           1
                        (     109.271 eV)
    23      23       --         4.016 au  C             1.00      1 F:z2x           1
                        (     109.271 eV)
    24      24       --         4.016 au  C             1.00      1 F:z2y           1
                        (     109.271 eV)
    25      25       --         4.016 au  C             1.00      1 F:x             1
                        (     109.271 eV)
    26      26       --         4.016 au  C             1.00      1 F:y             1
                        (     109.271 eV)
    27      27      2.000     -10.066 au  C             1.00      1 S               2
                        (    -273.921 eV)
    28      28      2.000      -0.501 au  C             1.00      2 S               2
                        (     -13.620 eV)
    29      29       --         0.373 au  C             1.00      3 S               2
                        (      10.158 eV)
    30      30       --         5.405 au  C             1.00      4 S               2
                        (     147.073 eV)
    31      31       --        49.848 au  C             1.00      5 S               2
                        (    1356.422 eV)
    32      32      0.667      -0.193 au  C             1.00      1 P:x             2
                        (      -5.239 eV)
    33      33       --         0.169 au  C             1.00      2 P:x             2
                        (       4.589 eV)
    34      34       --         2.013 au  C             1.00      3 P:x             2
                        (      54.789 eV)
    35      35      0.667      -0.193 au  C             1.00      1 P:y             2
                        (      -5.239 eV)
    36      36       --         0.169 au  C             1.00      2 P:y             2
                        (       4.589 eV)
    37      37       --         2.013 au  C             1.00      3 P:y             2
                        (      54.789 eV)
    38      38      0.667      -0.193 au  C             1.00      1 P:z             2
                        (      -5.239 eV)
    39      39       --         0.169 au  C             1.00      2 P:z             2
                        (       4.589 eV)
    40      40       --         2.013 au  C             1.00      3 P:z             2
                        (      54.789 eV)
    41      41       --         1.243 au  C             1.00      1 D:z2            2
                        (      33.824 eV)
    42      42       --         1.243 au  C             1.00      1 D:x2-y2         2
                        (      33.824 eV)
    43      43       --         1.243 au  C             1.00      1 D:xy            2
                        (      33.824 eV)
    44      44       --         1.243 au  C             1.00      1 D:xz            2
                        (      33.824 eV)
    45      45       --         1.243 au  C             1.00      1 D:yz            2
                        (      33.824 eV)
    46      46       --         4.016 au  C             1.00      1 F:z3            2
                        (     109.271 eV)
    47      47       --         4.016 au  C             1.00      1 F:z             2
                        (     109.271 eV)
    48      48       --         4.016 au  C             1.00      1 F:xyz           2
                        (     109.271 eV)
    49      49       --         4.016 au  C             1.00      1 F:z2x           2
                        (     109.271 eV)
    50      50       --         4.016 au  C             1.00      1 F:z2y           2
                        (     109.271 eV)
    51      51       --         4.016 au  C             1.00      1 F:x             2
                        (     109.271 eV)
    52      52       --         4.016 au  C             1.00      1 F:y             2
                        (     109.271 eV)
    53      53      2.000     -10.066 au  C             1.00      1 S               3
                        (    -273.921 eV)
    54      54      2.000      -0.501 au  C             1.00      2 S               3
                        (     -13.620 eV)
    55      55       --         0.373 au  C             1.00      3 S               3
                        (      10.158 eV)
    56      56       --         5.405 au  C             1.00      4 S               3
                        (     147.073 eV)
    57      57       --        49.848 au  C             1.00      5 S               3
                        (    1356.422 eV)
    58      58      0.667      -0.193 au  C             1.00      1 P:x             3
                        (      -5.239 eV)
    59      59       --         0.169 au  C             1.00      2 P:x             3
                        (       4.589 eV)
    60      60       --         2.013 au  C             1.00      3 P:x             3
                        (      54.789 eV)
    61      61      0.667      -0.193 au  C             1.00      1 P:y             3
                        (      -5.239 eV)
    62      62       --         0.169 au  C             1.00      2 P:y             3
                        (       4.589 eV)
    63      63       --         2.013 au  C             1.00      3 P:y             3
                        (      54.789 eV)
    64      64      0.667      -0.193 au  C             1.00      1 P:z             3
                        (      -5.239 eV)
    65      65       --         0.169 au  C             1.00      2 P:z             3
                        (       4.589 eV)
    66      66       --         2.013 au  C             1.00      3 P:z             3
                        (      54.789 eV)
    67      67       --         1.243 au  C             1.00      1 D:z2            3
                        (      33.824 eV)
    68      68       --         1.243 au  C             1.00      1 D:x2-y2         3
                        (      33.824 eV)
    69      69       --         1.243 au  C             1.00      1 D:xy            3
                        (      33.824 eV)
    70      70       --         1.243 au  C             1.00      1 D:xz            3
                        (      33.824 eV)
    71      71       --         1.243 au  C             1.00      1 D:yz            3
                        (      33.824 eV)
    72      72       --         4.016 au  C             1.00      1 F:z3            3
                        (     109.271 eV)
    73      73       --         4.016 au  C             1.00      1 F:z             3
                        (     109.271 eV)
    74      74       --         4.016 au  C             1.00      1 F:xyz           3
                        (     109.271 eV)
    75      75       --         4.016 au  C             1.00      1 F:z2x           3
                        (     109.271 eV)
    76      76       --         4.016 au  C             1.00      1 F:z2y           3
                        (     109.271 eV)
    77      77       --         4.016 au  C             1.00      1 F:x             3
                        (     109.271 eV)
    78      78       --         4.016 au  C             1.00      1 F:y             3
                        (     109.271 eV)
    79      79      2.000     -10.066 au  C             1.00      1 S               4
                        (    -273.921 eV)
    80      80      2.000      -0.501 au  C             1.00      2 S               4
                        (     -13.620 eV)
    81      81       --         0.373 au  C             1.00      3 S               4
                        (      10.158 eV)
    82      82       --         5.405 au  C             1.00      4 S               4
                        (     147.073 eV)
    83      83       --        49.848 au  C             1.00      5 S               4
                        (    1356.422 eV)
    84      84      0.667      -0.193 au  C             1.00      1 P:x             4
                        (      -5.239 eV)
    85      85       --         0.169 au  C             1.00      2 P:x             4
                        (       4.589 eV)
    86      86       --         2.013 au  C             1.00      3 P:x             4
                        (      54.789 eV)
    87      87      0.667      -0.193 au  C             1.00      1 P:y             4
                        (      -5.239 eV)
    88      88       --         0.169 au  C             1.00      2 P:y             4
                        (       4.589 eV)
    89      89       --         2.013 au  C             1.00      3 P:y             4
                        (      54.789 eV)
    90      90      0.667      -0.193 au  C             1.00      1 P:z             4
                        (      -5.239 eV)
    91      91       --         0.169 au  C             1.00      2 P:z             4
                        (       4.589 eV)
    92      92       --         2.013 au  C             1.00      3 P:z             4
                        (      54.789 eV)
    93      93       --         1.243 au  C             1.00      1 D:z2            4
                        (      33.824 eV)
    94      94       --         1.243 au  C             1.00      1 D:x2-y2         4
                        (      33.824 eV)
    95      95       --         1.243 au  C             1.00      1 D:xy            4
                        (      33.824 eV)
    96      96       --         1.243 au  C             1.00      1 D:xz            4
                        (      33.824 eV)
    97      97       --         1.243 au  C             1.00      1 D:yz            4
                        (      33.824 eV)
    98      98       --         4.016 au  C             1.00      1 F:z3            4
                        (     109.271 eV)
    99      99       --         4.016 au  C             1.00      1 F:z             4
                        (     109.271 eV)
   100     100       --         4.016 au  C             1.00      1 F:xyz           4
                        (     109.271 eV)
   101     101       --         4.016 au  C             1.00      1 F:z2x           4
                        (     109.271 eV)
   102     102       --         4.016 au  C             1.00      1 F:z2y           4
                        (     109.271 eV)
   103     103       --         4.016 au  C             1.00      1 F:x             4
                        (     109.271 eV)
   104     104       --         4.016 au  C             1.00      1 F:y             4
                        (     109.271 eV)
   105     105      2.000     -10.066 au  C             1.00      1 S               5
                        (    -273.921 eV)
   106     106      2.000      -0.501 au  C             1.00      2 S               5
                        (     -13.620 eV)
   107     107       --         0.373 au  C             1.00      3 S               5
                        (      10.158 eV)
   108     108       --         5.405 au  C             1.00      4 S               5
                        (     147.073 eV)
   109     109       --        49.848 au  C             1.00      5 S               5
                        (    1356.422 eV)
   110     110      0.667      -0.193 au  C             1.00      1 P:x             5
                        (      -5.239 eV)
   111     111       --         0.169 au  C             1.00      2 P:x             5
                        (       4.589 eV)
   112     112       --         2.013 au  C             1.00      3 P:x             5
                        (      54.789 eV)
   113     113      0.667      -0.193 au  C             1.00      1 P:y             5
                        (      -5.239 eV)
   114     114       --         0.169 au  C             1.00      2 P:y             5
                        (       4.589 eV)
   115     115       --         2.013 au  C             1.00      3 P:y             5
                        (      54.789 eV)
   116     116      0.667      -0.193 au  C             1.00      1 P:z             5
                        (      -5.239 eV)
   117     117       --         0.169 au  C             1.00      2 P:z             5
                        (       4.589 eV)
   118     118       --         2.013 au  C             1.00      3 P:z             5
                        (      54.789 eV)
   119     119       --         1.243 au  C             1.00      1 D:z2            5
                        (      33.824 eV)
   120     120       --         1.243 au  C             1.00      1 D:x2-y2         5
                        (      33.824 eV)
   121     121       --         1.243 au  C             1.00      1 D:xy            5
                        (      33.824 eV)
   122     122       --         1.243 au  C             1.00      1 D:xz            5
                        (      33.824 eV)
   123     123       --         1.243 au  C             1.00      1 D:yz            5
                        (      33.824 eV)
   124     124       --         4.016 au  C             1.00      1 F:z3            5
                        (     109.271 eV)
   125     125       --         4.016 au  C             1.00      1 F:z             5
                        (     109.271 eV)
   126     126       --         4.016 au  C             1.00      1 F:xyz           5
                        (     109.271 eV)
   127     127       --         4.016 au  C             1.00      1 F:z2x           5
                        (     109.271 eV)
   128     128       --         4.016 au  C             1.00      1 F:z2y           5
                        (     109.271 eV)
   129     129       --         4.016 au  C             1.00      1 F:x             5
                        (     109.271 eV)
   130     130       --         4.016 au  C             1.00      1 F:y             5
                        (     109.271 eV)
   131     131      2.000     -10.066 au  C             1.00      1 S               6
                        (    -273.921 eV)
   132     132      2.000      -0.501 au  C             1.00      2 S               6
                        (     -13.620 eV)
   133     133       --         0.373 au  C             1.00      3 S               6
                        (      10.158 eV)
   134     134       --         5.405 au  C             1.00      4 S               6
                        (     147.073 eV)
   135     135       --        49.848 au  C             1.00      5 S               6
                        (    1356.422 eV)
   136     136      0.667      -0.193 au  C             1.00      1 P:x             6
                        (      -5.239 eV)
   137     137       --         0.169 au  C             1.00      2 P:x             6
                        (       4.589 eV)
   138     138       --         2.013 au  C             1.00      3 P:x             6
                        (      54.789 eV)
   139     139      0.667      -0.193 au  C             1.00      1 P:y             6
                        (      -5.239 eV)
   140     140       --         0.169 au  C             1.00      2 P:y             6
                        (       4.589 eV)
   141     141       --         2.013 au  C             1.00      3 P:y             6
                        (      54.789 eV)
   142     142      0.667      -0.193 au  C             1.00      1 P:z             6
                        (      -5.239 eV)
   143     143       --         0.169 au  C             1.00      2 P:z             6
                        (       4.589 eV)
   144     144       --         2.013 au  C             1.00      3 P:z             6
                        (      54.789 eV)
   145     145       --         1.243 au  C             1.00      1 D:z2            6
                        (      33.824 eV)
   146     146       --         1.243 au  C             1.00      1 D:x2-y2         6
                        (      33.824 eV)
   147     147       --         1.243 au  C             1.00      1 D:xy            6
                        (      33.824 eV)
   148     148       --         1.243 au  C             1.00      1 D:xz            6
                        (      33.824 eV)
   149     149       --         1.243 au  C             1.00      1 D:yz            6
                        (      33.824 eV)
   150     150       --         4.016 au  C             1.00      1 F:z3            6
                        (     109.271 eV)
   151     151       --         4.016 au  C             1.00      1 F:z             6
                        (     109.271 eV)
   152     152       --         4.016 au  C             1.00      1 F:xyz           6
                        (     109.271 eV)
   153     153       --         4.016 au  C             1.00      1 F:z2x           6
                        (     109.271 eV)
   154     154       --         4.016 au  C             1.00      1 F:z2y           6
                        (     109.271 eV)
   155     155       --         4.016 au  C             1.00      1 F:x             6
                        (     109.271 eV)
   156     156       --         4.016 au  C             1.00      1 F:y             6
                        (     109.271 eV)
   157     157      2.000     -10.066 au  C             1.00      1 S               7
                        (    -273.921 eV)
   158     158      2.000      -0.501 au  C             1.00      2 S               7
                        (     -13.620 eV)
   159     159       --         0.373 au  C             1.00      3 S               7
                        (      10.158 eV)
   160     160       --         5.405 au  C             1.00      4 S               7
                        (     147.073 eV)
   161     161       --        49.848 au  C             1.00      5 S               7
                        (    1356.422 eV)
   162     162      0.667      -0.193 au  C             1.00      1 P:x             7
                        (      -5.239 eV)
   163     163       --         0.169 au  C             1.00      2 P:x             7
                        (       4.589 eV)
   164     164       --         2.013 au  C             1.00      3 P:x             7
                        (      54.789 eV)
   165     165      0.667      -0.193 au  C             1.00      1 P:y             7
                        (      -5.239 eV)
   166     166       --         0.169 au  C             1.00      2 P:y             7
                        (       4.589 eV)
   167     167       --         2.013 au  C             1.00      3 P:y             7
                        (      54.789 eV)
   168     168      0.667      -0.193 au  C             1.00      1 P:z             7
                        (      -5.239 eV)
   169     169       --         0.169 au  C             1.00      2 P:z             7
                        (       4.589 eV)
   170     170       --         2.013 au  C             1.00      3 P:z             7
                        (      54.789 eV)
   171     171       --         1.243 au  C             1.00      1 D:z2            7
                        (      33.824 eV)
   172     172       --         1.243 au  C             1.00      1 D:x2-y2         7
                        (      33.824 eV)
   173     173       --         1.243 au  C             1.00      1 D:xy            7
                        (      33.824 eV)
   174     174       --         1.243 au  C             1.00      1 D:xz            7
                        (      33.824 eV)
   175     175       --         1.243 au  C             1.00      1 D:yz            7
                        (      33.824 eV)
   176     176       --         4.016 au  C             1.00      1 F:z3            7
                        (     109.271 eV)
   177     177       --         4.016 au  C             1.00      1 F:z             7
                        (     109.271 eV)
   178     178       --         4.016 au  C             1.00      1 F:xyz           7
                        (     109.271 eV)
   179     179       --         4.016 au  C             1.00      1 F:z2x           7
                        (     109.271 eV)
   180     180       --         4.016 au  C             1.00      1 F:z2y           7
                        (     109.271 eV)
   181     181       --         4.016 au  C             1.00      1 F:x             7
                        (     109.271 eV)
   182     182       --         4.016 au  C             1.00      1 F:y             7
                        (     109.271 eV)
   183     183      2.000     -18.941 au  O             1.00      1 S               8
                        (    -515.403 eV)
   184     184      2.000      -0.876 au  O             1.00      2 S               8
                        (     -23.838 eV)
   185     185       --         0.791 au  O             1.00      3 S               8
                        (      21.524 eV)
   186     186       --        13.422 au  O             1.00      4 S               8
                        (     365.226 eV)
   187     187       --       121.561 au  O             1.00      5 S               8
                        (    3307.838 eV)
   188     188      1.333      -0.331 au  O             1.00      1 P:x             8
                        (      -9.020 eV)
   189     189       --         0.347 au  O             1.00      2 P:x             8
                        (       9.437 eV)
   190     190       --         3.820 au  O             1.00      3 P:x             8
                        (     103.939 eV)
   191     191      1.333      -0.331 au  O             1.00      1 P:y             8
                        (      -9.020 eV)
   192     192       --         0.347 au  O             1.00      2 P:y             8
                        (       9.437 eV)
   193     193       --         3.820 au  O             1.00      3 P:y             8
                        (     103.939 eV)
   194     194      1.333      -0.331 au  O             1.00      1 P:z             8
                        (      -9.020 eV)
   195     195       --         0.347 au  O             1.00      2 P:z             8
                        (       9.437 eV)
   196     196       --         3.820 au  O             1.00      3 P:z             8
                        (     103.939 eV)
   197     197       --         1.071 au  O             1.00      1 D:z2            8
                        (      29.134 eV)
   198     198       --         1.071 au  O             1.00      1 D:x2-y2         8
                        (      29.134 eV)
   199     199       --         1.071 au  O             1.00      1 D:xy            8
                        (      29.134 eV)
   200     200       --         1.071 au  O             1.00      1 D:xz            8
                        (      29.134 eV)
   201     201       --         1.071 au  O             1.00      1 D:yz            8
                        (      29.134 eV)
   202     202       --         3.359 au  O             1.00      1 F:z3            8
                        (      91.410 eV)
   203     203       --         3.359 au  O             1.00      1 F:z             8
                        (      91.410 eV)
   204     204       --         3.359 au  O             1.00      1 F:xyz           8
                        (      91.410 eV)
   205     205       --         3.359 au  O             1.00      1 F:z2x           8
                        (      91.410 eV)
   206     206       --         3.359 au  O             1.00      1 F:z2y           8
                        (      91.410 eV)
   207     207       --         3.359 au  O             1.00      1 F:x             8
                        (      91.410 eV)
   208     208       --         3.359 au  O             1.00      1 F:y             8
                        (      91.410 eV)
   209     209      2.000     -14.160 au  N             1.00      1 S               9
                        (    -385.319 eV)
   210     210      2.000      -0.678 au  N             1.00      2 S               9
                        (     -18.450 eV)
   211     211       --         0.517 au  N             1.00      3 S               9
                        (      14.073 eV)
   212     212       --         6.872 au  N             1.00      4 S               9
                        (     186.990 eV)
   213     213       --        63.432 au  N             1.00      5 S               9
                        (    1726.082 eV)
   214     214      1.000      -0.260 au  N             1.00      1 P:x             9
                        (      -7.062 eV)
   215     215       --         0.281 au  N             1.00      2 P:x             9
                        (       7.649 eV)
   216     216       --         3.275 au  N             1.00      3 P:x             9
                        (      89.105 eV)
   217     217      1.000      -0.260 au  N             1.00      1 P:y             9
                        (      -7.062 eV)
   218     218       --         0.281 au  N             1.00      2 P:y             9
                        (       7.649 eV)
   219     219       --         3.275 au  N             1.00      3 P:y             9
                        (      89.105 eV)
   220     220      1.000      -0.260 au  N             1.00      1 P:z             9
                        (      -7.062 eV)
   221     221       --         0.281 au  N             1.00      2 P:z             9
                        (       7.649 eV)
   222     222       --         3.275 au  N             1.00      3 P:z             9
                        (      89.105 eV)
   223     223       --         1.250 au  N             1.00      1 D:z2            9
                        (      34.005 eV)
   224     224       --         1.250 au  N             1.00      1 D:x2-y2         9
                        (      34.005 eV)
   225     225       --         1.250 au  N             1.00      1 D:xy            9
                        (      34.005 eV)
   226     226       --         1.250 au  N             1.00      1 D:xz            9
                        (      34.005 eV)
   227     227       --         1.250 au  N             1.00      1 D:yz            9
                        (      34.005 eV)
   228     228       --         4.013 au  N             1.00      1 F:z3            9
                        (     109.190 eV)
   229     229       --         4.013 au  N             1.00      1 F:z             9
                        (     109.190 eV)
   230     230       --         4.013 au  N             1.00      1 F:xyz           9
                        (     109.190 eV)
   231     231       --         4.013 au  N             1.00      1 F:z2x           9
                        (     109.190 eV)
   232     232       --         4.013 au  N             1.00      1 F:z2y           9
                        (     109.190 eV)
   233     233       --         4.013 au  N             1.00      1 F:x             9
                        (     109.190 eV)
   234     234       --         4.013 au  N             1.00      1 F:y             9
                        (     109.190 eV)
   235     235      1.000      -0.240 au  H             1.00      1 S              10
                        (      -6.532 eV)
   236     236       --         0.088 au  H             1.00      2 S              10
                        (       2.394 eV)
   237     237       --         1.502 au  H             1.00      3 S              10
                        (      40.869 eV)
   238     238       --         0.406 au  H             1.00      1 P:x            10
                        (      11.051 eV)
   239     239       --         0.406 au  H             1.00      1 P:y            10
                        (      11.051 eV)
   240     240       --         0.406 au  H             1.00      1 P:z            10
                        (      11.051 eV)
   241     241       --         2.569 au  H             1.00      1 D:z2           10
                        (      69.917 eV)
   242     242       --         2.569 au  H             1.00      1 D:x2-y2        10
                        (      69.917 eV)
   243     243       --         2.569 au  H             1.00      1 D:xy           10
                        (      69.917 eV)
   244     244       --         2.569 au  H             1.00      1 D:xz           10
                        (      69.917 eV)
   245     245       --         2.569 au  H             1.00      1 D:yz           10
                        (      69.917 eV)
   246     246      1.000      -0.240 au  H             1.00      1 S              11
                        (      -6.532 eV)
   247     247       --         0.088 au  H             1.00      2 S              11
                        (       2.394 eV)
   248     248       --         1.502 au  H             1.00      3 S              11
                        (      40.869 eV)
   249     249       --         0.406 au  H             1.00      1 P:x            11
                        (      11.051 eV)
   250     250       --         0.406 au  H             1.00      1 P:y            11
                        (      11.051 eV)
   251     251       --         0.406 au  H             1.00      1 P:z            11
                        (      11.051 eV)
   252     252       --         2.569 au  H             1.00      1 D:z2           11
                        (      69.917 eV)
   253     253       --         2.569 au  H             1.00      1 D:x2-y2        11
                        (      69.917 eV)
   254     254       --         2.569 au  H             1.00      1 D:xy           11
                        (      69.917 eV)
   255     255       --         2.569 au  H             1.00      1 D:xz           11
                        (      69.917 eV)
   256     256       --         2.569 au  H             1.00      1 D:yz           11
                        (      69.917 eV)
   257     257      1.000      -0.240 au  H             1.00      1 S              12
                        (      -6.532 eV)
   258     258       --         0.088 au  H             1.00      2 S              12
                        (       2.394 eV)
   259     259       --         1.502 au  H             1.00      3 S              12
                        (      40.869 eV)
   260     260       --         0.406 au  H             1.00      1 P:x            12
                        (      11.051 eV)
   261     261       --         0.406 au  H             1.00      1 P:y            12
                        (      11.051 eV)
   262     262       --         0.406 au  H             1.00      1 P:z            12
                        (      11.051 eV)
   263     263       --         2.569 au  H             1.00      1 D:z2           12
                        (      69.917 eV)
   264     264       --         2.569 au  H             1.00      1 D:x2-y2        12
                        (      69.917 eV)
   265     265       --         2.569 au  H             1.00      1 D:xy           12
                        (      69.917 eV)
   266     266       --         2.569 au  H             1.00      1 D:xz           12
                        (      69.917 eV)
   267     267       --         2.569 au  H             1.00      1 D:yz           12
                        (      69.917 eV)
   268     268      1.000      -0.240 au  H             1.00      1 S              13
                        (      -6.532 eV)
   269     269       --         0.088 au  H             1.00      2 S              13
                        (       2.394 eV)
   270     270       --         1.502 au  H             1.00      3 S              13
                        (      40.869 eV)
   271     271       --         0.406 au  H             1.00      1 P:x            13
                        (      11.051 eV)
   272     272       --         0.406 au  H             1.00      1 P:y            13
                        (      11.051 eV)
[...]
                                   18.74%     2 S               2.394  0.00    11 H
                                   18.26%     2 S               2.394  0.00    10 H
                                  -18.18%     2 P:y             4.589  0.00     2 C
                                  -11.36%     2 P:y             4.589  0.00     1 C
                                   -9.28%     2 P:z             4.589  0.00     1 C
                                    8.99%     2 S               2.394  0.00    14 H
                                   -8.99%     2 P:y             4.589  0.00     7 C
                                    5.33%     1 S              -6.532  1.00    12 H
                                    4.81%     1 P:y            -5.239  0.67     3 C
                                   -4.52%     2 P:y             4.589  0.00     3 C
                                    2.99%     1 P:z            -5.239  0.67     6 C
                                   -2.89%     2 P:z             4.589  0.00     7 C
                                   -2.74%     2 P:x             4.589  0.00     7 C
                                   -2.74%     2 P:x             4.589  0.00     1 C
                                    2.73%     2 S             -13.620  2.00     1 C
                                   -2.72%     2 P:z             4.589  0.00     2 C
                                    2.54%     2 S               2.394  0.00    12 H
                                   -2.13%     1 P:z            -5.239  0.67     1 C
                                    2.02%     3 S              40.869  0.00    10 H
                                    2.02%     1 P:z            -7.062  1.00     9 N
                                    2.01%     1 S              -6.532  1.00    13 H
                                    1.96%     1 P:x            -5.239  0.67     2 C
                                   -1.95%     1 P:y            -5.239  0.67     7 C
                                    1.57%     3 S              40.869  0.00    14 H
                                    1.51%     2 P:y             4.589  0.00     5 C
                                    1.25%     1 P:z            -5.239  0.67     3 C
                                    1.21%     2 P:y             4.589  0.00     6 C
                                    1.19%     3 S              40.869  0.00    11 H
                                    1.18%     2 S               2.394  0.00    13 H
                                    1.14%     2 P:x             4.589  0.00     5 C
                                   -1.08%     2 P:z             4.589  0.00     6 C
                                    1.00%     1 P:y            -5.239  0.67     1 C
       1.520  0.00    41 A         36.00%     1 P:z            -5.239  0.67     6 C
                                   18.34%     1 P:z            -7.062  1.00     9 N
                                   14.86%     1 P:z            -5.239  0.67     5 C
                                   -7.17%     2 P:z             4.589  0.00     5 C
                                    7.01%     1 P:x            -5.239  0.67     1 C
                                    6.38%     1 S              -6.532  1.00    14 H
                                    5.44%     2 S               2.394  0.00    10 H
                                    5.16%     1 P:x            -5.239  0.67     4 C
                                   -4.70%     2 P:z             7.649  0.00     9 N
                                    4.34%     1 P:z            -5.239  0.67     4 C
                                   -4.32%     2 P:x             4.589  0.00     7 C
                                   -4.08%     2 P:x             4.589  0.00     5 C
                                    3.08%     1 P:x            -5.239  0.67     6 C
                                    2.88%     2 P:z             4.589  0.00     4 C
                                    2.32%     1 S              -6.532  1.00    10 H
                                    2.17%     1 P:x            -5.239  0.67     5 C
                                   -2.15%     2 P:z             4.589  0.00     6 C
                                    2.07%     1 P:z            -5.239  0.67     2 C
                                   -2.07%     2 P:z             4.589  0.00     1 C
                                    2.05%     2 P:x             4.589  0.00     1 C
                                    1.98%     2 S             -13.620  2.00     3 C
                                    1.87%     1 P:y            -9.020  1.33     8 O
                                    1.87%     2 S               2.394  0.00    14 H
                                   -1.76%     2 P:z             4.589  0.00     2 C
                                   -1.60%     3 S              10.158  0.00     3 C
                                    1.51%     1 P:x            -7.062  1.00     9 N
                                    1.50%     2 P:x             4.589  0.00     4 C
                                   -1.27%     2 P:y             4.589  0.00     1 C
                                   -1.08%     2 P:z             4.589  0.00     7 C
       1.835  0.00    42 A         22.35%     2 P:x             4.589  0.00     5 C
                                   12.53%     2 P:y             4.589  0.00     4 C
                                    9.28%     2 P:x             4.589  0.00     6 C
                                   -8.76%     3 S              14.073  0.00     9 N
                                    8.70%     1 P:x            -5.239  0.67     2 C
                                    8.22%     2 P:x             4.589  0.00     2 C
                                    7.95%     1 S              -6.532  1.00    11 H
                                    7.28%     1 P:y            -5.239  0.67     3 C
                                    7.22%     2 P:y             4.589  0.00     5 C
                                   -6.91%     3 S              10.158  0.00     5 C
                                    6.28%     1 S              -6.532  1.00    12 H
                                    5.67%     2 S             -13.620  2.00     5 C
                                    5.08%     1 P:x            -5.239  0.67     5 C
                                   -5.04%     2 S             -13.620  2.00     6 C
                                    4.77%     1 P:y            -5.239  0.67     4 C
                                   -4.64%     3 S              10.158  0.00     6 C
                                    3.99%     2 S             -13.620  2.00     4 C
                                   -3.42%     3 S              10.158  0.00     4 C
                                    3.21%     1 S              -6.532  1.00    13 H
                                    2.63%     1 P:x            -5.239  0.67     4 C
                                    2.43%     1 P:y            -5.239  0.67     6 C
                                    1.89%     2 S             -13.620  2.00     2 C
                                   -1.83%     2 S               2.394  0.00    12 H
                                    1.73%     2 P:x             4.589  0.00     4 C
                                    1.70%     1 P:y            -5.239  0.67     5 C
                                   -1.69%     2 P:y             9.437  0.00     8 O
                                    1.67%     1 P:x            -5.239  0.67     6 C
                                    1.67%     1 P:y            11.051  0.00    13 H
                                   -1.57%     2 P:x             4.589  0.00     3 C
                                    1.39%     2 P:x             4.589  0.00     1 C
                                   -1.37%     2 P:z             4.589  0.00     1 C
                                   -1.34%     3 S              10.158  0.00     2 C
                                    1.30%     2 P:y             4.589  0.00     6 C
                                    1.30%     1 P:x            -5.239  0.67     7 C
                                    1.21%     1 P:z            -5.239  0.67     1 C

 Energy gradients wrt nuclear displacements
 ==========================================

     Atom      Cartesian (a.u./angstrom)
                 X         Y         Z
 ----------------------------------------
     1 C     0.000060  0.000090  0.000004
     2 C     0.000003  0.000053 -0.000025
     3 O    -0.000080  0.000037  0.000053
     4 C    -0.000045 -0.000036 -0.000136
     5 C    -0.000060 -0.000014 -0.000006
     6 C     0.000078 -0.000089  0.000004
     7 C    -0.000005 -0.000121  0.000096
     8 N     0.000116 -0.000107  0.000097
     9 C     0.000027  0.000043 -0.000007
    10 H     0.000094  0.000093 -0.000003
    11 H     0.000059 -0.000022  0.000046
    12 H    -0.000122  0.000030 -0.000052
    13 H    -0.000101 -0.000072  0.000003
    14 H    -0.000023  0.000114 -0.000073
 ----------------------------------------



 =======================================================================
 Electrostatic potential at the Nuclei due to electrons and other nuclei
 =======================================================================
  
         Atom                  Potential
         ----                  ---------
     1)   C                  14.76386519
     2)   C                  14.69423212
     3)   O                  22.37663016
     4)   C                  14.69549606
     5)   C                  14.74669676
     6)   C                  14.73178148
     7)   C                  14.75684530
     8)   N                  18.43288432
     9)   C                  14.76341633
    10)   H                   1.06927620
    11)   H                   1.07522737
    12)   H                   1.07451990
    13)   H                   1.05685923
    14)   H                   1.06848554
 Mulliken charges used for AMS results%charges...


    =====================
     CALCULATION RESULTS
    =====================

Energy (hartree)            -3.25921600

Gradients (hartree/bohr)
  Index   Atom            d/dx            d/dy            d/dz
      1      C    0.0000317402    0.0000475750    0.0000020111
      2      C    0.0000014231    0.0000279690   -0.0000130251
      3      O   -0.0000422211    0.0000198017    0.0000279357
      4      C   -0.0000236573   -0.0000190162   -0.0000718474
      5      C   -0.0000319389   -0.0000071749   -0.0000030987
      6      C    0.0000413476   -0.0000472714    0.0000020257
      7      C   -0.0000028321   -0.0000641390    0.0000509942
      8      N    0.0000611693   -0.0000566785    0.0000512630
      9      C    0.0000140960    0.0000229639   -0.0000037438
     10      H    0.0000496003    0.0000492967   -0.0000018449
     11      H    0.0000310834   -0.0000115488    0.0000243623
     12      H   -0.0000643014    0.0000157311   -0.0000275520
     13      H   -0.0000533705   -0.0000378807    0.0000013839
     14      H   -0.0000121387    0.0000603720   -0.0000388638


--------------
Atomic charges
--------------
  Index   Atom    Charge
      1      C    0.2331
      2      C    0.4872
      3      O   -0.5256
      4      C    0.4759
      5      C    0.2585
      6      C   -0.0233
      7      C    0.1102
      8      N   -0.2654
      9      C    0.2250
     10      H   -0.2080
     11      H   -0.1842
     12      H   -0.1999
     13      H   -0.1738
     14      H   -0.2097


Dipole moment vector    (Debye):    -3.22619603   -2.53034309   -0.78407001
              magnitude (Debye):     4.17441526


-----------------------
Molecular orbitals info
-----------------------
n orbitals:              289
n spin:                    1

Note: only printing virtual orbitals with
      energy smaller than HOMO + 100. eV

HOMO (eV):              -6.0054
LUMO (eV):              -2.9715
HOMO-LUMO gap (eV):      3.0340

   Index   Energy (eV)    Occupation
     181       93.7910         0.000       
     180       93.0302         0.000       
     179       92.4617         0.000       
     178       91.3009         0.000       
     177       91.0243         0.000       
     176       89.8412         0.000       
     175       89.5297         0.000       
     174       88.2707         0.000       
     173       87.7042         0.000       
     172       86.3713         0.000       
     171       85.8395         0.000       
     170       84.6026         0.000       
     169       83.8529         0.000       
     168       83.0325         0.000       
     167       82.7645         0.000       
     166       80.9997         0.000       
     165       80.0795         0.000       
     164       79.4969         0.000       
     163       78.4308         0.000       
     162       77.8315         0.000       
     161       76.9631         0.000       
     160       76.4008         0.000       
     159       75.7556         0.000       
     158       75.5362         0.000       
     157       74.5470         0.000       
     156       73.0190         0.000       
     155       72.6030         0.000       
     154       72.0835         0.000       
     153       71.3609         0.000       
     152       69.7336         0.000       
     151       68.7376         0.000       
     150       67.0697         0.000       
     149       65.4036         0.000       
     148       64.8274         0.000       
     147       64.2381         0.000       
     146       63.3839         0.000       
     145       61.9987         0.000       
     144       61.8722         0.000       
     143       61.2125         0.000       
     142       60.5669         0.000       
     141       59.9217         0.000       
     140       59.5822         0.000       
     139       58.7633         0.000       
     138       58.0171         0.000       
     137       57.6515         0.000       
     136       56.8191         0.000       
     135       55.5997         0.000       
     134       54.8338         0.000       
     133       54.5895         0.000       
     132       53.9865         0.000       
     131       52.9257         0.000       
     130       52.4788         0.000       
     129       50.9215         0.000       
     128       50.7063         0.000       
     127       48.6844         0.000       
     126       46.9579         0.000       
     125       46.4941         0.000       
     124       45.6088         0.000       
     123       44.6195         0.000       
     122       44.1975         0.000       
     121       44.0056         0.000       
     120       43.5043         0.000       
     119       43.0083         0.000       
     118       42.3526         0.000       
     117       41.5677         0.000       
     116       41.0872         0.000       
     115       40.9439         0.000       
     114       40.5018         0.000       
     113       39.9248         0.000       
     112       38.7547         0.000       
     111       38.6028         0.000       
     110       37.3024         0.000       
     109       36.7548         0.000       
     108       36.1006         0.000       
     107       35.4094         0.000       
     106       35.0116         0.000       
     105       34.6652         0.000       
     104       34.0472         0.000       
     103       33.2045         0.000       
     102       32.2338         0.000       
     101       31.4276         0.000       
     100       30.7456         0.000       
      99       30.2699         0.000       
      98       29.3676         0.000       
      97       29.0725         0.000       
      96       28.8495         0.000       
      95       28.1866         0.000       
      94       28.0145         0.000       
      93       27.0556         0.000       
      92       26.5206         0.000       
      91       26.3874         0.000       
      90       25.2825         0.000       
      89       25.1703         0.000       
      88       24.6377         0.000       
      87       23.9846         0.000       
      86       22.6133         0.000       
      85       21.7459         0.000       
      84       20.7925         0.000       
      83       20.5249         0.000       
      82       19.9152         0.000       
      81       19.3462         0.000       
      80       18.3604         0.000       
      79       17.8852         0.000       
      78       17.4677         0.000       
      77       17.0110         0.000       
      76       16.7051         0.000       
      75       15.6494         0.000       
      74       14.9160         0.000       
      73       14.8240         0.000       
      72       14.4679         0.000       
      71       13.2470         0.000       
      70       12.6971         0.000       
      69       12.0256         0.000       
      68       11.5794         0.000       
      67       11.1982         0.000       
      66       10.5789         0.000       
      65       10.1380         0.000       
      64        9.7153         0.000       
      63        9.1806         0.000       
      62        8.5649         0.000       
      61        8.3946         0.000       
      60        8.2604         0.000       
      59        8.0637         0.000       
      58        7.6672         0.000       
      57        7.4054         0.000       
      56        6.9589         0.000       
      55        6.5740         0.000       
      54        6.0949         0.000       
      53        5.9772         0.000       
      52        5.6353         0.000       
      51        5.3188         0.000       
      50        4.9213         0.000       
      49        4.6636         0.000       
      48        4.3922         0.000       
      47        3.9590         0.000       
      46        3.6630         0.000       
      45        3.1517         0.000       
      44        3.0127         0.000       
      43        2.6856         0.000       
      42        1.8348         0.000       
      41        1.5203         0.000       
      40        1.0810         0.000       
      39        0.9882         0.000       
      38        0.7878         0.000       
      37        0.4149         0.000       
      36        0.2833         0.000       
      35       -0.3515         0.000       
      34       -0.6324         0.000       
      33       -1.3970         0.000       
      32       -2.9715         0.000 < LUMO
      31       -6.0054         2.000 < HOMO
      30       -6.9766         2.000       
      29       -7.1413         2.000       
      28       -8.3820         2.000       
      27       -8.6562         2.000       
      26       -8.8444         2.000       
      25       -9.3091         2.000       
      24       -9.9026         2.000       
      23      -10.1079         2.000       
      22      -10.4974         2.000       
      21      -10.8648         2.000       
      20      -11.3704         2.000       
      19      -12.8747         2.000       
      18      -13.9275         2.000       
      17      -14.2059         2.000       
      16      -15.0830         2.000       
      15      -16.1170         2.000       
      14      -18.8097         2.000       
      13      -19.6607         2.000       
      12      -20.8457         2.000       
      11      -22.5493         2.000       
      10      -26.7556         2.000       
       9     -270.7464         2.000       
       8     -270.7685         2.000       
       7     -271.2030         2.000       
       6     -271.2364         2.000       
       5     -271.5560         2.000       
       4     -272.4534         2.000       
       3     -272.4974         2.000       
       2     -381.6755         2.000       
       1     -512.1326         2.000       

AMS application finished. Exiting.
NORMAL TERMINATION
     Total cpu time:     364.74
  Total system time:       1.48
 Total elapsed time:     368.30
NORMAL TERMINATION
