srun: Job 662084 step creation temporarily disabled, retrying (Requested nodes are busy)
srun: Job 662084 step creation still disabled, retrying (Requested nodes are busy)
srun: Job 662084 step creation still disabled, retrying (Requested nodes are busy)
srun: Job 662084 step creation still disabled, retrying (Requested nodes are busy)
srun: Job 662084 step creation still disabled, retrying (Requested nodes are busy)
srun: Job 662084 step creation still disabled, retrying (Requested nodes are busy)
srun: Job 662084 step creation still disabled, retrying (Requested nodes are busy)
srun: Job 662084 step creation still disabled, retrying (Requested nodes are busy)
srun: Step created for StepId=662084.6

 *******************************************************************************
 *                                                                             *
 *  --------------------------------                                           *
 *   Amsterdam Modeling Suite (AMS)              2026.103                      *
 *  --------------------------------                                           *
 *                                               r260501 2026-05-01 873454b5   *
 *                                                                             *
 *                                                                             *
 *                              =================                              *
 *                              |               |                              *
 *                              |     A M S     |                              *
 *                              |               |                              *
 *                              =================                              *
 *                                                                             *
 *                                                                             *
 *   Online information and documentation:  https://www.scm.com/support/       *
 *   E-mail:  support@scm.com   info@scm.com                                   *
 *                                                                             *
 *   Scientific publications using AMS results must be properly referenced     *
 *   See the User Manuals (or the web site) for recommended citations          *
 *   The terms and conditions of the End User License Agreement apply to       *
 *   the use of AMS, https://www.scm.com/license-terms/                        *
 *                                                                             *
 **********************  x86_64_linux_intel / intelmpi  ************************
 
 Licensed to: Jong-June Jeon / University of Seoul 2026-06-02 13:44:15
 SCM User ID: u30731
  
 AMS 2026.103  RunTime: Jun02-2026 22:29:06  ShM Nodes: 1  Procs: 1

 AMS jobname: c4_fragA_opt
 AMS jobid  : 2069189083

 Start   directory: /gpfs/home1/yeseo1ee/projects/eda-asm-prediction/ADF_800/adf_outputs/batch_000/dipolar_000597/
 Results directory: /gpfs/home1/yeseo1ee/projects/eda-asm-prediction/ADF_800/adf_outputs/batch_000/dipolar_000597/c4_fragA_opt.results/
 Scratch directory: /tmp/amstmp_c4_fragA_opt_kid0.2069189083/

 RNG seed: -1714491336 -1046461004 1243344631 -1468814468 -652097713 -654521688 -756066923 -1051640716



                      ************************************************************************
                      *  ADF 2026.103  RunTime: Jun02-2026 22:29:06  ShM Nodes: 1  Procs: 1  *
                      ************************************************************************
  

       ***************************
       *  GEOMETRY OPTIMIZATION  *
       ***************************

Optimization Method                    Quasi Newton
Optimization Coordinates               Delocalized Coordinates
Optimize lattice                       F
 
 ------------------------------------------------------
 Convergence criteria (Hartree,Angstrom)
 ------------------------------------------------------
 Maximum gradient               0.000100000000
 Maximum rms gradient           0.000066666667
 Maximum step allowed           0.010000000000
 Maximum rms step allowed       0.006666666667
 Maximum energy change allowe   0.000200000000
 Maximum stress energy allowe   0.000500000000
 
Initial model Hessian                  Automatic Hessian
 
------------------------------------
Quasi-Newton Optimizer Parameters
------------------------------------
Hessian Update Method                  BFGS
Maximum number of steps                  200
First GDIIS cycle                          0
Maximum GDIIS vectors                      0
Trust radius (bohr)                        0.200000
Trust radius varies                        T
Constraints converged at all steps         T
Use projector                              T
 
 Rigid motions settings for: old optimizer
 Atomic rotations (x,y,z):     T T T
 Atomic translations (x,y,z):  T T T
 Tolerance:                  1.000000000000000E-006

--------
Geometry
--------
Formula: C7H8N4O
Atoms
  Index Symbol   x (angstrom)   y (angstrom)   z (angstrom)
      1      C     3.36564000     1.11114000     2.41518000
      2      N     2.64166000     0.27216000     1.47550000
      3      C     2.26460000     0.76156000     0.27665000
      4      O     2.60634000     1.89234000    -0.10312000
      5      C     1.40244000    -0.05864000    -0.61702000
      6      C     1.26788000     0.47418000    -1.92677000
      7      N     1.17548000     0.92510000    -2.99723000
      8      N     1.12247000    -1.37624000    -0.39076000
      9      C    -0.00217000    -2.04899000    -0.77951000
     10      C    -0.18109000    -3.44504000    -0.24238000
     11      C    -0.48135000    -1.85916000    -2.12315000
     12      N    -0.93062000    -1.79159000    -3.19328000
     13      H     2.74892000     1.95755000     2.76035000
     14      H     3.65071000     0.50200000     3.28146000
     15      H     4.27453000     1.51731000     1.94936000
     16      H     2.21978000    -0.56833000     1.85130000
     17      H     1.57037000    -1.79464000     0.42313000
     18      H     0.08457000    -3.47596000     0.82390000
     19      H     0.45291000    -4.16049000    -0.79101000
     20      H    -1.22777000    -3.75476000    -0.35830000

Total System Charge              0.00000


----------------
ADF Engine Input
----------------
 
   Basis
     Type TZ2P
     Core None
   End
   XC
     GGA BLYP
     Dispersion GRIMME3 BJDAMP
   End
   Symmetry NOSYM
   NumericalQuality Normal
   Unrestricted No
   SCF
     Iterations 200
     Converge 1.0e-6
   End
   Save TAPE21
 

 Title: *** (NO TITLE) ***

Challenging geometry: could not add a dihedral for atom    7
Challenging geometry: could not add a dihedral for atom   12
 Using automatic Hessian for delocalized coordinates.
 *** GO1_GOStep1 ***

 Energy gradients wrt nuclear displacements
 ==========================================

     Atom      Cartesian (a.u./angstrom)
                 X         Y         Z
 ----------------------------------------
     1 C    -0.012500 -0.012438 -0.017007
     2 N    -0.003793  0.029473 -0.030216
     3 C     0.008559 -0.022904  0.042906
     4 O    -0.000053  0.002003 -0.006276
     5 C    -0.067261 -0.008735  0.027518
     6 C     0.016839  0.000668 -0.013640
     7 N    -0.000005 -0.003068  0.007173
     8 N     0.065631 -0.038924 -0.029788
     9 C    -0.027796  0.052336  0.064111
    10 C    -0.000433  0.003484 -0.004678
    11 C     0.000453 -0.010251 -0.049501
    12 N     0.011249  0.001346  0.018776
    13 H    -0.003290  0.003069  0.002586
    14 H     0.000614 -0.001043  0.002425
    15 H     0.006021  0.002228 -0.000790
    16 H     0.002805 -0.001381 -0.002421
    17 H     0.001129 -0.002960 -0.005874
    18 H     0.002120  0.003631  0.000020
    19 H     0.004041  0.003197 -0.003229
    20 H    -0.004329  0.000269 -0.002093
 ----------------------------------------
 
----------------------------------------------------------------------
Geometry Convergence after Step   1       (Hartree/Angstrom,Angstrom)
----------------------------------------------------------------------
current energy                               -4.55227387 Hartree
energy change                      -4.55227387     0.00020000    F
constrained gradient max            0.06729503     0.00010000    F
constrained gradient rms            0.02174993     0.00006667    F
gradient max                        0.06729450
gradient rms                        0.02174993
cart. step max                      0.15143163     0.01000000    F
cart. step rms                      0.06807360     0.00666667    F
 

--------
Geometry
--------
Formula: C7H8N4O
Atoms
  Index Symbol   x (angstrom)   y (angstrom)   z (angstrom)
      1      C     3.34480614     1.03179442     2.44427806
      2      N     2.59791812     0.25508008     1.45886834
      3      C     2.28929920     0.79448798     0.23978181
      4      O     2.70693710     1.91007117    -0.10267671
      5      C     1.40932236     0.02613356    -0.68669072
      6      C     1.29764758     0.56539708    -1.99444995
      7      N     1.22762123     1.02294764    -3.06681009
      8      N     1.06585955    -1.28319025    -0.44207100
      9      C    -0.01791847    -2.04767656    -0.80605388
     10      C    -0.10712904    -3.42707641    -0.19291633
     11      C    -0.55527130    -1.94014479    -2.12635350
     12      N    -1.07278926    -1.94302163    -3.17592733
     13      H     2.77505929     1.91027325     2.78316654
     14      H     3.55990893     0.39094028     3.30640589
     15      H     4.29011381     1.38363717     2.01432947
     16      H     2.10947358    -0.56205546     1.80541834
     17      H     1.51402123    -1.67254556     0.38748189
     18      H     0.17436739    -3.39372478     0.86904490
     19      H     0.55101590    -4.14255343    -0.71053546
     20      H    -1.13496334    -3.79927373    -0.26999026

Total System Charge              0.00000

 *** GO1_GOStep2 ***

 Energy gradients wrt nuclear displacements
 ==========================================

     Atom      Cartesian (a.u./angstrom)
                 X         Y         Z
 ----------------------------------------
     1 C    -0.007409 -0.006933 -0.009987
     2 N     0.000629  0.016963 -0.010872
     3 C     0.002856 -0.017333  0.018190
     4 O     0.001795  0.007951 -0.004897
     5 C    -0.041807  0.013092  0.024575
     6 C     0.016559 -0.000711 -0.004374
     7 N     0.000823  0.002194 -0.002419
     8 N     0.052230 -0.027408 -0.027974
     9 C    -0.040598  0.028718  0.050993
    10 C     0.000566 -0.000549 -0.006123
    11 C     0.009677 -0.015702 -0.015546
    12 N    -0.002299  0.000675 -0.006725
    13 H    -0.001475  0.001963  0.001883
    14 H     0.000511 -0.000235  0.002039
    15 H     0.003110  0.001114  0.000081
    16 H     0.002677 -0.003980 -0.002825
    17 H     0.000581 -0.002566 -0.002681
    18 H     0.001365  0.002264 -0.000359
    19 H     0.002171  0.000732 -0.001423
    20 H    -0.001962 -0.000249 -0.001557
 ----------------------------------------

 dE(predicted):    -0.93681E-02, dE(actual):    -0.81973E-02, Trust radius:    0.400000, all in a.u.
 
----------------------------------------------------------------------
Geometry Convergence after Step   2       (Hartree/Angstrom,Angstrom)
----------------------------------------------------------------------
current energy                               -4.56047120 Hartree
energy change                      -0.00819733     0.00020000    F
constrained gradient max            0.05223022     0.00010000    F
constrained gradient rms            0.01541853     0.00006667    F
gradient max                        0.05223003
gradient rms                        0.01541853
cart. step max                      0.10145266     0.01000000    F
cart. step rms                      0.04031987     0.00666667    F
 

--------
Geometry
--------
Formula: C7H8N4O
Atoms
  Index Symbol   x (angstrom)   y (angstrom)   z (angstrom)
      1      C     3.33373524     1.02428764     2.46440062
      2      N     2.56397069     0.26146619     1.47611808
      3      C     2.32290180     0.79029969     0.22091733
      4      O     2.79548951     1.87758933    -0.12075726
      5      C     1.45069411     0.02569968    -0.71905605
      6      C     1.27565979     0.54479751    -2.02402041
      7      N     1.13617732     0.97932243    -3.09748388
      8      N     1.05820974    -1.26045964    -0.44559412
      9      C     0.02712814    -2.07036082    -0.83914974
     10      C    -0.06052557    -3.44427213    -0.20288530
     11      C    -0.56931929    -1.90172985    -2.11426043
     12      N    -1.14382337    -1.85671789    -3.12870762
     13      H     2.81566652     1.94909372     2.75200963
     14      H     3.47827408     0.39981709     3.35114245
     15      H     4.30972619     1.29496890     2.05036121
     16      H     2.00802093    -0.50415093     1.83645561
     17      H     1.50214101    -1.63825769     0.39241445
     18      H     0.22357678    -3.40378575     0.85809657
     19      H     0.58655343    -4.17500878    -0.71057621
     20      H    -1.08895702    -3.81309871    -0.26512495

Total System Charge              0.00000

 *** GO1_GOStep3 ***

 Energy gradients wrt nuclear displacements
 ==========================================

     Atom      Cartesian (a.u./angstrom)
                 X         Y         Z
 ----------------------------------------
     1 C    -0.002333 -0.002950 -0.002524
     2 N     0.000356  0.009713 -0.000113
     3 C     0.005167 -0.005376  0.004928
     4 O    -0.001645  0.001334 -0.000148
     5 C    -0.024690  0.014571  0.018082
     6 C     0.009491 -0.004316 -0.009434
     7 N    -0.000073 -0.000670  0.003515
     8 N     0.035370 -0.009960 -0.031393
     9 C    -0.037280  0.013866  0.032635
    10 C     0.001401 -0.004897 -0.002242
    11 C     0.005117 -0.007285 -0.019499
    12 N     0.004466  0.000605  0.007821
    13 H    -0.000200  0.000524  0.000753
    14 H     0.000177  0.000521  0.000862
    15 H     0.000401  0.000120  0.000422
    16 H     0.004099 -0.003911 -0.002124
    17 H    -0.000668 -0.001710 -0.001255
    18 H     0.000134  0.000146  0.000336
    19 H     0.000413 -0.000335 -0.000007
    20 H     0.000298  0.000008 -0.000615
 ----------------------------------------

 dE(predicted):    -0.79083E-02, dE(actual):    -0.78798E-02, Trust radius:    0.800000, all in a.u.
 
----------------------------------------------------------------------
Geometry Convergence after Step   3       (Hartree/Angstrom,Angstrom)
----------------------------------------------------------------------
current energy                               -4.56835096 Hartree
energy change                      -0.00787976     0.00020000    F
constrained gradient max            0.03726481     0.00010000    F
constrained gradient rms            0.01092269     0.00006667    F
gradient max                        0.03726411
gradient rms                        0.01092269
cart. step max                      0.21545187     0.01000000    F
cart. step rms                      0.06488368     0.00666667    F
 

--------
Geometry
--------
Formula: C7H8N4O
Atoms
  Index Symbol   x (angstrom)   y (angstrom)   z (angstrom)
      1      C     3.32680657     1.00569923     2.46348160
      2      N     2.47492926     0.29135651     1.50171540
      3      C     2.33076930     0.78602569     0.21117678
      4      O     2.92459745     1.79876221    -0.16199206
      5      C     1.46238391     0.02336770    -0.72925924
      6      C     1.24954314     0.54058403    -2.02640237
      7      N     1.08860025     0.96992072    -3.10071238
      8      N     1.03755452    -1.24048470    -0.41897226
      9      C     0.08012192    -2.09343945    -0.86817594
     10      C     0.01347985    -3.46704862    -0.23180258
     11      C    -0.59730776    -1.87371796    -2.08585560
     12      N    -1.24033080    -1.78941254    -3.06087396
     13      H     2.94128527     2.01163023     2.67167895
     14      H     3.35998406     0.42697152     3.39063765
     15      H     4.33850802     1.10396733     2.06044758
     16      H     1.79256906    -0.34339119     1.89702402
     17      H     1.48326878    -1.60848070     0.42326501
     18      H     0.31035655    -3.42560756     0.82535777
     19      H     0.66015005    -4.19152298    -0.74745806
     20      H    -1.01196939    -3.84567946    -0.27898030

Total System Charge              0.00000

 *** GO1_GOStep4 ***

 Energy gradients wrt nuclear displacements
 ==========================================

     Atom      Cartesian (a.u./angstrom)
                 X         Y         Z
 ----------------------------------------
     1 C     0.000462 -0.000331 -0.000118
     2 N    -0.002274  0.006035  0.001164
     3 C     0.000367  0.001836  0.003531
     4 O    -0.000664 -0.001600 -0.000828
     5 C    -0.010139  0.007548  0.010322
     6 C     0.005362 -0.004950 -0.001117
     7 N    -0.000646  0.000986 -0.002123
     8 N     0.019704 -0.001912 -0.020825
     9 C    -0.024904  0.006806  0.017711
    10 C     0.003746 -0.004033 -0.000109
    11 C     0.009464 -0.005101 -0.000758
    12 N    -0.002990  0.001246 -0.005365
    13 H     0.000020 -0.000246 -0.000063
    14 H    -0.000101  0.000318 -0.000131
    15 H    -0.000495 -0.000144  0.000299
    16 H     0.005753 -0.004543 -0.000625
    17 H    -0.002312 -0.002001 -0.001130
    18 H    -0.000701 -0.000185  0.000314
    19 H    -0.000276 -0.000457  0.000215
    20 H     0.000625  0.000726 -0.000362
 ----------------------------------------

 dE(predicted):    -0.77831E-02, dE(actual):    -0.64818E-02, Trust radius:    0.800000, all in a.u.
 
----------------------------------------------------------------------
Geometry Convergence after Step   4       (Hartree/Angstrom,Angstrom)
----------------------------------------------------------------------
current energy                               -4.57483278 Hartree
energy change                      -0.00648182     0.00020000    F
constrained gradient max            0.02490658     0.00010000    F
constrained gradient rms            0.00638805     0.00006667    F
gradient max                        0.02490631
gradient rms                        0.00638805
cart. step max                      0.21174781     0.01000000    F
cart. step rms                      0.08378603     0.00666667    F
 

--------
Geometry
--------
Formula: C7H8N4O
Atoms
  Index Symbol   x (angstrom)   y (angstrom)   z (angstrom)
      1      C     3.27405358     0.99390627     2.47249130
      2      N     2.39467159     0.31829848     1.50449406
      3      C     2.39425659     0.74417176     0.17826596
      4      O     3.08209831     1.69248875    -0.20117122
      5      C     1.50385134     0.00549066    -0.75507686
      6      C     1.25754263     0.53310866    -2.04016495
      7      N     1.07780319     0.96878360    -3.10810822
      8      N     1.05929515    -1.24145946    -0.41431801
      9      C     0.13005350    -2.10499720    -0.87759833
     10      C     0.09559939    -3.49041589    -0.26969484
     11      C    -0.67493174    -1.82185942    -1.99514114
     12      N    -1.43160567    -1.68835012    -2.87633915
     13      H     3.02685157     2.05850437     2.56443377
     14      H     3.15757697     0.50332494     3.44248758
     15      H     4.31404049     0.91147590     2.14531676
     16      H     1.58082125    -0.14201022     1.89416243
     17      H     1.54612082    -1.61625382     0.40306647
     18      H     0.46454711    -3.47390891     0.76508272
     19      H     0.70450205    -4.20369683    -0.84292985
     20      H    -0.93184813    -3.86710152    -0.25495847

Total System Charge              0.00000

 *** GO1_GOStep5 ***

 Energy gradients wrt nuclear displacements
 ==========================================

     Atom      Cartesian (a.u./angstrom)
                 X         Y         Z
 ----------------------------------------
     1 C     0.002252  0.000316  0.000920
     2 N    -0.008969  0.008046 -0.001789
     3 C     0.010757 -0.008515  0.000179
     4 O    -0.005033  0.003071  0.000661
     5 C    -0.006255  0.001763  0.006805
     6 C     0.002685 -0.000508 -0.003001
     7 N     0.000315 -0.000563  0.001388
     8 N     0.006452  0.002884 -0.011211
     9 C    -0.012752  0.005704  0.007185
    10 C     0.004365 -0.002017  0.000049
    11 C     0.004314 -0.002697 -0.001906
    12 N     0.000746 -0.000622  0.001395
    13 H     0.000105 -0.000544 -0.000189
    14 H    -0.000380  0.000323 -0.000407
    15 H    -0.000787 -0.000185  0.000086
    16 H     0.005347 -0.003789  0.002137
    17 H    -0.002246 -0.002897 -0.003013
    18 H    -0.001029 -0.000174  0.000412
    19 H    -0.000400 -0.000363  0.000239
    20 H     0.000515  0.000768  0.000059
 ----------------------------------------

 dE(predicted):    -0.58946E-02, dE(actual):    -0.37494E-02, Trust radius:    0.800000, all in a.u.
 
----------------------------------------------------------------------
Geometry Convergence after Step   5       (Hartree/Angstrom,Angstrom)
----------------------------------------------------------------------
current energy                               -4.57858216 Hartree
energy change                      -0.00374938     0.00020000    F
constrained gradient max            0.01278488     0.00010000    F
constrained gradient rms            0.00415722     0.00006667    F
gradient max                        0.01278498
gradient rms                        0.00415722
cart. step max                      0.20545347     0.01000000    F
cart. step rms                      0.06981646     0.00666667    F
 

--------
Geometry
--------
Formula: C7H8N4O
Atoms
  Index Symbol   x (angstrom)   y (angstrom)   z (angstrom)
      1      C     3.22941022     0.95581799     2.47381275
      2      N     2.31354738     0.34694077     1.49352400
      3      C     2.40334973     0.74768455     0.15867624
      4      O     3.22698378     1.57889745    -0.22398284
      5      C     1.51565335     0.01378887    -0.77650614
      6      C     1.25583105     0.52847236    -2.06263541
      7      N     1.06651144     0.95207410    -3.13404729
      8      N     1.06792827    -1.22272266    -0.40156125
      9      C     0.17366478    -2.10784324    -0.88051588
     10      C     0.17085216    -3.50143344    -0.29416039
     11      C    -0.72224841    -1.78912492    -1.91359272
     12      N    -1.55346495    -1.62659980    -2.71918260
     13      H     3.11650997     2.04622125     2.50508134
     14      H     3.00999849     0.53267242     3.45761454
     15      H     4.26353942     0.72768098     2.20155192
     16      H     1.41119971     0.06344324     1.85945304
     17      H     1.57706576    -1.57864084     0.41299518
     18      H     0.59276975    -3.49939288     0.72022896
     19      H     0.75763772    -4.19975326    -0.90711989
     20      H    -0.85143961    -3.88868293    -0.23533356

Total System Charge              0.00000

 *** GO1_GOStep6 ***

 Energy gradients wrt nuclear displacements
 ==========================================

     Atom      Cartesian (a.u./angstrom)
                 X         Y         Z
 ----------------------------------------
     1 C     0.002112 -0.000641  0.000725
     2 N    -0.006448  0.004678 -0.005774
     3 C    -0.005137  0.003558  0.004235
     4 O     0.002403 -0.002427 -0.000390
     5 C     0.002342 -0.005431  0.003817
     6 C     0.001611  0.001985 -0.002480
     7 N     0.000216 -0.000839  0.001521
     8 N    -0.002617  0.005219 -0.004398
     9 C    -0.002423  0.003940 -0.000416
    10 C     0.002874 -0.000893 -0.000453
    11 C     0.001137 -0.000896  0.001301
    12 N     0.002129 -0.001620  0.002861
    13 H    -0.000063 -0.000602 -0.000580
    14 H    -0.000408  0.000415 -0.000666
    15 H    -0.000195 -0.000010  0.000082
    16 H     0.004169 -0.003259  0.002535
    17 H    -0.000618 -0.002959 -0.002949
    18 H    -0.001022 -0.000256  0.000420
    19 H    -0.000482 -0.000118  0.000217
    20 H     0.000421  0.000155  0.000393
 ----------------------------------------

 dE(predicted):    -0.35542E-02, dE(actual):    -0.16705E-02, Trust radius:    0.800000, all in a.u.
 
----------------------------------------------------------------------
Geometry Convergence after Step   6       (Hartree/Angstrom,Angstrom)
----------------------------------------------------------------------
current energy                               -4.58025268 Hartree
energy change                      -0.00167053     0.00020000    F
constrained gradient max            0.00642856     0.00010000    F
constrained gradient rms            0.00256675     0.00006667    F
gradient max                        0.00642831
gradient rms                        0.00256675
cart. step max                      0.09610506     0.01000000    F
cart. step rms                      0.03356317     0.00666667    F
 

--------
Geometry
--------
Formula: C7H8N4O
Atoms
  Index Symbol   x (angstrom)   y (angstrom)   z (angstrom)
      1      C     3.21852012     0.97457208     2.47206244
      2      N     2.33517045     0.32258763     1.48963199
      3      C     2.45952079     0.69977405     0.14766289
      4      O     3.28659151     1.52695627    -0.23725630
      5      C     1.53262266    -0.00884767    -0.76760519
      6      C     1.20981592     0.52759371    -2.02936655
      7      N     0.97040637     0.97173868    -3.08414962
      8      N     1.08322672    -1.24356530    -0.37908902
      9      C     0.20121495    -2.12631767    -0.88692117
     10      C     0.16985280    -3.52457777    -0.31672382
     11      C    -0.70439747    -1.76705490    -1.90245755
     12      N    -1.53352636    -1.56807301    -2.70698470
     13      H     3.11839971     2.06674033     2.44238635
     14      H     2.95773747     0.60588041     3.46812447
     15      H     4.25991857     0.72223995     2.25299638
     16      H     1.39349209     0.14245307     1.82536293
     17      H     1.58075671    -1.58098282     0.45260127
     18      H     0.59945799    -3.54114188     0.69426544
     19      H     0.74520791    -4.22385346    -0.93973966
     20      H    -0.85868889    -3.89662169    -0.26050059

Total System Charge              0.00000

 *** GO1_GOStep7 ***

 Energy gradients wrt nuclear displacements
 ==========================================

     Atom      Cartesian (a.u./angstrom)
                 X         Y         Z
 ----------------------------------------
     1 C    -0.000577  0.000150 -0.000850
     2 N    -0.005880  0.004196 -0.007873
     3 C     0.004430 -0.009980  0.004995
     4 O     0.001320  0.004600 -0.000177
     5 C     0.001095 -0.001814  0.000642
     6 C    -0.001562  0.000629  0.003974
     7 N    -0.001229  0.000597 -0.004384
     8 N    -0.003444  0.003616  0.002587
     9 C     0.004150 -0.001070 -0.003942
    10 C     0.000391 -0.000557 -0.000886
    11 C     0.006435 -0.000421  0.010026
    12 N    -0.006458  0.001756 -0.007327
    13 H     0.000140 -0.000231 -0.000092
    14 H    -0.000668  0.000521 -0.000144
    15 H     0.000316 -0.000038 -0.000138
    16 H     0.002164 -0.001457  0.001861
    17 H    -0.000224 -0.000546  0.001172
    18 H    -0.000205  0.000212  0.000246
    19 H    -0.000074  0.000159  0.000245
    20 H    -0.000120 -0.000323  0.000062
 ----------------------------------------

 dE(predicted):    -0.64047E-03, dE(actual):    -0.36270E-03, Trust radius:    0.800000, all in a.u.
 
----------------------------------------------------------------------
Geometry Convergence after Step   7       (Hartree/Angstrom,Angstrom)
----------------------------------------------------------------------
current energy                               -4.58061538 Hartree
energy change                      -0.00036270     0.00020000    F
constrained gradient max            0.01001460     0.00010000    F
constrained gradient rms            0.00328514     0.00006667    F
gradient max                        0.01001437
gradient rms                        0.00328514
cart. step max                      0.05519075     0.01000000    F
cart. step rms                      0.02253549     0.00666667    F
 

--------
Geometry
--------
Formula: C7H8N4O
Atoms
  Index Symbol   x (angstrom)   y (angstrom)   z (angstrom)
      1      C     3.23474478     0.94947483     2.47074151
      2      N     2.33306406     0.31851752     1.49042109
      3      C     2.42525610     0.72916634     0.15245832
      4      O     3.24221826     1.56543164    -0.22982802
      5      C     1.51464770     0.00926796    -0.77213682
      6      C     1.20767446     0.54016175    -2.03952884
      7      N     0.98459623     0.98319819    -3.09678990
      8      N     1.07718395    -1.23275701    -0.39005461
      9      C     0.20074431    -2.12544538    -0.89329105
     10      C     0.16467088    -3.51179184    -0.29471925
     11      C    -0.68529822    -1.79448577    -1.93641622
     12      N    -1.50274727    -1.62033767    -2.75409506
     13      H     3.12734166     2.04145315     2.47434844
     14      H     3.00071673     0.55068966     3.46192636
     15      H     4.27202202     0.71026671     2.22076659
     16      H     1.39527733     0.13920722     1.83867418
     17      H     1.56611013    -1.55828297     0.45092901
     18      H     0.58258447    -3.50770200     0.72125042
     19      H     0.74846445    -4.22271486    -0.89661190
     20      H    -0.86397203    -3.88381748    -0.24374427

Total System Charge              0.00000

 *** GO1_GOStep8 ***

 Energy gradients wrt nuclear displacements
 ==========================================

     Atom      Cartesian (a.u./angstrom)
                 X         Y         Z
 ----------------------------------------
     1 C    -0.000124 -0.000837 -0.000123
     2 N    -0.001986  0.003922 -0.005499
     3 C    -0.000712 -0.001948  0.004964
     4 O     0.000840  0.000098  0.000062
     5 C     0.001754 -0.000561 -0.001657
     6 C    -0.001734  0.001709  0.000003
     7 N     0.000133 -0.001052  0.000444
     8 N     0.000523  0.001793  0.002125
     9 C     0.000484 -0.002167 -0.003342
    10 C    -0.000350 -0.000261 -0.000014
    11 C    -0.001111  0.001092  0.000156
    12 N     0.001063 -0.000545  0.001154
    13 H    -0.000003 -0.000106 -0.000385
    14 H    -0.000269  0.000484  0.000078
    15 H     0.000195  0.000029  0.000170
    16 H     0.001864 -0.001400  0.000933
    17 H    -0.000762 -0.000342  0.000467
    18 H    -0.000047  0.000068  0.000278
    19 H     0.000184  0.000260  0.000165
    20 H     0.000058 -0.000238  0.000022
 ----------------------------------------

 dE(predicted):    -0.24620E-03, dE(actual):    -0.29477E-03, Trust radius:    0.800000, all in a.u.
 
----------------------------------------------------------------------
Geometry Convergence after Step   8       (Hartree/Angstrom,Angstrom)
----------------------------------------------------------------------
current energy                               -4.58091016 Hartree
energy change                      -0.00029477     0.00020000    F
constrained gradient max            0.00549112     0.00010000    F
constrained gradient rms            0.00147636     0.00006667    F
gradient max                        0.00549099
gradient rms                        0.00147636
cart. step max                      0.02672422     0.01000000    F
cart. step rms                      0.00992522     0.00666667    F
 

--------
Geometry
--------
Formula: C7H8N4O
Atoms
  Index Symbol   x (angstrom)   y (angstrom)   z (angstrom)
      1      C     3.23359533     0.93762280     2.47205405
      2      N     2.32750670     0.31035208     1.49222376
      3      C     2.41568242     0.73523769     0.15298785
      4      O     3.22833634     1.57589099    -0.22512497
      5      C     1.50916957     0.01567194    -0.77656134
      6      C     1.22089847     0.54080829    -2.05012111
      7      N     1.01132045     0.98442376    -3.11003653
      8      N     1.07537467    -1.22859537    -0.39757262
      9      C     0.19462846    -2.12221242    -0.88921960
     10      C     0.16927750    -3.50761001    -0.28768807
     11      C    -0.69348531    -1.80077738    -1.93415276
     12      N    -1.51097194    -1.63277688    -2.75331480
     13      H     3.12343433     2.02929391     2.48706297
     14      H     3.00902282     0.52771852     3.46088177
     15      H     4.26911957     0.70306054     2.21198995
     16      H     1.38193367     0.16455253     1.83792230
     17      H     1.57203343    -1.55126855     0.43984730
     18      H     0.60536228    -3.50304028     0.72043864
     19      H     0.74156277    -4.22031853    -0.89876230
     20      H    -0.85850154    -3.87853364    -0.21855450

Total System Charge              0.00000

 *** GO1_GOStep9 ***

 Energy gradients wrt nuclear displacements
 ==========================================

     Atom      Cartesian (a.u./angstrom)
                 X         Y         Z
 ----------------------------------------
     1 C    -0.000044 -0.000565  0.000186
     2 N     0.000186  0.002378 -0.002423
     3 C    -0.000848  0.000379  0.003745
     4 O    -0.000339 -0.001163 -0.000033
     5 C     0.000458 -0.000009 -0.001945
     6 C     0.000037  0.000252  0.000757
     7 N     0.000034 -0.000321  0.000167
     8 N     0.000520  0.000964  0.000210
     9 C    -0.000713 -0.001332 -0.001638
    10 C    -0.000095 -0.000076  0.000231
    11 C    -0.000876  0.000480  0.000207
    12 N     0.000393 -0.000585  0.000524
    13 H     0.000021 -0.000041 -0.000357
    14 H    -0.000124  0.000354  0.000007
    15 H    -0.000085 -0.000049  0.000293
    16 H     0.000978 -0.000337  0.000593
    17 H    -0.000164 -0.000155 -0.000944
    18 H     0.000055 -0.000201  0.000258
    19 H     0.000255 -0.000006  0.000200
    20 H     0.000350  0.000033 -0.000039
 ----------------------------------------

 dE(predicted):    -0.97660E-04, dE(actual):    -0.11005E-03, Trust radius:    0.800000, all in a.u.
 
----------------------------------------------------------------------
Geometry Convergence after Step   9       (Hartree/Angstrom,Angstrom)
----------------------------------------------------------------------
current energy                               -4.58102021 Hartree
energy change                      -0.00011005     0.00020000    T
constrained gradient max            0.00375392     0.00010000    F
constrained gradient rms            0.00085717     0.00006667    F
gradient max                        0.00375397
gradient rms                        0.00085717
cart. step max                      0.05405465     0.01000000    F
cart. step rms                      0.01783708     0.00666667    F
 

--------
Geometry
--------
Formula: C7H8N4O
Atoms
  Index Symbol   x (angstrom)   y (angstrom)   z (angstrom)
      1      C     3.23938711     0.91727896     2.46633564
      2      N     2.33270068     0.29047614     1.48571606
      3      C     2.40313424     0.74753916     0.15052277
      4      O     3.20047439     1.60502499    -0.22112169
      5      C     1.49869928     0.02578845    -0.77813193
      6      C     1.21740211     0.54426265    -2.05609096
      7      N     1.01213435     0.98785884    -3.11674777
      8      N     1.06860363    -1.21806631    -0.39310954
      9      C     0.19480847    -2.11743030    -0.88297303
     10      C     0.16433075    -3.49710815    -0.26942914
     11      C    -0.67100739    -1.81253461    -1.95225355
     12      N    -1.46942782    -1.65638979    -2.79189618
     13      H     3.10240054     2.00513933     2.51420102
     14      H     3.04501836     0.47366387     3.44708015
     15      H     4.27504845     0.71607727     2.18065471
     16      H     1.38349748     0.16074259     1.83159049
     17      H     1.55820119    -1.52651353     0.45434163
     18      H     0.60044884    -3.48523922     0.73833200
     19      H     0.73430624    -4.21710071    -0.87442408
     20      H    -0.86486092    -3.86396962    -0.19829658

Total System Charge              0.00000

 *** GO1_GOStep10 ***

 Energy gradients wrt nuclear displacements
 ==========================================

     Atom      Cartesian (a.u./angstrom)
                 X         Y         Z
 ----------------------------------------
     1 C    -0.000214  0.000263 -0.000213
     2 N     0.001384 -0.000847 -0.000899
     3 C    -0.001119  0.002611  0.003116
     4 O     0.000440 -0.000465 -0.001017
     5 C    -0.000992 -0.000203 -0.001753
     6 C     0.000599 -0.000189  0.000498
     7 N    -0.000121 -0.000188  0.000358
     8 N     0.001008 -0.000231  0.000318
     9 C    -0.000985 -0.000391  0.000217
    10 C    -0.000045  0.000028  0.000201
    11 C    -0.000552  0.000539 -0.000962
    12 N     0.000746 -0.000502  0.000989
    13 H     0.000095  0.000087 -0.000297
    14 H    -0.000063  0.000126 -0.000063
    15 H    -0.000121 -0.000084  0.000381
    16 H    -0.000329 -0.000451 -0.000457
    17 H    -0.000584  0.000181 -0.000506
    18 H     0.000154 -0.000157  0.000104
    19 H     0.000349 -0.000212  0.000153
    20 H     0.000349  0.000085 -0.000170
 ----------------------------------------

 dE(predicted):    -0.65904E-04, dE(actual):    -0.60926E-04, Trust radius:    0.800000, all in a.u.
 
----------------------------------------------------------------------
Geometry Convergence after Step  10       (Hartree/Angstrom,Angstrom)
----------------------------------------------------------------------
current energy                               -4.58108113 Hartree
energy change                      -0.00006093     0.00020000    T
constrained gradient max            0.00313138     0.00010000    F
constrained gradient rms            0.00076520     0.00006667    F
gradient max                        0.00313146
gradient rms                        0.00076520
cart. step max                      0.01935184     0.01000000    F
cart. step rms                      0.00457051     0.00666667    T
 

--------
Geometry
--------
Formula: C7H8N4O
Atoms
  Index Symbol   x (angstrom)   y (angstrom)   z (angstrom)
      1      C     3.23944905     0.91676078     2.46705863
      2      N     2.32787005     0.29374278     1.48807995
      3      C     2.40431267     0.74558707     0.14912648
      4      O     3.20053971     1.60456986    -0.22030205
      5      C     1.49943853     0.02409582    -0.77804513
      6      C     1.21573374     0.54252835    -2.05603651
      7      N     1.01043266     0.98785241    -3.11598871
      8      N     1.07024054    -1.21996010    -0.39221652
      9      C     0.19638927    -2.11873592    -0.88208142
     10      C     0.16279679    -3.49854708    -0.26940907
     11      C    -0.66730460    -1.81390203    -1.95338548
     12      N    -1.46251828    -1.65653239    -2.79611714
     13      H     3.09986308     2.00389779     2.52423524
     14      H     3.05391952     0.46522115     3.44595961
     15      H     4.27333206     0.72060860     2.17143207
     16      H     1.37574663     0.18009443     1.83241819
     17      H     1.56177266    -1.52716686     0.45526452
     18      H     0.60652669    -3.48941551     0.73490583
     19      H     0.72449649    -4.22053029    -0.87966980
     20      H    -0.86773728    -3.86066886    -0.19092870

Total System Charge              0.00000

 *** GO1_GOStep11 ***

 Energy gradients wrt nuclear displacements
 ==========================================

     Atom      Cartesian (a.u./angstrom)
                 X         Y         Z
 ----------------------------------------
     1 C     0.000002  0.000354  0.000250
     2 N     0.000964 -0.000440  0.000326
     3 C     0.000177  0.001040  0.000465
     4 O    -0.000381 -0.000029 -0.000088
     5 C    -0.001052 -0.000022 -0.000978
     6 C     0.000143 -0.000254  0.000118
     7 N    -0.000056 -0.000071  0.000186
     8 N     0.000485 -0.000242 -0.000158
     9 C    -0.000617 -0.000156  0.000508
    10 C    -0.000183  0.000035  0.000008
    11 C    -0.000038  0.000171 -0.000322
    12 N     0.000216 -0.000213  0.000233
    13 H     0.000058  0.000043 -0.000256
    14 H    -0.000008  0.000093 -0.000014
    15 H    -0.000024 -0.000107  0.000261
    16 H    -0.000507  0.000049 -0.000323
    17 H     0.000113 -0.000033 -0.000213
    18 H     0.000134 -0.000047  0.000049
    19 H     0.000322 -0.000129  0.000082
    20 H     0.000253 -0.000042 -0.000131
 ----------------------------------------

 dE(predicted):    -0.22543E-04, dE(actual):    -0.23602E-04, Trust radius:    0.800000, all in a.u.
 
----------------------------------------------------------------------
Geometry Convergence after Step  11       (Hartree/Angstrom,Angstrom)
----------------------------------------------------------------------
current energy                               -4.58110474 Hartree
energy change                      -0.00002360     0.00020000    T
constrained gradient max            0.00101678     0.00010000    F
constrained gradient rms            0.00034317     0.00006667    F
gradient max                        0.00101663
gradient rms                        0.00034317
cart. step max                      0.01727452     0.01000000    F
cart. step rms                      0.00599256     0.00666667    T
 

--------
Geometry
--------
Formula: C7H8N4O
Atoms
  Index Symbol   x (angstrom)   y (angstrom)   z (angstrom)
      1      C     3.23547517     0.91704230     2.46755636
      2      N     2.32454057     0.29484598     1.48759757
      3      C     2.40775634     0.74287121     0.14674865
      4      O     3.20606567     1.60085822    -0.22034130
      5      C     1.50394326     0.02207608    -0.77998335
      6      C     1.22003053     0.54057069    -2.05846748
      7      N     1.01545323     0.98681476    -3.11826995
      8      N     1.07288537    -1.22068432    -0.39237187
      9      C     0.19864730    -2.11860849    -0.88192574
     10      C     0.16257367    -3.49801152    -0.26873954
     11      C    -0.66758016    -1.81337560    -1.95119363
     12      N    -1.46424601    -1.65472006    -2.79253788
     13      H     3.08285825     2.00157492     2.54032062
     14      H     3.06326276     0.45081367     3.44203753
     15      H     4.26909533     0.73788312     2.16029257
     16      H     1.37146653     0.18373337     1.82998043
     17      H     1.56267858    -1.52569467     0.45735907
     18      H     0.61792185    -3.49162610     0.73026473
     19      H     0.71195528    -4.22332788    -0.88601391
     20      H    -0.86948354    -3.85353569    -0.17801287

Total System Charge              0.00000

 *** GO1_GOStep12 ***

 Energy gradients wrt nuclear displacements
 ==========================================

     Atom      Cartesian (a.u./angstrom)
                 X         Y         Z
 ----------------------------------------
     1 C     0.000088  0.000499  0.000255
     2 N     0.000085 -0.000377  0.000904
     3 C     0.000709  0.000086 -0.001439
     4 O    -0.000557  0.000193  0.000324
     5 C    -0.000567 -0.000092  0.000210
     6 C    -0.000097 -0.000082 -0.000081
     7 N    -0.000055  0.000143 -0.000180
     8 N     0.000159 -0.000448 -0.000350
     9 C     0.000162  0.000333  0.000436
    10 C    -0.000003  0.000029 -0.000164
    11 C     0.000021 -0.000210  0.000292
    12 N    -0.000198 -0.000065 -0.000297
    13 H    -0.000016  0.000018 -0.000150
    14 H    -0.000057  0.000039 -0.000020
    15 H     0.000068 -0.000077  0.000078
    16 H    -0.000372 -0.000024 -0.000117
    17 H     0.000232  0.000079  0.000306
    18 H     0.000032  0.000056  0.000059
    19 H     0.000208 -0.000011 -0.000002
    20 H     0.000157 -0.000089 -0.000062
 ----------------------------------------

 dE(predicted):    -0.12791E-04, dE(actual):    -0.17213E-04, Trust radius:    0.800000, all in a.u.
 
----------------------------------------------------------------------
Geometry Convergence after Step  12       (Hartree/Angstrom,Angstrom)
----------------------------------------------------------------------
current energy                               -4.58112195 Hartree
energy change                      -0.00001721     0.00020000    T
constrained gradient max            0.00142822     0.00010000    F
constrained gradient rms            0.00031702     0.00006667    F
gradient max                        0.00142828
gradient rms                        0.00031702
cart. step max                      0.01814696     0.01000000    F
cart. step rms                      0.00580066     0.00666667    T
 

--------
Geometry
--------
Formula: C7H8N4O
Atoms
  Index Symbol   x (angstrom)   y (angstrom)   z (angstrom)
      1      C     3.23441470     0.91791053     2.46763086
      2      N     2.32164858     0.29776937     1.48856130
      3      C     2.40794027     0.74237129     0.14679993
      4      O     3.21015964     1.59677062    -0.22085361
      5      C     1.50522796     0.02122089    -0.77935831
      6      C     1.22184000     0.53856043    -2.05862797
      7      N     1.01657058     0.98387895    -3.11865723
      8      N     1.07242671    -1.22073272    -0.39104933
      9      C     0.20031539    -2.11929827    -0.88292165
     10      C     0.16072305    -3.49795716    -0.26806525
     11      C    -0.66339727    -1.81377116    -1.95415735
     12      N    -1.45864536    -1.65440512    -2.79677212
     13      H     3.06953386     1.99950414     2.55712774
     14      H     3.07791646     0.43693673     3.43761463
     15      H     4.26662209     0.75603008     2.14647908
     16      H     1.36895138     0.18808910     1.83185879
     17      H     1.56119500    -1.52547578     0.45941829
     18      H     0.62499841    -3.49369164     0.72673520
     19      H     0.69968090    -4.22710897    -0.88982030
     20      H    -0.87282234    -3.84710129    -0.16764270

Total System Charge              0.00000

 *** GO1_GOStep13 ***

 Energy gradients wrt nuclear displacements
 ==========================================

     Atom      Cartesian (a.u./angstrom)
                 X         Y         Z
 ----------------------------------------
     1 C     0.000053  0.000268  0.000104
     2 N    -0.000441 -0.000355  0.000958
     3 C     0.000094 -0.000103 -0.002012
     4 O    -0.000158  0.000234  0.000364
     5 C     0.000114 -0.000079  0.000908
     6 C    -0.000143 -0.000065 -0.000270
     7 N    -0.000135  0.000118 -0.000117
     8 N    -0.000382 -0.000291 -0.000379
     9 C     0.000390  0.000344  0.000253
    10 C     0.000131 -0.000058 -0.000108
    11 C     0.000351 -0.000159  0.000431
    12 N    -0.000375  0.000050 -0.000433
    13 H    -0.000069  0.000037 -0.000069
    14 H    -0.000093  0.000047 -0.000038
    15 H     0.000070 -0.000017 -0.000045
    16 H    -0.000006  0.000031  0.000088
    17 H     0.000388  0.000022  0.000322
    18 H    -0.000012  0.000057  0.000068
    19 H     0.000143  0.000055 -0.000011
    20 H     0.000081 -0.000136 -0.000012
 ----------------------------------------

 dE(predicted):    -0.77680E-05, dE(actual):    -0.11027E-04, Trust radius:    0.800000, all in a.u.
 
----------------------------------------------------------------------
Geometry Convergence after Step  13       (Hartree/Angstrom,Angstrom)
----------------------------------------------------------------------
current energy                               -4.58113298 Hartree
energy change                      -0.00001103     0.00020000    T
constrained gradient max            0.00200509     0.00010000    F
constrained gradient rms            0.00037033     0.00006667    F
gradient max                        0.00200511
gradient rms                        0.00037033
cart. step max                      0.02933499     0.01000000    F
cart. step rms                      0.00769536     0.00666667    F
 

--------
Geometry
--------
Formula: C7H8N4O
Atoms
  Index Symbol   x (angstrom)   y (angstrom)   z (angstrom)
      1      C     3.23307474     0.92158992     2.46859209
      2      N     2.32256836     0.29930597     1.48934012
      3      C     2.40876977     0.74152273     0.14771087
      4      O     3.21157681     1.59507383    -0.22131708
      5      C     1.50789791     0.01942344    -0.77904934
      6      C     1.22762135     0.53588839    -2.05935853
      7      N     1.02529796     0.98026895    -3.12028755
      8      N     1.07265188    -1.22188647    -0.39104568
      9      C     0.20052336    -2.12008792    -0.88425085
     10      C     0.15718030    -3.49815813    -0.26807029
     11      C    -0.66217055    -1.81414639    -1.95626865
     12      N    -1.45674916    -1.65411611    -2.79911919
     13      H     3.04863625     1.99836811     2.57738869
     14      H     3.09644572     0.42311931     3.43277545
     15      H     4.26441710     0.78536506     2.13337717
     16      H     1.37104142     0.18332984     1.83333216
     17      H     1.55863098    -1.52708103     0.46056365
     18      H     0.63476780    -3.49767222     0.72031428
     19      H     0.68117671    -4.23223003    -0.89668251
     20      H    -0.87805870    -3.83837725    -0.15364480

Total System Charge              0.00000

 *** GO1_GOStep14 ***

 Energy gradients wrt nuclear displacements
 ==========================================

     Atom      Cartesian (a.u./angstrom)
                 X         Y         Z
 ----------------------------------------
     1 C    -0.000085  0.000022 -0.000147
     2 N    -0.000398 -0.000099  0.000647
     3 C    -0.000406 -0.000274 -0.001643
     4 O     0.000000  0.000145  0.000235
     5 C     0.000618  0.000244  0.001040
     6 C    -0.000182 -0.000024 -0.000380
     7 N    -0.000057  0.000082  0.000073
     8 N    -0.000243 -0.000304 -0.000270
     9 C     0.000293  0.000265  0.000126
    10 C     0.000239 -0.000154 -0.000035
    11 C    -0.000282 -0.000159 -0.000163
    12 N     0.000117 -0.000023  0.000119
    13 H    -0.000062  0.000057  0.000029
    14 H    -0.000051  0.000023 -0.000018
    15 H     0.000038  0.000116 -0.000114
    16 H     0.000189 -0.000027  0.000211
    17 H     0.000157  0.000128  0.000254
    18 H    -0.000037  0.000046  0.000046
    19 H     0.000102  0.000045 -0.000014
    20 H     0.000050 -0.000107  0.000005
 ----------------------------------------

 dE(predicted):    -0.59610E-05, dE(actual):    -0.10818E-04, Trust radius:    0.800000, all in a.u.
 
----------------------------------------------------------------------
Geometry Convergence after Step  14       (Hartree/Angstrom,Angstrom)
----------------------------------------------------------------------
current energy                               -4.58114379 Hartree
energy change                      -0.00001082     0.00020000    T
constrained gradient max            0.00163501     0.00010000    F
constrained gradient rms            0.00031995     0.00006667    F
gradient max                        0.00163504
gradient rms                        0.00031995
cart. step max                      0.00676899     0.01000000    T
cart. step rms                      0.00259813     0.00666667    T
 

--------
Geometry
--------
Formula: C7H8N4O
Atoms
  Index Symbol   x (angstrom)   y (angstrom)   z (angstrom)
      1      C     3.23100287     0.92385051     2.46983537
      2      N     2.32362447     0.29961766     1.48896345
      3      C     2.41105539     0.74044618     0.14784421
      4      O     3.21469824     1.59288761    -0.22216038
      5      C     1.51025584     0.01819167    -0.77968896
      6      C     1.22961941     0.53512551    -2.05951157
      7      N     1.02647577     0.97905564    -3.12047450
      8      N     1.07450058    -1.22310466    -0.39208800
      9      C     0.20097834    -2.12048893    -0.88486961
     10      C     0.15693689    -3.49873549    -0.26907432
     11      C    -0.66386230    -1.81243859    -1.95439913
     12      N    -1.46100082    -1.65103227    -2.79460277
     13      H     3.04314568     2.00000327     2.57904712
     14      H     3.09476592     0.42455942     3.43364494
     15      H     4.26314772     0.79107641     2.13591155
     16      H     1.37179685     0.18117299     1.83120662
     17      H     1.56138097    -1.53023911     0.45805402
     18      H     0.64105882    -3.50057443     0.71613152
     19      H     0.67440771    -4.23435386    -0.90127836
     20      H    -0.87868836    -3.83551952    -0.14819121

Total System Charge              0.00000

 *** GO1_GOStep15 ***

 Energy gradients wrt nuclear displacements
 ==========================================

     Atom      Cartesian (a.u./angstrom)
                 X         Y         Z
 ----------------------------------------
     1 C    -0.000128 -0.000032 -0.000153
     2 N    -0.000224 -0.000041  0.000144
     3 C    -0.000474 -0.000199 -0.000630
     4 O     0.000034  0.000065 -0.000004
     5 C     0.000553  0.000277  0.000571
     6 C    -0.000100 -0.000010 -0.000260
     7 N    -0.000079  0.000027  0.000128
     8 N    -0.000147 -0.000125 -0.000090
     9 C     0.000133  0.000057 -0.000036
    10 C     0.000152 -0.000134  0.000069
    11 C    -0.000144 -0.000093 -0.000083
    12 N     0.000052 -0.000062  0.000114
    13 H    -0.000065  0.000050  0.000033
    14 H    -0.000011  0.000055  0.000006
    15 H    -0.000017  0.000143 -0.000063
    16 H     0.000165  0.000016  0.000167
    17 H     0.000082  0.000066  0.000049
    18 H    -0.000001 -0.000004  0.000037
    19 H     0.000123  0.000021  0.000011
    20 H     0.000097 -0.000077 -0.000011
 ----------------------------------------

 dE(predicted):    -0.17286E-05, dE(actual):    -0.60516E-05, Trust radius:    0.800000, all in a.u.
 
----------------------------------------------------------------------
Geometry Convergence after Step  15       (Hartree/Angstrom,Angstrom)
----------------------------------------------------------------------
current energy                               -4.58114985 Hartree
energy change                      -0.00000605     0.00020000    T
constrained gradient max            0.00062172     0.00010000    F
constrained gradient rms            0.00017280     0.00006667    F
gradient max                        0.00062171
gradient rms                        0.00017280
cart. step max                      0.00829035     0.01000000    T
cart. step rms                      0.00239246     0.00666667    T
 

--------
Geometry
--------
Formula: C7H8N4O
Atoms
  Index Symbol   x (angstrom)   y (angstrom)   z (angstrom)
      1      C     3.22978283     0.92531826     2.47114277
      2      N     2.32418038     0.30065700     1.48879297
      3      C     2.41227665     0.74048723     0.14812319
      4      O     3.21592322     1.59250716    -0.22282464
      5      C     1.51094932     0.01771018    -0.77985281
      6      C     1.23081355     0.53403949    -2.05977056
      7      N     1.02818301     0.97653277    -3.12149255
      8      N     1.07536822    -1.22369845    -0.39235550
      9      C     0.20097683    -2.12067601    -0.88483580
     10      C     0.15710894    -3.49939855    -0.27018307
     11      C    -0.66509361    -1.81115893    -1.95281315
     12      N    -1.46340163    -1.64883831    -2.79176965
     13      H     3.04141926     2.00145747     2.57968309
     14      H     3.09217365     0.42622488     3.43484206
     15      H     4.26248934     0.79265912     2.13907846
     16      H     1.37176783     0.18096038     1.82917659
     17      H     1.56264880    -1.53210770     0.45687717
     18      H     0.64934917    -3.50407984     0.71099595
     19      H     0.66704115    -4.23625262    -0.90709229
     20      H    -0.87865692    -3.83284353    -0.14142223

Total System Charge              0.00000

 *** GO1_GOStep16 ***

 Energy gradients wrt nuclear displacements
 ==========================================

     Atom      Cartesian (a.u./angstrom)
                 X         Y         Z
 ----------------------------------------
     1 C    -0.000033 -0.000065 -0.000032
     2 N     0.000087  0.000105 -0.000259
     3 C    -0.000254 -0.000086  0.000312
     4 O    -0.000022  0.000055 -0.000139
     5 C     0.000145  0.000187 -0.000084
     6 C    -0.000013 -0.000107  0.000098
     7 N    -0.000106  0.000037 -0.000024
     8 N     0.000041  0.000047  0.000046
     9 C    -0.000077 -0.000113 -0.000058
    10 C     0.000066 -0.000109  0.000086
    11 C     0.000002 -0.000042  0.000067
    12 N     0.000003 -0.000083  0.000044
    13 H    -0.000073  0.000065  0.000019
    14 H     0.000033  0.000060  0.000008
    15 H    -0.000075  0.000137 -0.000003
    16 H    -0.000025  0.000043  0.000017
    17 H    -0.000043 -0.000019 -0.000116
    18 H     0.000053 -0.000037  0.000016
    19 H     0.000144 -0.000039  0.000043
    20 H     0.000146 -0.000036 -0.000040
 ----------------------------------------

 dE(predicted):    -0.13944E-05, dE(actual):    -0.31908E-05, Trust radius:    0.800000, all in a.u.
 
----------------------------------------------------------------------
Geometry Convergence after Step  16       (Hartree/Angstrom,Angstrom)
----------------------------------------------------------------------
current energy                               -4.58115304 Hartree
energy change                      -0.00000319     0.00020000    T
constrained gradient max            0.00032099     0.00010000    F
constrained gradient rms            0.00008717     0.00006667    F
gradient max                        0.00032099
gradient rms                        0.00008717
cart. step max                      0.00711996     0.01000000    T
cart. step rms                      0.00194285     0.00666667    T
 

--------
Geometry
--------
Formula: C7H8N4O
Atoms
  Index Symbol   x (angstrom)   y (angstrom)   z (angstrom)
      1      C     3.22879207     0.92631061     2.47174450
      2      N     2.32412377     0.30087397     1.48899051
      3      C     2.41303516     0.74025307     0.14839438
      4      O     3.21678631     1.59209808    -0.22255718
      5      C     1.51142865     0.01728689    -0.77982461
      6      C     1.23152944     0.53339852    -2.05980912
      7      N     1.02940845     0.97515235    -3.12191014
      8      N     1.07614462    -1.22421483    -0.39239493
      9      C     0.20131104    -2.12083266    -0.88485431
     10      C     0.15727703    -3.49985128    -0.27105121
     11      C    -0.66553368    -1.81043589    -1.95192802
     12      N    -1.46464666    -1.64756138    -2.79000635
     13      H     3.04050247     2.00257609     2.57906953
     14      H     3.09011401     0.42800879     3.43568512
     15      H     4.26178525     0.79304104     2.14079154
     16      H     1.37123788     0.18139491     1.82820832
     17      H     1.56360300    -1.53298295     0.45659114
     18      H     0.65646913    -3.50690720     0.70660074
     19      H     0.66052863    -4.23772236    -0.91208352
     20      H    -0.87859656    -3.83038577    -0.13535639

Total System Charge              0.00000

 *** GO1_GOStep17 ***

 Energy gradients wrt nuclear displacements
 ==========================================

     Atom      Cartesian (a.u./angstrom)
                 X         Y         Z
 ----------------------------------------
     1 C    -0.000013  0.000012 -0.000018
     2 N     0.000160  0.000085 -0.000295
     3 C     0.000010  0.000033  0.000633
     4 O    -0.000078  0.000036 -0.000118
     5 C    -0.000135  0.000026 -0.000334
     6 C    -0.000046 -0.000030  0.000052
     7 N    -0.000067 -0.000039  0.000073
     8 N     0.000132  0.000096  0.000066
     9 C    -0.000123 -0.000146 -0.000056
    10 C     0.000021 -0.000067  0.000062
    11 C     0.000016 -0.000038  0.000067
    12 N     0.000012 -0.000098  0.000055
    13 H    -0.000075  0.000071  0.000011
    14 H     0.000033  0.000047 -0.000015
    15 H    -0.000075  0.000112 -0.000017
    16 H    -0.000094  0.000062 -0.000074
    17 H    -0.000047 -0.000042 -0.000107
    18 H     0.000072 -0.000036  0.000010
    19 H     0.000143 -0.000048  0.000043
    20 H     0.000154 -0.000036 -0.000037
 ----------------------------------------

 dE(predicted):    -0.55805E-06, dE(actual):    -0.30165E-05, Trust radius:    0.800000, all in a.u.
 
----------------------------------------------------------------------
Geometry Convergence after Step  17       (Hartree/Angstrom,Angstrom)
----------------------------------------------------------------------
current energy                               -4.58115605 Hartree
energy change                      -0.00000302     0.00020000    T
constrained gradient max            0.00064222     0.00010000    F
constrained gradient rms            0.00011636     0.00006667    F
gradient max                        0.00064222
gradient rms                        0.00011636
cart. step max                      0.01177674     0.01000000    F
cart. step rms                      0.00304188     0.00666667    T
 

--------
Geometry
--------
Formula: C7H8N4O
Atoms
  Index Symbol   x (angstrom)   y (angstrom)   z (angstrom)
      1      C     3.22739234     0.92692691     2.47254060
      2      N     2.32327136     0.30155652     1.48917748
      3      C     2.41336668     0.74050340     0.14845701
      4      O     3.21717923     1.59233978    -0.22215199
      5      C     1.51182363     0.01705561    -0.77996126
      6      C     1.23235057     0.53252888    -2.06029046
      7      N     1.03072732     0.97301549    -3.12307217
      8      N     1.07719649    -1.22454077    -0.39237336
      9      C     0.20207291    -2.12085627    -0.88475319
     10      C     0.15787582    -3.50016713    -0.27188139
     11      C    -0.66556928    -1.80965046    -1.95095220
     12      N    -1.46536462    -1.64628067    -2.78832299
     13      H     3.04077390     2.00364308     2.57785676
     14      H     3.08619447     0.43016972     3.43689726
     15      H     4.26069921     0.79121919     2.14343748
     16      H     1.37000710     0.18180825     1.82725997
     17      H     1.56484200    -1.53322847     0.45658436
     18      H     0.66824586    -3.51072461     0.69996183
     19      H     0.65024687    -4.23971638    -0.91937240
     20      H    -0.87803187    -3.82610206    -0.12474134

Total System Charge              0.00000

 *** GO1_GOStep18 ***

 Energy gradients wrt nuclear displacements
 ==========================================

     Atom      Cartesian (a.u./angstrom)
                 X         Y         Z
 ----------------------------------------
     1 C     0.000054  0.000101  0.000060
     2 N     0.000108  0.000088 -0.000161
     3 C     0.000317  0.000180  0.000634
     4 O    -0.000139  0.000033 -0.000079
     5 C    -0.000457 -0.000251 -0.000459
     6 C    -0.000015 -0.000023  0.000214
     7 N    -0.000101 -0.000010 -0.000122
     8 N     0.000201  0.000123  0.000024
     9 C    -0.000110 -0.000103 -0.000010
    10 C     0.000050  0.000045  0.000024
    11 C     0.000115 -0.000048  0.000166
    12 N    -0.000067 -0.000087 -0.000050
    13 H    -0.000077  0.000051 -0.000014
    14 H     0.000015  0.000030 -0.000038
    15 H    -0.000060  0.000080 -0.000045
    16 H    -0.000154  0.000020 -0.000145
    17 H    -0.000022 -0.000057 -0.000035
    18 H     0.000101 -0.000028  0.000018
    19 H     0.000147 -0.000080  0.000009
    20 H     0.000094 -0.000064  0.000009
 ----------------------------------------

 dE(predicted):    -0.76789E-06, dE(actual):    -0.18726E-05, Trust radius:    0.800000, all in a.u.
 
----------------------------------------------------------------------
Geometry Convergence after Step  18       (Hartree/Angstrom,Angstrom)
----------------------------------------------------------------------
current energy                               -4.58115793 Hartree
energy change                      -0.00000187     0.00020000    T
constrained gradient max            0.00064567     0.00010000    F
constrained gradient rms            0.00014956     0.00006667    F
gradient max                        0.00064567
gradient rms                        0.00014956
cart. step max                      0.00289465     0.01000000    T
cart. step rms                      0.00106829     0.00666667    T
 

--------
Geometry
--------
Formula: C7H8N4O
Atoms
  Index Symbol   x (angstrom)   y (angstrom)   z (angstrom)
      1      C     3.22777175     0.92733120     2.47233532
      2      N     2.32314740     0.30141749     1.48979524
      3      C     2.41278485     0.74050847     0.14884899
      4      O     3.21650283     1.59249485    -0.22156381
      5      C     1.51125194     0.01710264    -0.77929289
      6      C     1.23182804     0.53258490    -2.05969439
      7      N     1.03040759     0.97306343    -3.12246551
      8      N     1.07687580    -1.22463908    -0.39186946
      9      C     0.20229394    -2.12105882    -0.88488843
     10      C     0.15781257    -3.50053750    -0.27249103
     11      C    -0.66484016    -1.80996052    -1.95159951
     12      N    -1.46423586    -1.64674766    -2.78934455
     13      H     3.04311154     2.00462314     2.57498276
     14      H     3.08487266     0.43306437     3.43771998
     15      H     4.26112372     0.78889657     2.14438489
     16      H     1.37009548     0.18214629     1.82853829
     17      H     1.56436564    -1.53298329     0.45736981
     18      H     0.67051043    -3.51210524     0.69811454
     19      H     0.64773963    -4.24025172    -0.92157499
     20      H    -0.87811980    -3.82544950    -0.12300526

Total System Charge              0.00000

 *** GO1_GOStep19 ***

 Energy gradients wrt nuclear displacements
 ==========================================

     Atom      Cartesian (a.u./angstrom)
                 X         Y         Z
 ----------------------------------------
     1 C     0.000013  0.000133  0.000014
     2 N     0.000027  0.000037  0.000001
     3 C     0.000299  0.000215  0.000317
     4 O    -0.000133  0.000016  0.000003
     5 C    -0.000410 -0.000270 -0.000302
     6 C    -0.000074  0.000062  0.000028
     7 N    -0.000063 -0.000076  0.000026
     8 N     0.000145  0.000054 -0.000010
     9 C    -0.000050 -0.000062  0.000018
    10 C     0.000062  0.000038 -0.000035
    11 C     0.000046 -0.000065  0.000063
    12 N    -0.000013 -0.000086  0.000011
    13 H    -0.000076  0.000044 -0.000019
    14 H    -0.000001  0.000041 -0.000033
    15 H    -0.000032  0.000071 -0.000058
    16 H    -0.000077  0.000017 -0.000116
    17 H     0.000030 -0.000019  0.000029
    18 H     0.000103 -0.000014  0.000027
    19 H     0.000125 -0.000049  0.000009
    20 H     0.000079 -0.000086  0.000026
 ----------------------------------------

 dE(predicted):    -0.34634E-06, dE(actual):    -0.29465E-05, Trust radius:    0.800000, all in a.u.
 
----------------------------------------------------------------------
Geometry Convergence after Step  19       (Hartree/Angstrom,Angstrom)
----------------------------------------------------------------------
current energy                               -4.58116087 Hartree
energy change                      -0.00000295     0.00020000    T
constrained gradient max            0.00037890     0.00010000    F
constrained gradient rms            0.00010489     0.00006667    F
gradient max                        0.00037892
gradient rms                        0.00010489
cart. step max                      0.00290305     0.01000000    T
cart. step rms                      0.00111700     0.00666667    T
 

--------
Geometry
--------
Formula: C7H8N4O
Atoms
  Index Symbol   x (angstrom)   y (angstrom)   z (angstrom)
      1      C     3.22844345     0.92661089     2.47189289
      2      N     2.32285301     0.30106317     1.49002050
      3      C     2.41140754     0.74115538     0.14901179
      4      O     3.21448618     1.59397449    -0.22095946
      5      C     1.51053911     0.01770468    -0.77898244
      6      C     1.23105280     0.53325170    -2.05944173
      7      N     1.02940304     0.97407439    -3.12204198
      8      N     1.07648986    -1.22423666    -0.39167599
      9      C     0.20285341    -2.12118043    -0.88518247
     10      C     0.15765789    -3.50031656    -0.27202350
     11      C    -0.66317303    -1.81109561    -1.95315375
     12      N    -1.46154756    -1.64873387    -2.79202910
     13      H     3.04570129     2.00435523     2.57310803
     14      H     3.08441047     0.43386850     3.43789100
     15      H     4.26170341     0.78599352     2.14449908
     16      H     1.37029091     0.18175356     1.83004554
     17      H     1.56371565    -1.53191212     0.45799589
     18      H     0.67150935    -3.51199595     0.69794975
     19      H     0.64593072    -4.24070615    -0.92149428
     20      H    -0.87842749    -3.82412815    -0.12112977

Total System Charge              0.00000

 *** GO1_GOStep20 ***

 Energy gradients wrt nuclear displacements
 ==========================================

     Atom      Cartesian (a.u./angstrom)
                 X         Y         Z
 ----------------------------------------
     1 C    -0.000021  0.000093 -0.000010
     2 N    -0.000081  0.000007  0.000111
     3 C     0.000084  0.000157 -0.000101
     4 O    -0.000095  0.000030  0.000018
     5 C    -0.000179 -0.000147 -0.000019
     6 C    -0.000056  0.000031  0.000033
     7 N    -0.000089 -0.000030 -0.000052
     8 N     0.000077 -0.000032 -0.000017
     9 C     0.000028 -0.000003  0.000042
    10 C     0.000066 -0.000012 -0.000042
    11 C     0.000052 -0.000097  0.000040
    12 N    -0.000026 -0.000066  0.000003
    13 H    -0.000065  0.000039 -0.000023
    14 H    -0.000010  0.000055 -0.000024
    15 H    -0.000013  0.000081 -0.000050
    16 H     0.000000 -0.000010 -0.000031
    17 H     0.000054  0.000015  0.000048
    18 H     0.000091 -0.000012  0.000029
    19 H     0.000096 -0.000007  0.000013
    20 H     0.000087 -0.000092  0.000034
 ----------------------------------------

 dE(predicted):    -0.30529E-06, dE(actual):    -0.13404E-05, Trust radius:    0.800000, all in a.u.
 
----------------------------------------------------------------------
Geometry Convergence after Step  20       (Hartree/Angstrom,Angstrom)
----------------------------------------------------------------------
current energy                               -4.58116221 Hartree
energy change                      -0.00000134     0.00020000    T
constrained gradient max            0.00014851     0.00010000    F
constrained gradient rms            0.00004767     0.00006667    T
gradient max                        0.00014849
gradient rms                        0.00004767
cart. step max                      0.00159985     0.01000000    T
cart. step rms                      0.00046701     0.00666667    T
 

--------
Geometry
--------
Formula: C7H8N4O
Atoms
  Index Symbol   x (angstrom)   y (angstrom)   z (angstrom)
      1      C     3.22852489     0.92644515     2.47181613
      2      N     2.32291062     0.30079131     1.49004192
      3      C     2.41116424     0.74115385     0.14910120
      4      O     3.21414078     1.59414839    -0.22077974
      5      C     1.51045363     0.01790416    -0.77895482
      6      C     1.23093313     0.53365899    -2.05932354
      7      N     1.02922187     0.97481420    -3.12174733
      8      N     1.07631720    -1.22409676    -0.39180352
      9      C     0.20306192    -2.12128997    -0.88548708
     10      C     0.15756981    -3.50018987    -0.27175925
     11      C    -0.66267166    -1.81165142    -1.95383647
     12      N    -1.46070589    -1.64969951    -2.79308079
     13      H     3.04571619     2.00418944     2.57301092
     14      H     3.08459146     0.43376326     3.43786336
     15      H     4.26179375     0.78594932     2.14442490
     16      H     1.37044850     0.18155662     1.83037761
     17      H     1.56339869    -1.53169406     0.45795441
     18      H     0.67257943    -3.51194997     0.69758101
     19      H     0.64445404    -4.24118482    -0.92156901
     20      H    -0.87860260    -3.82311830    -0.11952991

Total System Charge              0.00000

 *** GO1_GOStep21 ***

 Energy gradients wrt nuclear displacements
 ==========================================

     Atom      Cartesian (a.u./angstrom)
                 X         Y         Z
 ----------------------------------------
     1 C    -0.000045  0.000065 -0.000035
     2 N    -0.000065  0.000005  0.000058
     3 C    -0.000032  0.000073 -0.000118
     4 O    -0.000075  0.000039  0.000004
     5 C    -0.000057 -0.000030  0.000031
     6 C    -0.000071  0.000041 -0.000042
     7 N    -0.000072 -0.000052  0.000031
     8 N     0.000035 -0.000060  0.000002
     9 C     0.000036 -0.000001  0.000023
    10 C     0.000088 -0.000027 -0.000007
    11 C    -0.000014 -0.000092 -0.000018
    12 N     0.000028 -0.000077  0.000063
    13 H    -0.000061  0.000048 -0.000019
    14 H    -0.000008  0.000062 -0.000018
    15 H    -0.000018  0.000092 -0.000039
    16 H     0.000018  0.000000  0.000001
    17 H     0.000039  0.000023  0.000021
    18 H     0.000088 -0.000018  0.000018
    19 H     0.000095 -0.000013  0.000015
    20 H     0.000089 -0.000079  0.000031
 ----------------------------------------
 
----------------------------------------------------------------------
Geometry Convergence after Step  21       (Hartree/Angstrom,Angstrom)
----------------------------------------------------------------------
current energy                               -4.58116264 Hartree
energy change                      -0.00000042     0.00020000    T
constrained gradient max            0.00010580     0.00010000    F
constrained gradient rms            0.00002711     0.00006667    T
gradient max                        0.00010579
gradient rms                        0.00002711
cart. step max                      0.00116407     0.01000000    T
cart. step rms                      0.00041367     0.00666667    T
 

--------
Geometry
--------
Formula: C7H8N4O
Atoms
  Index Symbol   x (angstrom)   y (angstrom)   z (angstrom)
      1      C     3.22868344     0.92636352     2.47184143
      2      N     2.32308628     0.30071164     1.49003867
      3      C     2.41108504     0.74118721     0.14918161
      4      O     3.21390793     1.59433717    -0.22074950
      5      C     1.51039353     0.01805258    -0.77893332
      6      C     1.23065064     0.53407055    -2.05913453
      7      N     1.02861824     0.97558021    -3.12136562
      8      N     1.07619730    -1.22400351    -0.39194650
      9      C     0.20321491    -2.12140692    -0.88576025
     10      C     0.15738191    -3.50008178    -0.27149525
     11      C    -0.66212634    -1.81219511    -1.95454974
     12      N    -1.45979146    -1.65069123    -2.79424486
     13      H     3.04584153     2.00410865     2.57305737
     14      H     3.08474410     0.43365980     3.43787816
     15      H     4.26197021     0.78592397     2.14451506
     16      H     1.37067938     0.18130818     1.83051197
     17      H     1.56320456    -1.53167057     0.45780227
     18      H     0.67312132    -3.51182310     0.69744767
     19      H     0.64331823    -4.24161559    -0.92140085
     20      H    -0.87888076    -3.82231567    -0.11839380

Total System Charge              0.00000

 *** GO1_GOStep22 ***

 Energy gradients wrt nuclear displacements
 ==========================================

     Atom      Cartesian (a.u./angstrom)
                 X         Y         Z
 ----------------------------------------
     1 C    -0.000041  0.000045 -0.000034
     2 N    -0.000023  0.000032 -0.000005
     3 C    -0.000092  0.000008 -0.000063
     4 O    -0.000067  0.000058 -0.000020
     5 C     0.000004  0.000041  0.000027
     6 C    -0.000054 -0.000004  0.000016
     7 N    -0.000087 -0.000025 -0.000018
     8 N     0.000012 -0.000045  0.000012
     9 C     0.000025 -0.000018  0.000015
    10 C     0.000086 -0.000038  0.000019
    11 C     0.000021 -0.000100  0.000015
    12 N    -0.000005 -0.000070  0.000031
    13 H    -0.000060  0.000057 -0.000019
    14 H    -0.000004  0.000062 -0.000015
    15 H    -0.000027  0.000097 -0.000027
    16 H     0.000001  0.000003  0.000013
    17 H     0.000028  0.000013 -0.000004
    18 H     0.000091 -0.000022  0.000011
    19 H     0.000099 -0.000024  0.000015
    20 H     0.000092 -0.000070  0.000027
 ----------------------------------------
 
---------------------------------------------------------
Geometry Convergence after Step  22       ** CONVERGED **
---------------------------------------------------------
current energy                               -4.58116239 Hartree
energy change                       0.00000025     0.00020000    T
constrained gradient max            0.00005005     0.00010000    T
constrained gradient rms            0.00001549     0.00006667    T
gradient max                        0.00005004
gradient rms                        0.00001549
cart. step max                      0.00088507     0.01000000    T
cart. step rms                      0.00029838     0.00666667    T
 
Geometry optimization converged

Optimized geometry:

--------
Geometry
--------
Formula: C7H8N4O
Atoms
  Index Symbol   x (angstrom)   y (angstrom)   z (angstrom)
      1      C     3.22868344     0.92636352     2.47184143
      2      N     2.32308628     0.30071164     1.49003867
      3      C     2.41108504     0.74118721     0.14918161
      4      O     3.21390793     1.59433717    -0.22074950
      5      C     1.51039353     0.01805258    -0.77893332
      6      C     1.23065064     0.53407055    -2.05913453
      7      N     1.02861824     0.97558021    -3.12136562
      8      N     1.07619730    -1.22400351    -0.39194650
      9      C     0.20321491    -2.12140692    -0.88576025
     10      C     0.15738191    -3.50008178    -0.27149525
     11      C    -0.66212634    -1.81219511    -1.95454974
     12      N    -1.45979146    -1.65069123    -2.79424486
     13      H     3.04584153     2.00410865     2.57305737
     14      H     3.08474410     0.43365980     3.43787816
     15      H     4.26197021     0.78592397     2.14451506
     16      H     1.37067938     0.18130818     1.83051197
     17      H     1.56320456    -1.53167057     0.45780227
     18      H     0.67312132    -3.51182310     0.69744767
     19      H     0.64331823    -4.24161559    -0.92140085
     20      H    -0.87888076    -3.82231567    -0.11839380

Total System Charge              0.00000

Performing a single point calculation on the final geometry ...

 *** adf ***



 ===========================
 A T T A C H E D   F I L E S
 ===========================
  
 Restart/tmp/amstmp_c4_fragA_opt_kid0.2069189083/GO1_GOStep22.rkf*** GO1_GOStep22 ***



 ===============================
 M O D E L   P A R A M E T E R S
 ===============================
  
 DENSITY FUNCTIONAL POTENTIAL (scf)
    LDA:                               Exchange only                           == Not Default ==
    Gradient Corrections:              Becke88 LYP                             == Not Default ==

 SPIN  (restricted / unrestr.)
    Molecule:                          Restricted                               
    Fragments:                         Restricted                               

 OTHER ASPECTS
    Relativistic Corrections:          scalar (ZORA,MAPA)                       

    Nuclear Charge Density Model:      Point Charge Nuclei                      
    Core Treatment:                    Frozen Orbital(s)                        

    Hyperfine or Zeeman Interaction:   ---                                      

 Settings for Grimme D3 dispersion correction

      damping                        BJ
      s6                          1.000
[...]
                                    1.32%     3 S              40.869  0.00    13 H
                                    1.28%     2 S             -13.620  2.00     5 C
                                    1.28%     1 S              -6.532  1.00    19 H
                                   -1.23%     2 S               2.394  0.00    18 H
                                    1.22%     2 P:y             4.589  0.00     6 C
                                    1.16%     2 P:x             4.589  0.00     2 C
                                   -1.04%     3 S              14.073  0.00     8 N
                                    1.00%     1 P:y            -7.062  1.00     8 N
       1.716  0.00    57 A         19.32%     1 S              -6.532  1.00    18 H
                                   18.84%     1 S              -6.532  1.00    17 H
                                   13.10%     1 S              -6.532  1.00    20 H
                                    8.57%     1 S              -6.532  1.00    15 H
                                    8.39%     2 P:z             4.589  0.00     3 C
                                   -7.62%     2 P:x             4.589  0.00     6 C
                                    7.17%     2 P:y             4.589  0.00     5 C
                                    6.18%     1 P:x            -5.239  0.67     6 C
                                    6.00%     1 S              -6.532  1.00    13 H
                                    5.35%     2 P:z             4.589  0.00     5 C
                                   -5.25%     2 P:z             7.649  0.00    10 N
                                   -5.23%     2 S               2.394  0.00    17 H
                                    4.86%     2 P:x             4.589  0.00     3 C
                                    4.66%     2 P:z             4.589  0.00     2 C
                                   -4.47%     2 P:x             4.589  0.00     1 C
                                    3.69%     2 P:z             4.589  0.00     7 C
                                    3.63%     1 P:x            -5.239  0.67     7 C
                                    3.61%     1 P:z            -5.239  0.67     6 C
                                    3.37%     2 P:z             4.589  0.00     4 C
                                   -3.25%     2 P:x             7.649  0.00    10 N
                                   -3.23%     3 S              14.073  0.00     9 N
                                    3.22%     2 S               2.394  0.00    15 H
                                    3.20%     1 P:z            -5.239  0.67     5 C
                                    2.68%     2 S               2.394  0.00    13 H
                                   -2.62%     2 P:y             4.589  0.00     1 C
                                   -2.59%     3 S              14.073  0.00    11 N
                                   -2.50%     2 P:z             4.589  0.00     6 C
                                    2.30%     1 P:z            -5.239  0.67     4 C
                                    2.06%     1 P:y            -5.239  0.67     7 C
                                   -1.88%     2 S               2.394  0.00    20 H
                                    1.80%     2 S             -18.450  2.00    10 N
                                   -1.79%     2 P:x             4.589  0.00     7 C
                                    1.63%     3 S              40.869  0.00    17 H
                                    1.62%     1 P:z            -5.239  0.67     2 C
                                   -1.58%     2 S               2.394  0.00    18 H
                                    1.50%     1 P:y            -5.239  0.67     1 C
                                   -1.16%     1 P:y            -5.239  0.67     5 C
                                    1.16%     1 P:z            -7.062  1.00    11 N
                                    1.16%     1 P:x            -5.239  0.67     3 C
                                   -1.15%     2 P:y             4.589  0.00     3 C

 Energy gradients wrt nuclear displacements
 ==========================================

     Atom      Cartesian (a.u./angstrom)
                 X         Y         Z
 ----------------------------------------
     1 C    -0.000041  0.000045 -0.000034
     2 N    -0.000022  0.000032 -0.000005
     3 C    -0.000092  0.000008 -0.000063
     4 O    -0.000067  0.000058 -0.000020
     5 C     0.000004  0.000041  0.000027
     6 C    -0.000054 -0.000004  0.000016
     7 N    -0.000087 -0.000025 -0.000018
     8 N     0.000012 -0.000044  0.000012
     9 C     0.000025 -0.000018  0.000015
    10 C     0.000086 -0.000038  0.000019
    11 C     0.000021 -0.000100  0.000015
    12 N    -0.000005 -0.000070  0.000031
    13 H    -0.000060  0.000057 -0.000019
    14 H    -0.000004  0.000062 -0.000015
    15 H    -0.000027  0.000097 -0.000027
    16 H     0.000001  0.000003  0.000014
    17 H     0.000028  0.000013 -0.000004
    18 H     0.000091 -0.000022  0.000011
    19 H     0.000099 -0.000024  0.000015
    20 H     0.000092 -0.000070  0.000027
 ----------------------------------------



 =======================================================================
 Electrostatic potential at the Nuclei due to electrons and other nuclei
 =======================================================================
  
         Atom                  Potential
         ----                  ---------
     1)   C                  14.73547364
     2)   N                  18.36097998
     3)   C                  14.66345557
     4)   O                  22.41148861
     5)   C                  14.69289709
     6)   C                  14.75825816
     7)   N                  18.43488424
     8)   N                  18.28022851
     9)   C                  14.67318927
    10)   C                  14.73207432
    11)   C                  14.74523497
    12)   N                  18.41925445
    13)   H                   1.09382430
    14)   H                   1.08335147
    15)   H                   1.09000097
    16)   H                   0.98951747
    17)   H                   0.93982047
    18)   H                   1.05548761
    19)   H                   1.06400388
    20)   H                   1.06458433
 Mulliken charges used for AMS results%charges...


    =====================
     CALCULATION RESULTS
    =====================

Energy (hartree)            -4.58116239

Gradients (hartree/bohr)
  Index   Atom            d/dx            d/dy            d/dz
      1      C   -0.0000216114    0.0000237800   -0.0000177863
      2      N   -0.0000118767    0.0000168668   -0.0000024010
      3      C   -0.0000484406    0.0000041654   -0.0000331338
      4      O   -0.0000352506    0.0000305877   -0.0000105439
      5      C    0.0000021793    0.0000215317    0.0000144165
      6      C   -0.0000285864   -0.0000019751    0.0000086266
      7      N   -0.0000462989   -0.0000132804   -0.0000094763
      8      N    0.0000062570   -0.0000234624    0.0000063207
      9      C    0.0000133814   -0.0000095091    0.0000077779
     10      C    0.0000454451   -0.0000198949    0.0000102521
     11      C    0.0000111574   -0.0000529277    0.0000078200
     12      N   -0.0000025113   -0.0000372241    0.0000165667
     13      H   -0.0000316912    0.0000300603   -0.0000097970
     14      H   -0.0000022715    0.0000329350   -0.0000076734
     15      H   -0.0000143798    0.0000514483   -0.0000140774
     16      H    0.0000003974    0.0000016973    0.0000071527
     17      H    0.0000150605    0.0000069438   -0.0000021929
     18      H    0.0000482126   -0.0000117816    0.0000056979
     19      H    0.0000523630   -0.0000127375    0.0000081106
     20      H    0.0000484646   -0.0000372237    0.0000143402


--------------
Atomic charges
--------------
  Index   Atom    Charge
      1      C    0.8064
      2      N   -0.2550
      3      C    0.5689
      4      O   -0.5363
      5      C   -0.0006
      6      C    0.1179
      7      N   -0.2316
      8      N    0.0535
      9      C    0.1016
     10      C    0.6192
     11      C    0.0867
     12      N   -0.2202
     13      H   -0.1759
     14      H   -0.2320
     15      H   -0.1703
     16      H   -0.0117
     17      H   -0.0141
     18      H   -0.2207
     19      H   -0.1342
     20      H   -0.1518


Dipole moment vector    (Debye):     0.66539287   -5.12787653    8.42074818
              magnitude (Debye):     9.88164284


-----------------------
Molecular orbitals info
-----------------------
n orbitals:              400
n spin:                    1

Note: only printing virtual orbitals with
      energy smaller than HOMO + 100. eV

HOMO (eV):              -5.7002
LUMO (eV):              -3.7109
HOMO-LUMO gap (eV):      1.9892

   Index   Energy (eV)    Occupation
     250       94.0496         0.000       
     249       93.6923         0.000       
     248       93.5925         0.000       
     247       93.5377         0.000       
     246       92.6145         0.000       
     245       92.1616         0.000       
     244       91.6385         0.000       
     243       91.3704         0.000       
     242       90.9317         0.000       
     241       89.9597         0.000       
     240       89.5137         0.000       
     239       88.9534         0.000       
     238       87.6146         0.000       
     237       87.4064         0.000       
     236       85.8773         0.000       
     235       85.4171         0.000       
     234       83.3552         0.000       
     233       82.7306         0.000       
     232       82.1467         0.000       
     231       81.9635         0.000       
     230       81.5079         0.000       
     229       81.1132         0.000       
     228       80.9501         0.000       
     227       80.3461         0.000       
     226       79.7152         0.000       
     225       78.4073         0.000       
     224       77.6624         0.000       
     223       77.2044         0.000       
     222       76.8914         0.000       
     221       76.6885         0.000       
     220       76.3297         0.000       
     219       75.9443         0.000       
     218       75.5710         0.000       
     217       75.1588         0.000       
     216       74.5713         0.000       
     215       74.1939         0.000       
     214       73.4532         0.000       
     213       72.7130         0.000       
     212       71.8601         0.000       
     211       71.2334         0.000       
     210       70.5297         0.000       
     209       70.1589         0.000       
     208       68.8961         0.000       
     207       68.6145         0.000       
     206       67.9536         0.000       
     205       67.0529         0.000       
     204       66.1607         0.000       
     203       64.8512         0.000       
     202       64.1840         0.000       
     201       63.8922         0.000       
     200       63.4569         0.000       
     199       62.9967         0.000       
     198       61.3496         0.000       
     197       60.4109         0.000       
     196       60.0552         0.000       
     195       59.6847         0.000       
     194       58.9446         0.000       
     193       58.3793         0.000       
     192       58.1976         0.000       
     191       57.0007         0.000       
     190       56.6422         0.000       
     189       56.2902         0.000       
     188       55.8021         0.000       
     187       55.1833         0.000       
     186       54.7314         0.000       
     185       54.5680         0.000       
     184       53.6355         0.000       
     183       52.8971         0.000       
     182       52.3001         0.000       
     181       51.1296         0.000       
     180       50.5951         0.000       
     179       50.4110         0.000       
     178       50.0132         0.000       
     177       49.2908         0.000       
     176       48.1740         0.000       
     175       47.8704         0.000       
     174       47.6206         0.000       
     173       46.8499         0.000       
     172       46.4708         0.000       
     171       45.6256         0.000       
     170       45.4679         0.000       
     169       44.9144         0.000       
     168       44.4849         0.000       
     167       43.9326         0.000       
     166       43.6848         0.000       
     165       43.2905         0.000       
     164       43.1675         0.000       
     163       41.9981         0.000       
     162       41.3938         0.000       
     161       40.7535         0.000       
     160       40.2847         0.000       
     159       40.1717         0.000       
     158       39.3722         0.000       
     157       39.0100         0.000       
     156       38.3442         0.000       
     155       38.0640         0.000       
     154       37.6536         0.000       
     153       37.2601         0.000       
     152       37.1858         0.000       
     151       36.7889         0.000       
     150       35.8452         0.000       
     149       35.3685         0.000       
     148       35.1621         0.000       
     147       34.8341         0.000       
     146       34.3642         0.000       
     145       33.6457         0.000       
     144       33.2344         0.000       
     143       32.8708         0.000       
     142       32.5058         0.000       
     141       32.1117         0.000       
     140       31.4578         0.000       
     139       31.1072         0.000       
     138       30.5130         0.000       
     137       30.4059         0.000       
     136       29.6353         0.000       
     135       29.5423         0.000       
     134       29.3930         0.000       
     133       28.2793         0.000       
     132       27.7153         0.000       
     131       27.5107         0.000       
     130       27.4284         0.000       
     129       27.1529         0.000       
     128       26.9539         0.000       
     127       26.6823         0.000       
     126       26.3545         0.000       
     125       26.2100         0.000       
     124       25.9888         0.000       
     123       25.1243         0.000       
     122       24.5178         0.000       
     121       23.9106         0.000       
     120       23.5457         0.000       
     119       23.1383         0.000       
     118       23.0476         0.000       
     117       22.6791         0.000       
     116       22.0214         0.000       
     115       21.7281         0.000       
     114       21.4406         0.000       
     113       21.0236         0.000       
     112       20.4667         0.000       
     111       20.2041         0.000       
     110       18.6841         0.000       
     109       18.3828         0.000       
     108       17.6661         0.000       
     107       17.0498         0.000       
     106       16.9394         0.000       
     105       16.5875         0.000       
     104       16.0203         0.000       
     103       15.1622         0.000       
     102       14.9318         0.000       
     101       14.4282         0.000       
     100       13.8432         0.000       
      99       13.5469         0.000       
      98       12.6209         0.000       
      97       12.3204         0.000       
      96       12.0096         0.000       
      95       11.7550         0.000       
      94       11.4832         0.000       
      93       11.3175         0.000       
      92       10.8011         0.000       
      91       10.6283         0.000       
      90       10.2307         0.000       
      89       10.1315         0.000       
      88        9.8518         0.000       
      87        9.6004         0.000       
      86        9.3256         0.000       
      85        9.0971         0.000       
      84        8.8176         0.000       
      83        8.4806         0.000       
      82        8.3619         0.000       
      81        7.7471         0.000       
      80        7.5926         0.000       
      79        7.4747         0.000       
      78        7.3459         0.000       
      77        7.0070         0.000       
      76        6.8505         0.000       
      75        6.5497         0.000       
      74        6.2393         0.000       
      73        5.9096         0.000       
      72        5.5620         0.000       
      71        5.3272         0.000       
      70        5.1748         0.000       
      69        4.7869         0.000       
      68        4.4162         0.000       
      67        4.2892         0.000       
      66        4.1911         0.000       
      65        3.8560         0.000       
      64        3.6974         0.000       
      63        3.4487         0.000       
      62        3.2000         0.000       
      61        3.0462         0.000       
      60        2.5307         0.000       
      59        2.2552         0.000       
      58        1.8977         0.000       
      57        1.7160         0.000       
      56        1.4290         0.000       
      55        1.1490         0.000       
      54        1.0694         0.000       
      53        0.8196         0.000       
      52        0.4080         0.000       
      51        0.0095         0.000       
      50       -0.0641         0.000       
      49       -0.2949         0.000       
      48       -0.6521         0.000       
      47       -1.1425         0.000       
      46       -1.3792         0.000       
      45       -1.6582         0.000       
      44       -3.7109         0.000 < LUMO
      43       -5.7002         2.000 < HOMO
      42       -6.4363         2.000       
      41       -7.1477         2.000       
      40       -8.1098         2.000       
      39       -8.5557         2.000       
      38       -8.6033         2.000       
      37       -8.8300         2.000       
      36       -8.9838         2.000       
      35       -9.0680         2.000       
      34       -9.7604         2.000       
      33      -10.0694         2.000       
      32      -10.5731         2.000       
      31      -10.8757         2.000       
      30      -11.0535         2.000       
      29      -11.2823         2.000       
      28      -11.6940         2.000       
      27      -11.9007         2.000       
      26      -12.2470         2.000       
      25      -13.3138         2.000       
      24      -14.5918         2.000       
      23      -15.3151         2.000       
      22      -15.6395         2.000       
      21      -17.6577         2.000       
      20      -18.0730         2.000       
      19      -18.9464         2.000       
      18      -20.8693         2.000       
      17      -22.4405         2.000       
      16      -22.8445         2.000       
      15      -23.4094         2.000       
      14      -25.9192         2.000       
      13      -26.4636         2.000       
      12     -271.1428         2.000       
      11     -271.3392         2.000       
      10     -271.4486         2.000       
       9     -271.5067         2.000       
       8     -272.4867         2.000       
       7     -273.0147         2.000       
       6     -273.3990         2.000       
       5     -381.6378         2.000       
       4     -382.0677         2.000       
       3     -383.0062         2.000       
       2     -385.2266         2.000       
       1     -511.2007         2.000       

AMS application finished. Exiting.
NORMAL TERMINATION
     Total cpu time:    1321.95
  Total system time:       4.46
 Total elapsed time:    1333.72
NORMAL TERMINATION
