
 *******************************************************************************
 *                                                                             *
 *  --------------------------------                                           *
 *   Amsterdam Modeling Suite (AMS)              2026.103                      *
 *  --------------------------------                                           *
 *                                               r260501 2026-05-01 873454b5   *
 *                                                                             *
 *                                                                             *
 *                              =================                              *
 *                              |               |                              *
 *                              |     A M S     |                              *
 *                              |               |                              *
 *                              =================                              *
 *                                                                             *
 *                                                                             *
 *   Online information and documentation:  https://www.scm.com/support/       *
 *   E-mail:  support@scm.com   info@scm.com                                   *
 *                                                                             *
 *   Scientific publications using AMS results must be properly referenced     *
 *   See the User Manuals (or the web site) for recommended citations          *
 *   The terms and conditions of the End User License Agreement apply to       *
 *   the use of AMS, https://www.scm.com/license-terms/                        *
 *                                                                             *
 **********************  x86_64_linux_intel / intelmpi  ************************
 
 Licensed to: Jong-June Jeon / University of Seoul 2026-06-02 13:44:15
 SCM User ID: u30731
  
 AMS 2026.103  RunTime: Jun04-2026 03:46:41  ShM Nodes: 1  Procs: 1

 AMS jobname: c2_fragB_ts
 AMS jobid  : 251067206

 Start   directory: /gpfs/home1/yeseo1ee/projects/eda-asm-prediction/ADF_800/adf_outputs/batch_007/qmrxn20_sn2_E_A_E_B_B_A/
 Results directory: /gpfs/home1/yeseo1ee/projects/eda-asm-prediction/ADF_800/adf_outputs/batch_007/qmrxn20_sn2_E_A_E_B_B_A/c2_fragB_ts.results/
 Scratch directory: /tmp/amstmp_c2_fragB_ts_kid0.251067206/

 RNG seed: -59864815 -1815582503 167422925 705714068 961974919 1751421175 291572500 346836124



                      ************************************************************************
                      *  ADF 2026.103  RunTime: Jun04-2026 03:46:41  ShM Nodes: 1  Procs: 1  *
                      ************************************************************************
  

       ****************************
       * SINGLE POINT CALCULATION *
       ****************************

--------
Geometry
--------
Formula: C2H6ClN3O2
Atoms
  Index Symbol   x (angstrom)   y (angstrom)   z (angstrom)
      1      C     0.30070267    -0.04786202    -0.07743832
      2      H     1.58417166     1.52064091    -0.70678882
      3     Cl    -1.75758867    -0.13673032    -0.50111771
      4      C     0.63239357     1.43899827    -0.17849421
      5      H     0.13793592    -0.39800493     0.92734583
      6      N     0.78670963    -0.89761881    -1.13249845
      7      H     0.09755337    -1.61482211    -1.31281888
      8      H     1.64979562    -1.30240015    -0.80193880
      9      N     0.56732993     2.02315133     1.13308850
     10      H     0.79759136     3.00770678     1.08206213
     11      H     1.29995698     1.52840559     1.63800599
     12      N    -0.28458423     2.22479375    -1.10935779
     13      O    -0.98267491     3.12612271    -0.64989906
     14      O    -0.19060230     1.95216982    -2.30191043

Total System Charge              0.00000


----------------
ADF Engine Input
----------------
 
   Basis
     Type TZ2P
     Core None
   End
   XC
     GGA BLYP
     Dispersion GRIMME3 BJDAMP
   End
   Symmetry NOSYM
   NumericalQuality Normal
   Unrestricted No
   SCF
     Iterations 200
     Converge 1.0e-6
   End
   Save TAPE21
 

 Title: *** (NO TITLE) ***

 *** adf ***



 ===========================
 A T T A C H E D   F I L E S
 ===========================
  



 ===============================
 M O D E L   P A R A M E T E R S
 ===============================
  
 DENSITY FUNCTIONAL POTENTIAL (scf)
    LDA:                               Exchange only                           == Not Default ==
    Gradient Corrections:              Becke88 LYP                             == Not Default ==

 SPIN  (restricted / unrestr.)
    Molecule:                          Restricted                               
    Fragments:                         Restricted                               

 OTHER ASPECTS
    Relativistic Corrections:          scalar (ZORA,MAPA)                       

    Nuclear Charge Density Model:      Point Charge Nuclei                      
    Core Treatment:                    Frozen Orbital(s)                        

    Hyperfine or Zeeman Interaction:   ---                                      

 Settings for Grimme D3 dispersion correction

      damping                        BJ
      s6                          1.000
      s8                          2.700
      a1                          0.430
      a2                          4.236

 Other (technical) parameters

      alpha                      14.000
      version                         4
 


 Fragment File(s)
 ----------------
 C:
         file : /gpfs/home1/yeseo1ee/projects/eda-asm-prediction/ADF_800/adf_outputs/batch_007/qmrxn20_sn2_E_A_E_B_B_A/c2_fragB_ts.results/t21.50BA88D5.C
         jobid: 0
         title: Carbon (TZ2P)
 H:
         file : /gpfs/home1/yeseo1ee/projects/eda-asm-prediction/ADF_800/adf_outputs/batch_007/qmrxn20_sn2_E_A_E_B_B_A/c2_fragB_ts.results/t21.6F35CCAB.H
         jobid: 0
         title: Hydrogen (TZ2P)
 Cl:
         file : /gpfs/home1/yeseo1ee/projects/eda-asm-prediction/ADF_800/adf_outputs/batch_007/qmrxn20_sn2_E_A_E_B_B_A/c2_fragB_ts.results/t21.3FD35465.Cl
         jobid: 0
         title: Chlorine (TZ2P)
 N:
         file : /gpfs/home1/yeseo1ee/projects/eda-asm-prediction/ADF_800/adf_outputs/batch_007/qmrxn20_sn2_E_A_E_B_B_A/c2_fragB_ts.results/t21.44EAA48D.N
         jobid: 0
         title: Nitrogen (TZ2P)
 O:
         file : /gpfs/home1/yeseo1ee/projects/eda-asm-prediction/ADF_800/adf_outputs/batch_007/qmrxn20_sn2_E_A_E_B_B_A/c2_fragB_ts.results/t21.6E90ABAE.O
         jobid: 0
         title: Oxygen (TZ2P)



 ===============
 G E O M E T R Y  ***  3D  Molecule  ***
 ===============
  

 ATOMS
 =====                            X Y Z                    CHARGE
                                (Angstrom)             Nucl     +Core       At.Mass
                       --------------------------    ----------------       -------
    1  C               0.3007   -0.0479   -0.0774      6.00      6.00       12.0000
    2  H               1.5842    1.5206   -0.7068      1.00      1.00        1.0078
    3  Cl             -1.7576   -0.1367   -0.5011     17.00     17.00       34.9689
    4  C               0.6324    1.4390   -0.1785      6.00      6.00       12.0000
    5  H               0.1379   -0.3980    0.9273      1.00      1.00        1.0078
    6  N               0.7867   -0.8976   -1.1325      7.00      7.00       14.0031
    7  H               0.0976   -1.6148   -1.3128      1.00      1.00        1.0078
    8  H               1.6498   -1.3024   -0.8019      1.00      1.00        1.0078
    9  N               0.5673    2.0232    1.1331      7.00      7.00       14.0031
   10  H               0.7976    3.0077    1.0821      1.00      1.00        1.0078
   11  H               1.3000    1.5284    1.6380      1.00      1.00        1.0078
   12  N              -0.2846    2.2248   -1.1094      7.00      7.00       14.0031
   13  O              -0.9827    3.1261   -0.6499      8.00      8.00       15.9949
   14  O              -0.1906    1.9522   -2.3019      8.00      8.00       15.9949


 FRAGMENTS
 =========                                     Atoms in this Fragment     Cart. coord.s (Angstrom)
                                               -------------------------------------------------------
    1  C                                                 1  C            0.3007   -0.0479   -0.0774
    2  C                                                 4  C            0.6324    1.4390   -0.1785
    3  H                                                 2  H            1.5842    1.5206   -0.7068
    4  H                                                 5  H            0.1379   -0.3980    0.9273
    5  H                                                 7  H            0.0976   -1.6148   -1.3128
    6  H                                                 8  H            1.6498   -1.3024   -0.8019
    7  H                                                10  H            0.7976    3.0077    1.0821
    8  H                                                11  H            1.3000    1.5284    1.6380
    9  Cl                                                3  Cl          -1.7576   -0.1367   -0.5011
   10  N                                                 6  N            0.7867   -0.8976   -1.1325
   11  N                                                 9  N            0.5673    2.0232    1.1331
   12  N                                                12  N           -0.2846    2.2248   -1.1094
   13  O                                                13  O           -0.9827    3.1261   -0.6499
   14  O                                                14  O           -0.1906    1.9522   -2.3019


 Interatomic Distance Matrix (Angstrom)
 --------------------------------------

   1)     0.000
   2)     2.122   0.000
   3)     2.103   3.736   0.000
   4)     1.527   1.092   2.881   0.000
   5)     1.076   2.906   2.388   2.200   0.000
   6)     1.439   2.582   2.730   2.529   2.217   0.000
   7)     2.006   3.523   2.507   3.301   2.550   1.011   0.000
   8)     1.980   2.825   3.614   2.990   2.469   1.009   1.664   0.000
   9)     2.414   2.161   3.569   1.437   2.468   3.703   4.409   3.997   0.000
  10)     3.306   2.456   4.350   2.019   3.472   4.490   5.253   4.780   1.012   0.000
  11)     2.535   2.362   4.086   1.937   2.359   3.718   4.476   3.754   1.018   1.658
          0.000
  12)     2.564   2.037   2.849   1.525   3.348   3.301   3.864   4.035   2.407   2.566
          3.247   0.000
  13)     3.471   3.028   3.357   2.383   4.020   4.422   4.907   5.154   2.607   2.487
          3.605   1.229   0.000
  14)     3.031   2.425   3.172   2.334   4.007   3.232   3.713   4.029   3.518   3.680
          4.234   1.227   2.176   0.000

 Min. Distance =    1.0090
 Max. Distance =    5.2529



 =====================================
 S Y M M E T R Y ,   E L E C T R O N S
 =====================================
  
 Symmetry: NOSYM

 Irreducible Representations, including subspecies
 -------------------------------------------------
 A


 Configuration of Valence Electrons
 ==================================
 ( determined in the SCF procedure )

 Total:   72

 Net Charge: 0 (Nuclei minus Electrons)

 Aufbau principle for MO occupations will be applied through SCF cycle no.     100
 Thereafter, the program will assign electrons to MOs that are spatially
 similar to the occupied MOs in a "reference" cycle ("KeepOrbitals").
 The reference cycle is always the PREVIOUS cycle: it will evolve with
 the SCF procedure.
 ***************************************************************************************************



                                      ****************************************
                                      *  B U I L D : (Fragments, Functions)  *
                                      ****************************************
  



 =======
 S F O s  ***  (Symmetrized Fragment Orbitals)  ***
 =======
  
 SFOs are linear combinations of (valence) Fragment Orbitals (FOs), such that the SFOs transform as the
 irreducible representations of the (molecular) symmetry group. Each SFO is therefore characterized by
 an irrep of the molecule and by a few (or only one) generating FOs.
 The SFOs constitute a symmetry-adapted basis for the Fock matrix. The MO eigenvector coefficients in
 this basis provide a direct interpretation of the MOs in terms of Frontier Orbital Theory.

 The SFOs are combined with auxiliary Core Functions (CFs) to ensure orthogonalization on the (frozen)
 Core Orbitals (COs). The Core-orthogonalized SFOs (CSFOs) constitute the true Fock basis.

 The FOs, and hence also the (C)SFOs are combinations of the elementary basis functions (BAS). The basis
 functions that participate in the description of the SFOs depend on the irrep. The indices of the
 involved functions are printed below for each irrep.
 (The complete list of primitive basis functions is printed in another section)

 Total nr. of (C)SFOs (summation over all irreps) :   282

 NOTE: a (C)SFO that is defined as a combination of more than one FO is usually NOT normalized.



                                       === A ===
 Nr. of SFOs :  282
 Cartesian basis functions that participate in this irrep (total number =   320) :
      1     2     3     4     5     6     9    12     7    10
     13     8    11    14    15    16    17    18    19    20
     21    22    23    24    25    26    27    28    29    30
     31    32    33    34    35    36    39    42    37    40
     43    38    41    44    45    46    47    48    49    50
     51    52    53    54    55    56    57    58    59    60
     61    62    63    64    65    66    67    68    69    70
     71    72    73    74    75    76    77    78    79    80
     81    82    83    84    85    86    87    88    89    90
     91    92    93    94    95    96    97    98    99   100
    101   102   103   104   105   106   107   108   109   110
    111   112   113   114   115   116   117   118   119   120
    121   122   123   124   125   126   127   128   129   130
    131   132   133   134   135   136   143   144   145   137
    140   146   149   152   138   141   147   150   153   139
    142   148   151   154   155   156   157   158   159   160
    161   162   163   164   165   166   167   168   169   170
    171   172   173   174   175   176   179   182   177   180
    183   178   181   184   185   186   187   188   189   190
    191   192   193   194   195   196   197   198   199   200
    201   202   203   204   205   206   209   212   207   210
    213   208   211   214   215   216   217   218   219   220
    221   222   223   224   225   226   227   228   229   230
    231   232   233   234   235   236   239   242   237   240
    243   238   241   244   245   246   247   248   249   250
    251   252   253   254   255   256   257   258   259   260
    261   262   263   264   265   266   269   272   267   270
    273   268   271   274   275   276   277   278   279   280
    281   282   283   284   285   286   287   288   289   290
    291   292   293   294   295   296   299   302   297   300
    303   298   301   304   305   306   307   308   309   310
    311   312   313   314   315   316   317   318   319   320

    SFO  (index         Fragment          Generating    Expansion in Fragment Orbitals
  indx  incl.CFs)   Occup   Orb.Energy   FragmentType  Coeff.   Orbital     on Fragment
 --------------------------------------------------------------------------------------
     1       1      2.000     -10.066 au  C             1.00      1 S               1
                        (    -273.921 eV)
     2       2      2.000      -0.501 au  C             1.00      2 S               1
                        (     -13.620 eV)
     3       3       --         0.373 au  C             1.00      3 S               1
                        (      10.158 eV)
     4       4       --         5.405 au  C             1.00      4 S               1
                        (     147.073 eV)
     5       5       --        49.848 au  C             1.00      5 S               1
                        (    1356.422 eV)
     6       6      0.667      -0.193 au  C             1.00      1 P:x             1
                        (      -5.239 eV)
     7       7       --         0.169 au  C             1.00      2 P:x             1
                        (       4.589 eV)
     8       8       --         2.013 au  C             1.00      3 P:x             1
                        (      54.789 eV)
     9       9      0.667      -0.193 au  C             1.00      1 P:y             1
                        (      -5.239 eV)
    10      10       --         0.169 au  C             1.00      2 P:y             1
                        (       4.589 eV)
    11      11       --         2.013 au  C             1.00      3 P:y             1
                        (      54.789 eV)
    12      12      0.667      -0.193 au  C             1.00      1 P:z             1
                        (      -5.239 eV)
    13      13       --         0.169 au  C             1.00      2 P:z             1
                        (       4.589 eV)
    14      14       --         2.013 au  C             1.00      3 P:z             1
                        (      54.789 eV)
    15      15       --         1.243 au  C             1.00      1 D:z2            1
                        (      33.824 eV)
    16      16       --         1.243 au  C             1.00      1 D:x2-y2         1
                        (      33.824 eV)
    17      17       --         1.243 au  C             1.00      1 D:xy            1
                        (      33.824 eV)
    18      18       --         1.243 au  C             1.00      1 D:xz            1
                        (      33.824 eV)
    19      19       --         1.243 au  C             1.00      1 D:yz            1
                        (      33.824 eV)
    20      20       --         4.016 au  C             1.00      1 F:z3            1
                        (     109.271 eV)
    21      21       --         4.016 au  C             1.00      1 F:z             1
                        (     109.271 eV)
    22      22       --         4.016 au  C             1.00      1 F:xyz           1
                        (     109.271 eV)
    23      23       --         4.016 au  C             1.00      1 F:z2x           1
                        (     109.271 eV)
    24      24       --         4.016 au  C             1.00      1 F:z2y           1
                        (     109.271 eV)
    25      25       --         4.016 au  C             1.00      1 F:x             1
                        (     109.271 eV)
    26      26       --         4.016 au  C             1.00      1 F:y             1
                        (     109.271 eV)
    27      27      2.000     -10.066 au  C             1.00      1 S               2
                        (    -273.921 eV)
    28      28      2.000      -0.501 au  C             1.00      2 S               2
                        (     -13.620 eV)
    29      29       --         0.373 au  C             1.00      3 S               2
                        (      10.158 eV)
    30      30       --         5.405 au  C             1.00      4 S               2
                        (     147.073 eV)
    31      31       --        49.848 au  C             1.00      5 S               2
                        (    1356.422 eV)
    32      32      0.667      -0.193 au  C             1.00      1 P:x             2
                        (      -5.239 eV)
    33      33       --         0.169 au  C             1.00      2 P:x             2
                        (       4.589 eV)
    34      34       --         2.013 au  C             1.00      3 P:x             2
                        (      54.789 eV)
    35      35      0.667      -0.193 au  C             1.00      1 P:y             2
                        (      -5.239 eV)
    36      36       --         0.169 au  C             1.00      2 P:y             2
                        (       4.589 eV)
    37      37       --         2.013 au  C             1.00      3 P:y             2
                        (      54.789 eV)
    38      38      0.667      -0.193 au  C             1.00      1 P:z             2
                        (      -5.239 eV)
    39      39       --         0.169 au  C             1.00      2 P:z             2
                        (       4.589 eV)
    40      40       --         2.013 au  C             1.00      3 P:z             2
                        (      54.789 eV)
    41      41       --         1.243 au  C             1.00      1 D:z2            2
                        (      33.824 eV)
    42      42       --         1.243 au  C             1.00      1 D:x2-y2         2
                        (      33.824 eV)
    43      43       --         1.243 au  C             1.00      1 D:xy            2
                        (      33.824 eV)
    44      44       --         1.243 au  C             1.00      1 D:xz            2
                        (      33.824 eV)
    45      45       --         1.243 au  C             1.00      1 D:yz            2
                        (      33.824 eV)
    46      46       --         4.016 au  C             1.00      1 F:z3            2
                        (     109.271 eV)
    47      47       --         4.016 au  C             1.00      1 F:z             2
                        (     109.271 eV)
    48      48       --         4.016 au  C             1.00      1 F:xyz           2
                        (     109.271 eV)
    49      49       --         4.016 au  C             1.00      1 F:z2x           2
                        (     109.271 eV)
    50      50       --         4.016 au  C             1.00      1 F:z2y           2
                        (     109.271 eV)
    51      51       --         4.016 au  C             1.00      1 F:x             2
                        (     109.271 eV)
    52      52       --         4.016 au  C             1.00      1 F:y             2
                        (     109.271 eV)
    53      53      1.000      -0.240 au  H             1.00      1 S               3
                        (      -6.532 eV)
    54      54       --         0.088 au  H             1.00      2 S               3
                        (       2.394 eV)
    55      55       --         1.502 au  H             1.00      3 S               3
                        (      40.869 eV)
    56      56       --         0.406 au  H             1.00      1 P:x             3
                        (      11.051 eV)
    57      57       --         0.406 au  H             1.00      1 P:y             3
                        (      11.051 eV)
    58      58       --         0.406 au  H             1.00      1 P:z             3
                        (      11.051 eV)
    59      59       --         2.569 au  H             1.00      1 D:z2            3
                        (      69.917 eV)
    60      60       --         2.569 au  H             1.00      1 D:x2-y2         3
                        (      69.917 eV)
    61      61       --         2.569 au  H             1.00      1 D:xy            3
                        (      69.917 eV)
    62      62       --         2.569 au  H             1.00      1 D:xz            3
                        (      69.917 eV)
    63      63       --         2.569 au  H             1.00      1 D:yz            3
                        (      69.917 eV)
    64      64      1.000      -0.240 au  H             1.00      1 S               4
                        (      -6.532 eV)
    65      65       --         0.088 au  H             1.00      2 S               4
                        (       2.394 eV)
    66      66       --         1.502 au  H             1.00      3 S               4
                        (      40.869 eV)
    67      67       --         0.406 au  H             1.00      1 P:x             4
                        (      11.051 eV)
    68      68       --         0.406 au  H             1.00      1 P:y             4
                        (      11.051 eV)
    69      69       --         0.406 au  H             1.00      1 P:z             4
                        (      11.051 eV)
    70      70       --         2.569 au  H             1.00      1 D:z2            4
                        (      69.917 eV)
    71      71       --         2.569 au  H             1.00      1 D:x2-y2         4
                        (      69.917 eV)
    72      72       --         2.569 au  H             1.00      1 D:xy            4
                        (      69.917 eV)
    73      73       --         2.569 au  H             1.00      1 D:xz            4
                        (      69.917 eV)
    74      74       --         2.569 au  H             1.00      1 D:yz            4
                        (      69.917 eV)
    75      75      1.000      -0.240 au  H             1.00      1 S               5
                        (      -6.532 eV)
    76      76       --         0.088 au  H             1.00      2 S               5
                        (       2.394 eV)
    77      77       --         1.502 au  H             1.00      3 S               5
                        (      40.869 eV)
    78      78       --         0.406 au  H             1.00      1 P:x             5
                        (      11.051 eV)
    79      79       --         0.406 au  H             1.00      1 P:y             5
                        (      11.051 eV)
    80      80       --         0.406 au  H             1.00      1 P:z             5
                        (      11.051 eV)
    81      81       --         2.569 au  H             1.00      1 D:z2            5
                        (      69.917 eV)
    82      82       --         2.569 au  H             1.00      1 D:x2-y2         5
                        (      69.917 eV)
    83      83       --         2.569 au  H             1.00      1 D:xy            5
                        (      69.917 eV)
    84      84       --         2.569 au  H             1.00      1 D:xz            5
                        (      69.917 eV)
    85      85       --         2.569 au  H             1.00      1 D:yz            5
                        (      69.917 eV)
    86      86      1.000      -0.240 au  H             1.00      1 S               6
                        (      -6.532 eV)
    87      87       --         0.088 au  H             1.00      2 S               6
                        (       2.394 eV)
    88      88       --         1.502 au  H             1.00      3 S               6
                        (      40.869 eV)
    89      89       --         0.406 au  H             1.00      1 P:x             6
                        (      11.051 eV)
    90      90       --         0.406 au  H             1.00      1 P:y             6
                        (      11.051 eV)
    91      91       --         0.406 au  H             1.00      1 P:z             6
                        (      11.051 eV)
    92      92       --         2.569 au  H             1.00      1 D:z2            6
                        (      69.917 eV)
    93      93       --         2.569 au  H             1.00      1 D:x2-y2         6
                        (      69.917 eV)
    94      94       --         2.569 au  H             1.00      1 D:xy            6
                        (      69.917 eV)
    95      95       --         2.569 au  H             1.00      1 D:xz            6
                        (      69.917 eV)
    96      96       --         2.569 au  H             1.00      1 D:yz            6
                        (      69.917 eV)
    97      97      1.000      -0.240 au  H             1.00      1 S               7
                        (      -6.532 eV)
    98      98       --         0.088 au  H             1.00      2 S               7
                        (       2.394 eV)
    99      99       --         1.502 au  H             1.00      3 S               7
                        (      40.869 eV)
   100     100       --         0.406 au  H             1.00      1 P:x             7
                        (      11.051 eV)
   101     101       --         0.406 au  H             1.00      1 P:y             7
                        (      11.051 eV)
   102     102       --         0.406 au  H             1.00      1 P:z             7
                        (      11.051 eV)
   103     103       --         2.569 au  H             1.00      1 D:z2            7
                        (      69.917 eV)
   104     104       --         2.569 au  H             1.00      1 D:x2-y2         7
                        (      69.917 eV)
   105     105       --         2.569 au  H             1.00      1 D:xy            7
                        (      69.917 eV)
   106     106       --         2.569 au  H             1.00      1 D:xz            7
                        (      69.917 eV)
   107     107       --         2.569 au  H             1.00      1 D:yz            7
                        (      69.917 eV)
   108     108      1.000      -0.240 au  H             1.00      1 S               8
                        (      -6.532 eV)
   109     109       --         0.088 au  H             1.00      2 S               8
                        (       2.394 eV)
   110     110       --         1.502 au  H             1.00      3 S               8
                        (      40.869 eV)
   111     111       --         0.406 au  H             1.00      1 P:x             8
                        (      11.051 eV)
   112     112       --         0.406 au  H             1.00      1 P:y             8
                        (      11.051 eV)
   113     113       --         0.406 au  H             1.00      1 P:z             8
                        (      11.051 eV)
   114     114       --         2.569 au  H             1.00      1 D:z2            8
                        (      69.917 eV)
   115     115       --         2.569 au  H             1.00      1 D:x2-y2         8
                        (      69.917 eV)
   116     116       --         2.569 au  H             1.00      1 D:xy            8
                        (      69.917 eV)
   117     117       --         2.569 au  H             1.00      1 D:xz            8
                        (      69.917 eV)
   118     118       --         2.569 au  H             1.00      1 D:yz            8
                        (      69.917 eV)
   119     119      2.000    -101.116 au  Cl            1.00      1 S               9
                        (   -2751.516 eV)
   120     120      2.000      -9.276 au  Cl            1.00      2 S               9
                        (    -252.419 eV)
   121     121      2.000      -0.754 au  Cl            1.00      3 S               9
                        (     -20.523 eV)
   122     122       --         0.194 au  Cl            1.00      4 S               9
                        (       5.292 eV)
   123     123       --         1.998 au  Cl            1.00      5 S               9
                        (      54.377 eV)
   124     124       --        12.618 au  Cl            1.00      6 S               9
                        (     343.355 eV)
   125     125       --       205.328 au  Cl            1.00      7 S               9
                        (    5587.258 eV)
   126     126      2.000      -7.038 au  Cl            1.00      1 P:x             9
                        (    -191.503 eV)
   127     127      1.667      -0.310 au  Cl            1.00      2 P:x             9
                        (      -8.439 eV)
   128     128       --         0.226 au  Cl            1.00      3 P:x             9
                        (       6.147 eV)
   129     129       --         2.102 au  Cl            1.00      4 P:x             9
                        (      57.194 eV)
   130     130       --        18.665 au  Cl            1.00      5 P:x             9
                        (     507.904 eV)
   131     131      2.000      -7.038 au  Cl            1.00      1 P:y             9
                        (    -191.503 eV)
   132     132      1.667      -0.310 au  Cl            1.00      2 P:y             9
                        (      -8.439 eV)
   133     133       --         0.226 au  Cl            1.00      3 P:y             9
                        (       6.147 eV)
   134     134       --         2.102 au  Cl            1.00      4 P:y             9
                        (      57.194 eV)
   135     135       --        18.665 au  Cl            1.00      5 P:y             9
                        (     507.904 eV)
   136     136      2.000      -7.038 au  Cl            1.00      1 P:z             9
                        (    -191.503 eV)
   137     137      1.667      -0.310 au  Cl            1.00      2 P:z             9
                        (      -8.439 eV)
   138     138       --         0.226 au  Cl            1.00      3 P:z             9
                        (       6.147 eV)
   139     139       --         2.102 au  Cl            1.00      4 P:z             9
                        (      57.194 eV)
   140     140       --        18.665 au  Cl            1.00      5 P:z             9
                        (     507.904 eV)
   141     141       --         0.388 au  Cl            1.00      1 D:z2            9
                        (      10.568 eV)
   142     142       --         0.388 au  Cl            1.00      1 D:x2-y2         9
                        (      10.568 eV)
   143     143       --         0.388 au  Cl            1.00      1 D:xy            9
                        (      10.568 eV)
   144     144       --         0.388 au  Cl            1.00      1 D:xz            9
                        (      10.568 eV)
   145     145       --         0.388 au  Cl            1.00      1 D:yz            9
                        (      10.568 eV)
   146     146       --         1.191 au  Cl            1.00      1 F:z3            9
                        (      32.399 eV)
   147     147       --         1.191 au  Cl            1.00      1 F:z             9
                        (      32.399 eV)
   148     148       --         1.191 au  Cl            1.00      1 F:xyz           9
                        (      32.399 eV)
   149     149       --         1.191 au  Cl            1.00      1 F:z2x           9
                        (      32.399 eV)
   150     150       --         1.191 au  Cl            1.00      1 F:z2y           9
                        (      32.399 eV)
   151     151       --         1.191 au  Cl            1.00      1 F:x             9
                        (      32.399 eV)
   152     152       --         1.191 au  Cl            1.00      1 F:y             9
                        (      32.399 eV)
   153     153      2.000     -14.160 au  N             1.00      1 S              10
                        (    -385.319 eV)
   154     154      2.000      -0.678 au  N             1.00      2 S              10
                        (     -18.450 eV)
   155     155       --         0.517 au  N             1.00      3 S              10
                        (      14.073 eV)
   156     156       --         6.872 au  N             1.00      4 S              10
                        (     186.990 eV)
   157     157       --        63.432 au  N             1.00      5 S              10
                        (    1726.082 eV)
   158     158      1.000      -0.260 au  N             1.00      1 P:x            10
                        (      -7.062 eV)
   159     159       --         0.281 au  N             1.00      2 P:x            10
                        (       7.649 eV)
   160     160       --         3.275 au  N             1.00      3 P:x            10
                        (      89.105 eV)
   161     161      1.000      -0.260 au  N             1.00      1 P:y            10
                        (      -7.062 eV)
   162     162       --         0.281 au  N             1.00      2 P:y            10
                        (       7.649 eV)
   163     163       --         3.275 au  N             1.00      3 P:y            10
                        (      89.105 eV)
   164     164      1.000      -0.260 au  N             1.00      1 P:z            10
                        (      -7.062 eV)
   165     165       --         0.281 au  N             1.00      2 P:z            10
                        (       7.649 eV)
   166     166       --         3.275 au  N             1.00      3 P:z            10
                        (      89.105 eV)
   167     167       --         1.250 au  N             1.00      1 D:z2           10
                        (      34.005 eV)
   168     168       --         1.250 au  N             1.00      1 D:x2-y2        10
                        (      34.005 eV)
   169     169       --         1.250 au  N             1.00      1 D:xy           10
                        (      34.005 eV)
   170     170       --         1.250 au  N             1.00      1 D:xz           10
                        (      34.005 eV)
   171     171       --         1.250 au  N             1.00      1 D:yz           10
                        (      34.005 eV)
   172     172       --         4.013 au  N             1.00      1 F:z3           10
                        (     109.190 eV)
   173     173       --         4.013 au  N             1.00      1 F:z            10
                        (     109.190 eV)
   174     174       --         4.013 au  N             1.00      1 F:xyz          10
                        (     109.190 eV)
   175     175       --         4.013 au  N             1.00      1 F:z2x          10
                        (     109.190 eV)
   176     176       --         4.013 au  N             1.00      1 F:z2y          10
                        (     109.190 eV)
   177     177       --         4.013 au  N             1.00      1 F:x            10
                        (     109.190 eV)
   178     178       --         4.013 au  N             1.00      1 F:y            10
                        (     109.190 eV)
   179     179      2.000     -14.160 au  N             1.00      1 S              11
                        (    -385.319 eV)
   180     180      2.000      -0.678 au  N             1.00      2 S              11
                        (     -18.450 eV)
   181     181       --         0.517 au  N             1.00      3 S              11
                        (      14.073 eV)
   182     182       --         6.872 au  N             1.00      4 S              11
                        (     186.990 eV)
   183     183       --        63.432 au  N             1.00      5 S              11
                        (    1726.082 eV)
   184     184      1.000      -0.260 au  N             1.00      1 P:x            11
                        (      -7.062 eV)
   185     185       --         0.281 au  N             1.00      2 P:x            11
                        (       7.649 eV)
   186     186       --         3.275 au  N             1.00      3 P:x            11
                        (      89.105 eV)
   187     187      1.000      -0.260 au  N             1.00      1 P:y            11
                        (      -7.062 eV)
   188     188       --         0.281 au  N             1.00      2 P:y            11
                        (       7.649 eV)
   189     189       --         3.275 au  N             1.00      3 P:y            11
                        (      89.105 eV)
   190     190      1.000      -0.260 au  N             1.00      1 P:z            11
                        (      -7.062 eV)
   191     191       --         0.281 au  N             1.00      2 P:z            11
                        (       7.649 eV)
   192     192       --         3.275 au  N             1.00      3 P:z            11
                        (      89.105 eV)
   193     193       --         1.250 au  N             1.00      1 D:z2           11
                        (      34.005 eV)
   194     194       --         1.250 au  N             1.00      1 D:x2-y2        11
                        (      34.005 eV)
   195     195       --         1.250 au  N             1.00      1 D:xy           11
                        (      34.005 eV)
   196     196       --         1.250 au  N             1.00      1 D:xz           11
                        (      34.005 eV)
   197     197       --         1.250 au  N             1.00      1 D:yz           11
                        (      34.005 eV)
   198     198       --         4.013 au  N             1.00      1 F:z3           11
                        (     109.190 eV)
   199     199       --         4.013 au  N             1.00      1 F:z            11
                        (     109.190 eV)
   200     200       --         4.013 au  N             1.00      1 F:xyz          11
                        (     109.190 eV)
   201     201       --         4.013 au  N             1.00      1 F:z2x          11
                        (     109.190 eV)
   202     202       --         4.013 au  N             1.00      1 F:z2y          11
                        (     109.190 eV)
   203     203       --         4.013 au  N             1.00      1 F:x            11
                        (     109.190 eV)
   204     204       --         4.013 au  N             1.00      1 F:y            11
                        (     109.190 eV)
   205     205      2.000     -14.160 au  N             1.00      1 S              12
                        (    -385.319 eV)
   206     206      2.000      -0.678 au  N             1.00      2 S              12
                        (     -18.450 eV)
   207     207       --         0.517 au  N             1.00      3 S              12
                        (      14.073 eV)
   208     208       --         6.872 au  N             1.00      4 S              12
                        (     186.990 eV)
   209     209       --        63.432 au  N             1.00      5 S              12
                        (    1726.082 eV)
   210     210      1.000      -0.260 au  N             1.00      1 P:x            12
                        (      -7.062 eV)
   211     211       --         0.281 au  N             1.00      2 P:x            12
                        (       7.649 eV)
   212     212       --         3.275 au  N             1.00      3 P:x            12
                        (      89.105 eV)
   213     213      1.000      -0.260 au  N             1.00      1 P:y            12
                        (      -7.062 eV)
   214     214       --         0.281 au  N             1.00      2 P:y            12
                        (       7.649 eV)
   215     215       --         3.275 au  N             1.00      3 P:y            12
                        (      89.105 eV)
   216     216      1.000      -0.260 au  N             1.00      1 P:z            12
                        (      -7.062 eV)
   217     217       --         0.281 au  N             1.00      2 P:z            12
                        (       7.649 eV)
   218     218       --         3.275 au  N             1.00      3 P:z            12
                        (      89.105 eV)
   219     219       --         1.250 au  N             1.00      1 D:z2           12
                        (      34.005 eV)
   220     220       --         1.250 au  N             1.00      1 D:x2-y2        12
                        (      34.005 eV)
   221     221       --         1.250 au  N             1.00      1 D:xy           12
                        (      34.005 eV)
   222     222       --         1.250 au  N             1.00      1 D:xz           12
                        (      34.005 eV)
   223     223       --         1.250 au  N             1.00      1 D:yz           12
                        (      34.005 eV)
   224     224       --         4.013 au  N             1.00      1 F:z3           12
                        (     109.190 eV)
   225     225       --         4.013 au  N             1.00      1 F:z            12
                        (     109.190 eV)
   226     226       --         4.013 au  N             1.00      1 F:xyz          12
                        (     109.190 eV)
   227     227       --         4.013 au  N             1.00      1 F:z2x          12
                        (     109.190 eV)
   228     228       --         4.013 au  N             1.00      1 F:z2y          12
                        (     109.190 eV)
   229     229       --         4.013 au  N             1.00      1 F:x            12
                        (     109.190 eV)
   230     230       --         4.013 au  N             1.00      1 F:y            12
                        (     109.190 eV)
   231     231      2.000     -18.941 au  O             1.00      1 S              13
                        (    -515.403 eV)
   232     232      2.000      -0.876 au  O             1.00      2 S              13
                        (     -23.838 eV)
   233     233       --         0.791 au  O             1.00      3 S              13
                        (      21.524 eV)
   234     234       --        13.422 au  O             1.00      4 S              13
                        (     365.226 eV)
   235     235       --       121.561 au  O             1.00      5 S              13
                        (    3307.838 eV)
   236     236      1.333      -0.331 au  O             1.00      1 P:x            13
                        (      -9.020 eV)
   237     237       --         0.347 au  O             1.00      2 P:x            13
                        (       9.437 eV)
   238     238       --         3.820 au  O             1.00      3 P:x            13
                        (     103.939 eV)
   239     239      1.333      -0.331 au  O             1.00      1 P:y            13
                        (      -9.020 eV)
   240     240       --         0.347 au  O             1.00      2 P:y            13
                        (       9.437 eV)
   241     241       --         3.820 au  O             1.00      3 P:y            13
                        (     103.939 eV)
   242     242      1.333      -0.331 au  O             1.00      1 P:z            13
                        (      -9.020 eV)
   243     243       --         0.347 au  O             1.00      2 P:z            13
                        (       9.437 eV)
   244     244       --         3.820 au  O             1.00      3 P:z            13
                        (     103.939 eV)
   245     245       --         1.071 au  O             1.00      1 D:z2           13
                        (      29.134 eV)
   246     246       --         1.071 au  O             1.00      1 D:x2-y2        13
                        (      29.134 eV)
   247     247       --         1.071 au  O             1.00      1 D:xy           13
                        (      29.134 eV)
   248     248       --         1.071 au  O             1.00      1 D:xz           13
                        (      29.134 eV)
   249     249       --         1.071 au  O             1.00      1 D:yz           13
                        (      29.134 eV)
   250     250       --         3.359 au  O             1.00      1 F:z3           13
                        (      91.410 eV)
   251     251       --         3.359 au  O             1.00      1 F:z            13
                        (      91.410 eV)
   252     252       --         3.359 au  O             1.00      1 F:xyz          13
                        (      91.410 eV)
   253     253       --         3.359 au  O             1.00      1 F:z2x          13
                        (      91.410 eV)
   254     254       --         3.359 au  O             1.00      1 F:z2y          13
                        (      91.410 eV)
   255     255       --         3.359 au  O             1.00      1 F:x            13
                        (      91.410 eV)
   256     256       --         3.359 au  O             1.00      1 F:y            13
                        (      91.410 eV)
   257     257      2.000     -18.941 au  O             1.00      1 S              14
                        (    -515.403 eV)
   258     258      2.000      -0.876 au  O             1.00      2 S              14
                        (     -23.838 eV)
   259     259       --         0.791 au  O             1.00      3 S              14
                        (      21.524 eV)
   260     260       --        13.422 au  O             1.00      4 S              14
                        (     365.226 eV)
   261     261       --       121.561 au  O             1.00      5 S              14
                        (    3307.838 eV)
   262     262      1.333      -0.331 au  O             1.00      1 P:x            14
                        (      -9.020 eV)
   263     263       --         0.347 au  O             1.00      2 P:x            14
                        (       9.437 eV)
   264     264       --         3.820 au  O             1.00      3 P:x            14
                        (     103.939 eV)
   265     265      1.333      -0.331 au  O             1.00      1 P:y            14
                        (      -9.020 eV)
   266     266       --         0.347 au  O             1.00      2 P:y            14
                        (       9.437 eV)
   267     267       --         3.820 au  O             1.00      3 P:y            14
                        (     103.939 eV)
   268     268      1.333      -0.331 au  O             1.00      1 P:z            14
                        (      -9.020 eV)
   269     269       --         0.347 au  O             1.00      2 P:z            14
                        (       9.437 eV)
   270     270       --         3.820 au  O             1.00      3 P:z            14
                        (     103.939 eV)
   271     271       --         1.071 au  O             1.00      1 D:z2           14
                        (      29.134 eV)
   272     272       --         1.071 au  O             1.00      1 D:x2-y2        14
                        (      29.134 eV)
   273     273       --         1.071 au  O             1.00      1 D:xy           14
                        (      29.134 eV)
   274     274       --         1.071 au  O             1.00      1 D:xz           14
                        (      29.134 eV)
   275     275       --         1.071 au  O             1.00      1 D:yz           14
                        (      29.134 eV)
   276     276       --         3.359 au  O             1.00      1 F:z3           14
                        (      91.410 eV)
   277     277       --         3.359 au  O             1.00      1 F:z            14
                        (      91.410 eV)
   278     278       --         3.359 au  O             1.00      1 F:xyz          14
                        (      91.410 eV)
   279     279       --         3.359 au  O             1.00      1 F:z2x          14
                        (      91.410 eV)
   280     280       --         3.359 au  O             1.00      1 F:z2y          14
                        (      91.410 eV)
   281     281       --         3.359 au  O             1.00      1 F:x            14
                        (      91.410 eV)
   282     282       --         3.359 au  O             1.00      1 F:y            14
                        (      91.410 eV)



 ================================
 (Slater-type)  F U N C T I O N S  ***  (Basis and Fit)  ***
 ================================
  

 Atom Type    1  (C)
 ==============

 Valence Basis Sets:  10
 -----------------------
   1 S    7.680000
   1 S    5.000000
   2 S    1.280000
   2 S    2.100000
   2 S    4.600000
   2 P    0.820000
   2 P    1.480000
   2 P    2.940000
   3 D    2.200000
   4 F    3.300000

 Atom Type    2  (H)
 ==============

 Valence Basis Sets:   5
 -----------------------
   1 S    0.690000
   1 S    0.920000
   1 S    1.580000
   2 P    1.250000
   3 D    2.500000

 Atom Type    3  (Cl)
 ==============

 Valence Basis Sets:  14
 -----------------------
   1 S   20.300000
   1 S   15.250000
   2 S    6.250000
   2 S    4.450000
   2 P    8.850000
   2 P    5.050000
   3 S    3.450000
   3 S    2.300000
   3 S    1.600000
   3 P    3.350000
   3 P    2.050000
   3 P    1.200000
   3 D    2.000000
   4 F    2.000000

 Atom Type    4  (N)
 ==============

 Valence Basis Sets:  10
 -----------------------
   1 S    8.740000
   1 S    5.900000
   2 S    5.150000
   2 S    2.500000
   2 S    1.500000
   2 P    3.680000
   2 P    1.880000
   2 P    1.000000
   3 D    2.200000
   4 F    3.300000

 Atom Type    5  (O)
 ==============

 Valence Basis Sets:  10
 -----------------------
   1 S    9.800000
   1 S    6.800000
   2 S    7.580000
   2 S    2.880000
   2 S    1.720000
   2 P    4.080000
   2 P    2.080000
   2 P    1.120000
   3 D    2.000000
   4 F    3.000000


 BAS: List of all Elementary Cartesian Basis Functions
 =====================================================

 The numbering in the list below (to the right of the function characteristics) is referred
 to in print-outs of MO eigenvectors and Mulliken populations in the BAS representation
 (as contrasted to the SFO representation).

 Notes:
 1. The functions are characterized by a polynomial prefactor (powers of x,y,z and r) and
    an exponential decay factor alpha.
 2. Since the basis sets are specific for an atom TYPE, the individual functions occur on
    all atoms of that type.
 3. The word 'Core' in the left margin signals that it is a Core Function (CF) : not a
    degree of freedom in the valence set, but only used to ensure orthogonalization of
    the other valence basis functions on the frozen Core Orbitals.


 (power of) X  Y  Z  R     Alpha  on Atom
            ==========     =====     ==========

 C                                    1    2
                                  ---------------------------------------------------------------------------
            0  0  0  0     7.680      1   31
            0  0  0  0     5.000      2   32
            0  0  0  1     1.280      3   33
            0  0  0  1     2.100      4   34
            0  0  0  1     4.600      5   35
            1  0  0  0     0.820      6   36
            0  1  0  0     0.820      7   37
            0  0  1  0     0.820      8   38
            1  0  0  0     1.480      9   39
            0  1  0  0     1.480     10   40
            0  0  1  0     1.480     11   41
            1  0  0  0     2.940     12   42
            0  1  0  0     2.940     13   43
            0  0  1  0     2.940     14   44
            2  0  0  0     2.200     15   45
            1  1  0  0     2.200     16   46
            1  0  1  0     2.200     17   47
            0  2  0  0     2.200     18   48
            0  1  1  0     2.200     19   49
            0  0  2  0     2.200     20   50
            3  0  0  0     3.300     21   51
            2  1  0  0     3.300     22   52
            2  0  1  0     3.300     23   53
            1  2  0  0     3.300     24   54
            1  1  1  0     3.300     25   55
            1  0  2  0     3.300     26   56
            0  3  0  0     3.300     27   57
            0  2  1  0     3.300     28   58
            0  1  2  0     3.300     29   59
            0  0  3  0     3.300     30   60

 H                                    3    4    5    6    7    8
                                  ---------------------------------------------------------------------------
            0  0  0  0     0.690     61   73   85   97  109  121
            0  0  0  0     0.920     62   74   86   98  110  122
            0  0  0  0     1.580     63   75   87   99  111  123
            1  0  0  0     1.250     64   76   88  100  112  124
            0  1  0  0     1.250     65   77   89  101  113  125
            0  0  1  0     1.250     66   78   90  102  114  126
            2  0  0  0     2.500     67   79   91  103  115  127
            1  1  0  0     2.500     68   80   92  104  116  128
            1  0  1  0     2.500     69   81   93  105  117  129
            0  2  0  0     2.500     70   82   94  106  118  130
            0  1  1  0     2.500     71   83   95  107  119  131
            0  0  2  0     2.500     72   84   96  108  120  132

 Cl                                   9
                                  ---------------------------------------------------------------------------
            0  0  0  0    20.300    133
            0  0  0  0    15.250    134
            0  0  0  1     6.250    135
            0  0  0  1     4.450    136
            1  0  0  0     8.850    137
            0  1  0  0     8.850    138
            0  0  1  0     8.850    139
            1  0  0  0     5.050    140
            0  1  0  0     5.050    141
            0  0  1  0     5.050    142
            0  0  0  2     3.450    143
            0  0  0  2     2.300    144
            0  0  0  2     1.600    145
            1  0  0  1     3.350    146
            0  1  0  1     3.350    147
            0  0  1  1     3.350    148
            1  0  0  1     2.050    149
            0  1  0  1     2.050    150
            0  0  1  1     2.050    151
            1  0  0  1     1.200    152
            0  1  0  1     1.200    153
            0  0  1  1     1.200    154
            2  0  0  0     2.000    155
            1  1  0  0     2.000    156
            1  0  1  0     2.000    157
            0  2  0  0     2.000    158
            0  1  1  0     2.000    159
            0  0  2  0     2.000    160
            3  0  0  0     2.000    161
            2  1  0  0     2.000    162
            2  0  1  0     2.000    163
            1  2  0  0     2.000    164
            1  1  1  0     2.000    165
            1  0  2  0     2.000    166
            0  3  0  0     2.000    167
            0  2  1  0     2.000    168
            0  1  2  0     2.000    169
            0  0  3  0     2.000    170

 N                                   10   11   12
                                  ---------------------------------------------------------------------------
            0  0  0  0     8.740    171  201  231
            0  0  0  0     5.900    172  202  232
            0  0  0  1     5.150    173  203  233
            0  0  0  1     2.500    174  204  234
            0  0  0  1     1.500    175  205  235
            1  0  0  0     3.680    176  206  236
            0  1  0  0     3.680    177  207  237
            0  0  1  0     3.680    178  208  238
            1  0  0  0     1.880    179  209  239
            0  1  0  0     1.880    180  210  240
            0  0  1  0     1.880    181  211  241
            1  0  0  0     1.000    182  212  242
            0  1  0  0     1.000    183  213  243
            0  0  1  0     1.000    184  214  244
            2  0  0  0     2.200    185  215  245
            1  1  0  0     2.200    186  216  246
            1  0  1  0     2.200    187  217  247
            0  2  0  0     2.200    188  218  248
            0  1  1  0     2.200    189  219  249
            0  0  2  0     2.200    190  220  250
            3  0  0  0     3.300    191  221  251
            2  1  0  0     3.300    192  222  252
            2  0  1  0     3.300    193  223  253
            1  2  0  0     3.300    194  224  254
            1  1  1  0     3.300    195  225  255
            1  0  2  0     3.300    196  226  256
            0  3  0  0     3.300    197  227  257
            0  2  1  0     3.300    198  228  258
            0  1  2  0     3.300    199  229  259
            0  0  3  0     3.300    200  230  260

 O                                   13   14
                                  ---------------------------------------------------------------------------
            0  0  0  0     9.800    261  291
            0  0  0  0     6.800    262  292
            0  0  0  1     7.580    263  293
            0  0  0  1     2.880    264  294
            0  0  0  1     1.720    265  295
            1  0  0  0     4.080    266  296
            0  1  0  0     4.080    267  297
            0  0  1  0     4.080    268  298
            1  0  0  0     2.080    269  299
            0  1  0  0     2.080    270  300
            0  0  1  0     2.080    271  301
            1  0  0  0     1.120    272  302
            0  1  0  0     1.120    273  303
            0  0  1  0     1.120    274  304
            2  0  0  0     2.000    275  305
            1  1  0  0     2.000    276  306
            1  0  1  0     2.000    277  307
            0  2  0  0     2.000    278  308
            0  1  1  0     2.000    279  309
            0  0  2  0     2.000    280  310
            3  0  0  0     3.000    281  311
            2  1  0  0     3.000    282  312
            2  0  1  0     3.000    283  313
            1  2  0  0     3.000    284  314
            1  1  1  0     3.000    285  315
            1  0  2  0     3.000    286  316
            0  3  0  0     3.000    287  317
            0  2  1  0     3.000    288  318
            0  1  2  0     3.000    289  319
            0  0  3  0     3.000    290  320

 Total number of charge fitting functions (nprimf)       994
 Total number of Cartesian basis functions (naos)        320
 Total number of Cartesian core functions  (ncos)          0

 ***************************************************************************************************



                                              ***********************
                                              *  T E C H N I C A L  *
                                              ***********************
  



 =============================================================
 P A R A L L E L I Z A T I O N  and  V E C T O R I Z A T I O N
 =============================================================
  
 Nr of parallel processes:                                1
 Maximum vector length in NumInt loops:                 128



 =====================
 S C F   U P D A T E S
 =====================
  
 Max. nr. of cycles:                               200
 Convergence criterion:                              0.0000010000
   secondary criterion:                              0.0010000000

 Mix parameter (when DIIS does not apply):           0.2000000000
 Mixed ADIIS+SDIIS will be used                  
    Max number of expansion vectors:                10
    Pure ADIIS when Max([F,P]) is above              0.1000000000
    Pure SDIIS when Max([F,P]) is below              0.0010000000
 Automatic ElectronSmearing (in case of problematic SCF convergence) disabled



 =================
 P R E C I S I O N  ***  (General: NumInt, NeglectFunctionTails, ...)  ***
 =================
  

 NumInt:           Target precision:                 4.0000000000
 -------           Initial precision:                4.0000000000
                   Min. precision (optimization):    4.0000000000

 Neglect Functions:          Basis functions:        0.1000000000E-05
 ------------------          Fit functions:          0.1000000000E-05



 ===========================
 L I N E A R   S C A L I N G
 ===========================
  

 Cut-off radii density fit:                        0.1000000000E-07
 Overlap cut-off criterion AO matrix elements:     0.1000000000E-05
 Cut-offs for Coulomb potential and fitted density:0.1000000000E-07
 Cut-off criterion for Coulomb multipole terms:    0.1000000000E-07
 Progressive Convergence parameter:                 0.000000000    
 ***************************************************************************************************



                                            ***************************
                                            *  C O M P U T A T I O N  *
                                            ***************************
  

 Number of elements of the density matrix on this node (used, total):     51360     51360



 ===========================================
 Numerical Integration : Fuzzy Cells (Becke)
 ===========================================
  
 Becke grid quality: NORMAL         
  
 Lebedev angular grid order:             min:  11 max:  23
 Nr. of radial points:                   min:  46 max:  67

 Total nr. of points:      93488
 Nr. of blocks:              731
 Block length:               128
 Nr. of dummy points:         80


 Test of Precision of the Numerical Integration Grid
 ===================================================

 Integral of the Total Core Density:                   0.00000000000000



 ========================
 Density Fitting (zlmFit)
 ========================
  
 ZlmFit Fit Quality: NORMAL         
  
 Max L-expansion:                        min:   6 max:   7
 Nr. of radial interpolation points:     min:  39 max:  60



 =====
 S C F  ***  ScaSCF  ***
 =====
  
 Initial density matrix is calculated as sum of fragments

 CYCLE    1
 SCF Error: norm([F,P])=      6.617362676645, max([F,P])=      1.271701632298
 orbitals (Q,E):
 ---------------
 A :27...46          ( 2.00    -0.5457)  ( 2.00    -0.5080)  ( 2.00    -0.4154)  ( 2.00    -0.4028)
                     ( 2.00    -0.3990)  ( 2.00    -0.3903)  ( 2.00    -0.3751)  ( 2.00    -0.3693)
                     ( 2.00    -0.3229)  ( 2.00    -0.3199)  ( 0.00    -0.1881)  ( 0.00    -0.1843)
                     ( 0.00    -0.0633)  ( 0.00    -0.0574)  ( 0.00    -0.0292)  ( 0.00    -0.0141)
                     ( 0.00    -0.0063)  ( 0.00     0.0042)  ( 0.00     0.0104)  ( 0.00     0.0264)

 CYCLE    2
   MIX coefficients:  0.8000  0.2000
 SCF Error: norm([F,P])=      1.360763612102, max([F,P])=      0.258262449568
 orbitals (Q,E):
 ---------------
 A :27...37          ( 2.00    -0.4936)  ( 2.00    -0.4714)  ( 2.00    -0.3750)  ( 2.00    -0.3493)
                     ( 2.00    -0.3428)  ( 2.00    -0.3323)  ( 2.00    -0.3274)  ( 2.00    -0.3214)
                     ( 2.00    -0.3097)  ( 2.00    -0.3068)  ( 0.00    -0.1679)

 CYCLE    3
  SDIIS (wt  0.000): -0.5811  1.5811
 A-DIIS (wt  1.000):  0.0000  1.0000
  DIIS coefficients:  0.0000  1.0000
 SCF Error: norm([F,P])=      0.568520595911, max([F,P])=      0.120950423564
 orbitals (Q,E):
 ---------------
 A :27...37          ( 2.00    -0.3736)  ( 2.00    -0.3332)  ( 2.00    -0.2950)  ( 2.00    -0.2446)
                     ( 2.00    -0.2420)  ( 2.00    -0.2270)  ( 2.00    -0.2187)  ( 2.00    -0.1949)
                     ( 2.00    -0.1687)  ( 2.00    -0.1612)  ( 0.00    -0.0856)

 CYCLE    4
  SDIIS (wt  0.000):  0.1981  0.3602  0.4417
 A-DIIS (wt  1.000):  0.0000  0.7230  0.2770
  DIIS coefficients:  0.0000  0.7230  0.2770
 SCF Error: norm([F,P])=      1.055955676547, max([F,P])=      0.231652307486
 orbitals (Q,E):
 ---------------
 A :27...37          ( 2.00    -0.4046)  ( 2.00    -0.3860)  ( 2.00    -0.3137)  ( 2.00    -0.2741)
                     ( 2.00    -0.2570)  ( 2.00    -0.2491)  ( 2.00    -0.2455)  ( 2.00    -0.2395)
                     ( 2.00    -0.2316)  ( 2.00    -0.2269)  ( 0.00    -0.1050)

 CYCLE    5
  SDIIS (wt  0.555): -0.1068  0.4302 -0.0246  0.7012
 A-DIIS (wt  0.445):  0.0000  0.0617  0.0000  0.9383
  DIIS coefficients: -0.0593  0.2662 -0.0137  0.8067
 SCF Error: norm([F,P])=      0.199852980562, max([F,P])=      0.045043690578
 orbitals (Q,E):
 ---------------
 A :27...37          ( 2.00    -0.4294)  ( 2.00    -0.4122)  ( 2.00    -0.3339)  ( 2.00    -0.2954)
                     ( 2.00    -0.2812)  ( 2.00    -0.2708)  ( 2.00    -0.2679)  ( 2.00    -0.2632)
                     ( 2.00    -0.2601)  ( 2.00    -0.2519)  ( 0.00    -0.1245)

 CYCLE    6
  SDIIS (wt  0.734):  0.0124  0.0905  0.0233  0.4439  0.4298
 A-DIIS (wt  0.266):  0.0000  0.0000  0.0000  0.2921  0.7079
  DIIS coefficients:  0.0091  0.0664  0.0171  0.4034  0.5039
 SCF Error: norm([F,P])=      0.123791210484, max([F,P])=      0.027379796256
 orbitals (Q,E):
 ---------------
 A :27...37          ( 2.00    -0.4218)  ( 2.00    -0.4041)  ( 2.00    -0.3271)  ( 2.00    -0.2892)
                     ( 2.00    -0.2739)  ( 2.00    -0.2623)  ( 2.00    -0.2597)  ( 2.00    -0.2557)
                     ( 2.00    -0.2489)  ( 2.00    -0.2450)  ( 0.00    -0.1184)

 CYCLE    7
  SDIIS (wt  0.880):  0.0064  0.0546  0.0151  0.3046  0.3760  0.2434
 A-DIIS (wt  0.120):  0.0000  0.0000  0.0000  0.0000  0.1333  0.8667
  DIIS coefficients:  0.0056  0.0481  0.0133  0.2682  0.3470  0.3179
 SCF Error: norm([F,P])=      0.052982353995, max([F,P])=      0.012830696482
 orbitals (Q,E):
 ---------------
 A :27...37          ( 2.00    -0.4217)  ( 2.00    -0.4037)  ( 2.00    -0.3271)  ( 2.00    -0.2887)
                     ( 2.00    -0.2737)  ( 2.00    -0.2633)  ( 2.00    -0.2601)  ( 2.00    -0.2561)
                     ( 2.00    -0.2502)  ( 2.00    -0.2438)  ( 0.00    -0.1177)

 CYCLE    8
  SDIIS (wt  0.924): -0.0047  0.0315  0.0012  0.1515  0.2208  0.3221  0.2777
 A-DIIS (wt  0.076):  0.0000  0.0000  0.0000  0.0000  0.0000  0.3674  0.6326
  DIIS coefficients: -0.0043  0.0291  0.0011  0.1401  0.2041  0.3255  0.3045
 SCF Error: norm([F,P])=      0.036301548435, max([F,P])=      0.008484988811
 orbitals (Q,E):
 ---------------
 A :27...37          ( 2.00    -0.4217)  ( 2.00    -0.4036)  ( 2.00    -0.3270)  ( 2.00    -0.2886)
                     ( 2.00    -0.2734)  ( 2.00    -0.2633)  ( 2.00    -0.2603)  ( 2.00    -0.2557)
                     ( 2.00    -0.2503)  ( 2.00    -0.2444)  ( 0.00    -0.1176)

 CYCLE    9
  SDIIS (wt  0.991): -0.0034  0.0143 -0.0009  0.0675  0.1054  0.2032  0.2301  0.3838
 A-DIIS (wt  0.009):  0.0000  0.0000  0.0000  0.0000  0.0000  0.0000  0.0345  0.9655
  DIIS coefficients: -0.0034  0.0141 -0.0009  0.0669  0.1045  0.2014  0.2283  0.3891
 SCF Error: norm([F,P])=      0.006604119019, max([F,P])=      0.001897813894
 orbitals (Q,E):
 ---------------
 A :27...37          ( 2.00    -0.4219)  ( 2.00    -0.4040)  ( 2.00    -0.3271)  ( 2.00    -0.2887)
                     ( 2.00    -0.2736)  ( 2.00    -0.2631)  ( 2.00    -0.2601)  ( 2.00    -0.2559)
                     ( 2.00    -0.2503)  ( 2.00    -0.2445)  ( 0.00    -0.1178)

 CYCLE   10
  SDIIS (wt  1.000): -0.0007  0.0040 -0.0000  0.0238  0.0427  0.0942  0.1185  0.2771  0.4405
  DIIS coefficients: -0.0007  0.0040 -0.0000  0.0238  0.0427  0.0942  0.1185  0.2771  0.4405
 SCF Error: norm([F,P])=      0.001826502085, max([F,P])=      0.000739147715
 orbitals (Q,E):
 ---------------
 A :27...37          ( 2.00    -0.4219)  ( 2.00    -0.4039)  ( 2.00    -0.3271)  ( 2.00    -0.2888)
                     ( 2.00    -0.2737)  ( 2.00    -0.2633)  ( 2.00    -0.2602)  ( 2.00    -0.2560)
                     ( 2.00    -0.2503)  ( 2.00    -0.2445)  ( 0.00    -0.1178)

 CYCLE   11
  SDIIS (wt  1.000): -0.0003  0.0012 -0.0001  0.0063  0.0118  0.0283  0.0366  0.0989  0.2452  0.5721
  DIIS coefficients: -0.0003  0.0012 -0.0001  0.0063  0.0118  0.0283  0.0366  0.0989  0.2452  0.5721
 SCF Error: norm([F,P])=      0.000391682423, max([F,P])=      0.000133993095
 orbitals (Q,E):
 ---------------
 A :27...37          ( 2.00    -0.4219)  ( 2.00    -0.4039)  ( 2.00    -0.3271)  ( 2.00    -0.2888)
                     ( 2.00    -0.2736)  ( 2.00    -0.2632)  ( 2.00    -0.2602)  ( 2.00    -0.2559)
                     ( 2.00    -0.2503)  ( 2.00    -0.2445)  ( 0.00    -0.1178)

 CYCLE   12
  SDIIS (wt  1.000):  0.0000  0.0000  0.0003  0.0012  0.0035  0.0048  0.0186  0.0821  0.3151  0.5743
  DIIS coefficients:  0.0000  0.0000  0.0003  0.0012  0.0035  0.0048  0.0186  0.0821  0.3151  0.5743
 SCF Error: norm([F,P])=      0.000115638546, max([F,P])=      0.000021472820
 orbitals (Q,E):
 ---------------
 A :27...37          ( 2.00    -0.4219)  ( 2.00    -0.4039)  ( 2.00    -0.3271)  ( 2.00    -0.2888)
                     ( 2.00    -0.2736)  ( 2.00    -0.2632)  ( 2.00    -0.2602)  ( 2.00    -0.2559)
                     ( 2.00    -0.2503)  ( 2.00    -0.2445)  ( 0.00    -0.1178)

 CYCLE   13
  SDIIS (wt  1.000):  0.0000  0.0000  0.0004  0.0012  0.0017  0.0069  0.0341  0.1581  0.3268  0.4707
  DIIS coefficients:  0.0000  0.0000  0.0004  0.0012  0.0017  0.0069  0.0341  0.1581  0.3268  0.4707
 SCF Error: norm([F,P])=      0.000037324222, max([F,P])=      0.000007991675
 orbitals (Q,E):
 ---------------
 A :27...37          ( 2.00    -0.4219)  ( 2.00    -0.4039)  ( 2.00    -0.3271)  ( 2.00    -0.2888)
                     ( 2.00    -0.2736)  ( 2.00    -0.2632)  ( 2.00    -0.2602)  ( 2.00    -0.2559)
                     ( 2.00    -0.2503)  ( 2.00    -0.2445)  ( 0.00    -0.1178)

 CYCLE   14
  SDIIS (wt  1.000):  0.0000  0.0001  0.0002  0.0003  0.0010  0.0045  0.0355  0.0804  0.2699  0.6081
  DIIS coefficients:  0.0000  0.0001  0.0002  0.0003  0.0010  0.0045  0.0355  0.0804  0.2699  0.6081
 SCF Error: norm([F,P])=      0.000012685863, max([F,P])=      0.000002658694
 orbitals (Q,E):
 ---------------
 A :27...37          ( 2.00    -0.4219)  ( 2.00    -0.4039)  ( 2.00    -0.3271)  ( 2.00    -0.2888)
                     ( 2.00    -0.2736)  ( 2.00    -0.2632)  ( 2.00    -0.2602)  ( 2.00    -0.2559)
                     ( 2.00    -0.2503)  ( 2.00    -0.2445)  ( 0.00    -0.1178)

 CYCLE   15
  SDIIS (wt  1.000):  0.0000  0.0001  0.0002  0.0007  0.0038  0.0247  0.0536  0.1490  0.3272  0.4407
  DIIS coefficients:  0.0000  0.0001  0.0002  0.0007  0.0038  0.0247  0.0536  0.1490  0.3272  0.4407
 SCF Error: norm([F,P])=      0.000005645838, max([F,P])=      0.000001268910
 orbitals (Q,E):
 ---------------
 A :27...37          ( 2.00    -0.4219)  ( 2.00    -0.4039)  ( 2.00    -0.3271)  ( 2.00    -0.2888)
                     ( 2.00    -0.2736)  ( 2.00    -0.2632)  ( 2.00    -0.2602)  ( 2.00    -0.2559)
                     ( 2.00    -0.2503)  ( 2.00    -0.2445)  ( 0.00    -0.1178)

 CYCLE   16
  SDIIS (wt  1.000): -0.0000 -0.0000 -0.0000  0.0001  0.0022  0.0054  0.0218  0.0588  0.0861  0.8257
  DIIS coefficients: -0.0000 -0.0000 -0.0000  0.0001  0.0022  0.0054  0.0218  0.0588  0.0861  0.8257
 SCF Error: norm([F,P])=      0.000000507073, max([F,P])=      0.000000097511
 orbitals (Q,E):
 ---------------
 A :27...37          ( 2.00    -0.4219)  ( 2.00    -0.4039)  ( 2.00    -0.3271)  ( 2.00    -0.2888)
                     ( 2.00    -0.2736)  ( 2.00    -0.2632)  ( 2.00    -0.2602)  ( 2.00    -0.2559)
                     ( 2.00    -0.2503)  ( 2.00    -0.2445)  ( 0.00    -0.1178)

 SCF CONVERGED

 CYCLE   17
 ***************************************************************************************************



                                                *******************
                                                *  R E S U L T S  *
                                                *******************
  
 *** Using FIT density in Focky
  SDIIS (wt  1.000): -0.0000 -0.0000  0.0000  0.0008  0.0020  0.0095  0.0281  0.0474  0.4861  0.4259
  DIIS coefficients: -0.0000 -0.0000  0.0000  0.0008  0.0020  0.0095  0.0281  0.0474  0.4861  0.4259
 SCF Error: norm([F,P])=      0.000000380102, max([F,P])=      0.000000096230

 Scaled ZORA Orbital Energies, per Irrep and Spin:
 =================================================
                        Occup              E (au)              E (eV)       Diff (eV) with prev. cycle
                        -----      --------------------        ------       --------------------------
 A
              27        2.000     -0.42189570186015E+00       -11.480              -4.39E-08
              28        2.000     -0.40393416982578E+00       -10.992               1.21E-07
              29        2.000     -0.32711547870152E+00        -8.901               5.14E-07
              30        2.000     -0.28879593679688E+00        -7.859               2.48E-07
              31        2.000     -0.27364473046842E+00        -7.446               1.43E-07
              32        2.000     -0.26322961219316E+00        -7.163               5.35E-07
              33        2.000     -0.26022326822327E+00        -7.081               4.47E-07
              34        2.000     -0.25594915566855E+00        -6.965               3.24E-07
              35        2.000     -0.25027435403132E+00        -6.810               1.95E-07
              36        2.000     -0.24453814905103E+00        -6.654               3.95E-07
              37        0.000     -0.11784173342616E+00        -3.207
              38        0.000     -0.11449552315142E+00        -3.116
              39        0.000     -0.37484603829188E-01        -1.020
              40        0.000     -0.20554969050846E-01        -0.559
              41        0.000      0.43966670515450E-02         0.120
              42        0.000      0.21361130551705E-01         0.581
              43        0.000      0.41290138327813E-01         1.124
              44        0.000      0.46278414066574E-01         1.259
              45        0.000      0.83157338161285E-01         2.263
              46        0.000      0.11375141808345E+00         3.095
  
 HOMO :       36 A                -0.24453814905103E+00
 LUMO :       37 A                -0.11784173342616E+00
  


 All Electron Calculation, thus no Orbital Energies of the Core Orbitals are calculated


 Fit test: (difference of exact and fit density, squared integrated, result summed over spins)
         Sum-of-Fragments:                             0.00000000111536
         Orthogonalized Fragments:                     0.00011729001060
         SCF:                                          0.00022677959246



 ==========================
 Electron Density at Nuclei
 ==========================
  
 The electron density is calculated at points on a small sphere around the center of a nucleus.
 The printed electron density is the average electron density on these points.
 The radius of the sphere is the printed approximate finite nuclear radius.
 Note: ZORA-4 density is used, which includes small component density

         Atom        Nuclear Radius (Angstrom)             Electron Density (a.u.)
         ----        -------------------------             -----------------------
     1)   C                 0.0000320678                              127.22612
     2)   H                 0.0000181514                                0.51680
     3)   Cl                0.0000426624                             3312.48359
     4)   C                 0.0000320678                              127.08194
     5)   H                 0.0000181514                                0.51610
     6)   N                 0.0000333706                              206.01441
     7)   H                 0.0000181514                                0.49721
     8)   H                 0.0000181514                                0.50505
     9)   N                 0.0000333706                              206.05927
    10)   H                 0.0000181514                                0.50223
    11)   H                 0.0000181514                                0.50181
    12)   N                 0.0000333706                              206.20210
    13)   O                 0.0000345546                              314.37211
    14)   O                 0.0000345546                              314.35706



 =======================================
 M U L L I K E N   P O P U L A T I O N S
 =======================================
  
 The survey below gives for each atom:
 a) the total charge (Z minus electrons)
 b) the net spin polarization (nr of electrons spin-A minus spin-B)
 c) for each spin the atomic electron valence density (integrated) per L-value.

 Atom              Charge    Spin density          S         P         D         F
 ----              ------    ------------       ------    ------    ------    ------
[...]
                                   -4.31%     2 P:y             4.589  0.00     2 C
                                    4.28%     1 S              -6.532  1.00     3 H
                                    3.85%     1 S              -6.532  1.00     4 H
                                    3.49%     2 S               2.394  0.00     4 H
                                    3.18%     1 S              -6.532  1.00     8 H
                                    2.91%     2 S               2.394  0.00     3 H
                                   -2.72%     2 P:y             7.649  0.00    11 N
                                   -2.68%     1 P:y            -5.239  0.67     1 C
                                    1.91%     1 P:z            -5.239  0.67     2 C
                                   -1.57%     2 P:x             4.589  0.00     2 C
                                   -1.46%     1 P:y            -5.239  0.67     2 C
                                    1.32%     1 P:x            11.051  0.00     6 H
                                    1.32%     1 P:z            -5.239  0.67     1 C
                                    1.27%     2 P:x             7.649  0.00    11 N
                                    1.24%     2 S             -18.450  2.00    10 N
                                   -1.22%     2 P:y             7.649  0.00    10 N
                                    1.15%     1 P:y            11.051  0.00     7 H
                                    1.08%     2 S             -18.450  2.00    11 N
                                   -1.02%     3 S              10.158  0.00     2 C
       0.120  0.00    41 A         32.73%     1 S              -6.532  1.00     4 H
                                   19.93%     1 S              -6.532  1.00     3 H
                                   17.79%     2 S               2.394  0.00     3 H
                                   17.77%     2 S               2.394  0.00     4 H
                                  -16.41%     2 P:z             4.589  0.00     1 C
                                   12.82%     1 S              -6.532  1.00     8 H
                                    7.47%     2 S               2.394  0.00     8 H
                                   -6.85%     2 P:z             4.589  0.00     2 C
                                    4.86%     2 S               2.394  0.00     6 H
                                    4.27%     1 S              -6.532  1.00     6 H
                                   -3.43%     2 P:x             4.589  0.00     2 C
                                    2.77%     2 S             -13.620  2.00     1 C
                                   -2.59%     2 P:z             7.649  0.00    11 N
                                    2.54%     2 S             -13.620  2.00     2 C
                                    2.30%     2 S             -18.450  2.00    12 N
                                    2.04%     1 S              -6.532  1.00     5 H
                                   -1.92%     2 P:y             7.649  0.00    11 N
                                   -1.90%     3 S              10.158  0.00     1 C
                                   -1.51%     1 P:z            -5.239  0.67     1 C
                                   -1.31%     3 S              10.158  0.00     2 C
                                    1.21%     1 S              -6.532  1.00     7 H
                                    1.18%     2 S               2.394  0.00     5 H
                                   -1.05%     1 P:x            -5.239  0.67     2 C
                                   -1.01%     2 P:x             4.589  0.00     1 C
       0.581  0.00    42 A         25.70%     1 S              -6.532  1.00     5 H
                                   24.47%     2 S               2.394  0.00     5 H
                                   21.52%     1 S              -6.532  1.00     7 H
                                   14.48%     2 S               2.394  0.00     7 H
                                   -8.44%     2 P:x             7.649  0.00    10 N
                                   -7.58%     2 P:y             7.649  0.00    11 N
                                    7.25%     1 S              -6.532  1.00     8 H
                                    6.89%     2 P:x             4.589  0.00     1 C
                                    5.41%     1 S              -6.532  1.00     4 H
                                    5.14%     2 S               2.394  0.00     4 H
                                    4.74%     1 S              -6.532  1.00     6 H
                                   -3.66%     2 S               2.394  0.00     8 H
                                    3.40%     1 P:y            -7.062  1.00    11 N
                                    3.35%     2 P:y             4.589  0.00     2 C
                                   -3.16%     4 S               5.292  0.00     9 Cl
                                   -2.75%     2 S               2.394  0.00     6 H
                                   -2.20%     2 P:y             4.589  0.00     1 C
                                   -2.17%     2 P:z             7.649  0.00    10 N
                                   -1.54%     2 P:x             7.649  0.00    11 N
                                    1.41%     3 S              40.869  0.00     8 H
                                   -1.32%     2 P:x             4.589  0.00     2 C
                                    1.27%     1 P:x            -7.062  1.00    10 N
                                   -1.25%     2 P:y             7.649  0.00    10 N
                                    1.25%     3 S              40.869  0.00     6 H
                                    1.03%     1 P:x            -5.239  0.67     1 C
       1.124  0.00    43 A         33.66%     1 S              -6.532  1.00     3 H
                                   18.78%     1 S              -6.532  1.00     7 H
                                   17.70%     1 S              -6.532  1.00     6 H
                                   16.76%     2 S               2.394  0.00     3 H
                                   -8.61%     2 P:x             4.589  0.00     2 C
                                    8.21%     1 P:x            -5.239  0.67     2 C
                                    7.41%     2 S               2.394  0.00     7 H
                                    5.41%     1 S              -6.532  1.00     5 H
                                   -5.18%     2 P:x             7.649  0.00    10 N
                                   -5.14%     2 P:y             7.649  0.00    11 N
                                   -5.05%     2 P:z             4.589  0.00     2 C
                                    3.23%     1 S              -6.532  1.00     4 H
                                   -2.57%     3 S              10.158  0.00     2 C
                                   -2.36%     1 P:z            -5.239  0.67     2 C
                                    2.33%     2 S               2.394  0.00     4 H
                                    1.90%     3 S              40.869  0.00     3 H
                                    1.89%     3 S              40.869  0.00     6 H
                                    1.87%     1 P:z            -7.062  1.00    10 N
                                    1.86%     1 P:x            -7.062  1.00    10 N
                                   -1.85%     2 S               2.394  0.00     6 H
                                    1.48%     3 S              40.869  0.00     7 H
                                   -1.03%     4 S               5.292  0.00     9 Cl
       1.259  0.00    44 A         25.52%     1 S              -6.532  1.00     4 H
                                   24.05%     1 S              -6.532  1.00     5 H
                                   22.88%     1 S              -6.532  1.00     8 H
                                    9.49%     2 S               2.394  0.00     5 H
                                    7.49%     2 S               2.394  0.00     4 H
                                   -6.85%     2 P:z             4.589  0.00     1 C
                                   -5.02%     2 P:x             7.649  0.00    10 N
                                    4.79%     2 S               2.394  0.00     3 H
                                    4.13%     2 S             -13.620  2.00     1 C
                                    3.90%     1 P:x            -7.062  1.00    10 N
                                    3.41%     1 S              -6.532  1.00     3 H
                                    3.35%     1 S              -6.532  1.00     7 H
                                    3.32%     1 S              -6.532  1.00     6 H
                                   -3.25%     3 S              10.158  0.00     1 C
                                    2.74%     1 P:y            -7.062  1.00    11 N
                                    2.64%     2 P:y             4.589  0.00     2 C
                                   -2.61%     2 P:z             7.649  0.00    11 N
                                    2.08%     3 S              40.869  0.00     8 H
                                   -2.04%     2 P:y             7.649  0.00    10 N
                                    1.88%     3 S              40.869  0.00     5 H
                                   -1.87%     2 P:x             7.649  0.00    11 N
                                   -1.81%     2 P:z             4.589  0.00     2 C
                                    1.54%     3 S              40.869  0.00     4 H
                                   -1.44%     2 P:y             7.649  0.00    11 N
                                    1.37%     1 P:x            -7.062  1.00    11 N
                                   -1.23%     2 S               2.394  0.00     8 H
                                   -1.20%     2 P:z             7.649  0.00    10 N



 =======================================================================
 Electrostatic potential at the Nuclei due to electrons and other nuclei
 =======================================================================
  
         Atom                  Potential
         ----                  ---------
     1)   C                  14.66220092
     2)   H                   1.06190716
     3)   Cl                 64.88092038
     4)   C                  14.67533074
     5)   H                   1.05332077
     6)   N                  18.39153299
     7)   H                   1.01633964
     8)   H                   1.01248372
     9)   N                  18.39413004
    10)   H                   1.01981199
    11)   H                   1.01429923
    12)   N                  18.19126604
    13)   O                  22.36358881
    14)   O                  22.36940722
 Mulliken charges used for AMS results%charges...


    =====================
     CALCULATION RESULTS
    =====================

Energy (hartree)            -2.70162911


--------------
Atomic charges
--------------
  Index   Atom    Charge
      1      C    0.4063
      2      H   -0.1267
      3     Cl   -0.2316
      4      C    0.4347
      5      H   -0.1153
      6      N    0.0121
      7      H   -0.0220
      8      H   -0.0709
      9      N   -0.0081
     10      H   -0.0363
     11      H   -0.0620
     12      N    0.5497
     13      O   -0.3650
     14      O   -0.3649


Dipole moment vector    (Debye):     5.28029267   -2.23516264    2.90783850
              magnitude (Debye):     6.42907205


-----------------------
Molecular orbitals info
-----------------------
n orbitals:              282
n spin:                    1

Note: only printing virtual orbitals with
      energy smaller than HOMO + 100. eV

HOMO (eV):              -6.6542
LUMO (eV):              -3.2066
HOMO-LUMO gap (eV):      3.4476

   Index   Energy (eV)    Occupation
     182       93.2153         0.000       
     181       92.9107         0.000       
     180       92.3693         0.000       
     179       90.8809         0.000       
     178       89.0536         0.000       
     177       87.1138         0.000       
     176       86.5161         0.000       
     175       85.7088         0.000       
     174       85.2466         0.000       
     173       84.6701         0.000       
     172       82.8219         0.000       
     171       82.3731         0.000       
     170       81.5073         0.000       
     169       81.1777         0.000       
     168       80.6525         0.000       
     167       79.7990         0.000       
     166       78.1849         0.000       
     165       77.0858         0.000       
     164       76.8628         0.000       
     163       75.6690         0.000       
     162       74.6045         0.000       
     161       73.0635         0.000       
     160       72.6448         0.000       
     159       71.3445         0.000       
     158       70.9346         0.000       
     157       68.9562         0.000       
     156       68.0766         0.000       
     155       67.6763         0.000       
     154       66.3638         0.000       
     153       65.4791         0.000       
     152       64.5853         0.000       
     151       63.8753         0.000       
     150       63.2033         0.000       
     149       62.5225         0.000       
     148       61.7426         0.000       
     147       61.4507         0.000       
     146       60.4617         0.000       
     145       59.8514         0.000       
     144       57.6499         0.000       
     143       57.2628         0.000       
     142       56.8416         0.000       
     141       56.3800         0.000       
     140       55.4563         0.000       
     139       54.1266         0.000       
     138       53.8476         0.000       
     137       53.7193         0.000       
     136       52.4697         0.000       
     135       51.7733         0.000       
     134       51.1734         0.000       
     133       49.8514         0.000       
     132       48.7162         0.000       
     131       48.2637         0.000       
     130       47.3745         0.000       
     129       46.7117         0.000       
     128       46.6036         0.000       
     127       44.8415         0.000       
     126       43.7896         0.000       
     125       42.8187         0.000       
     124       41.2323         0.000       
     123       40.8591         0.000       
     122       40.8170         0.000       
     121       39.7891         0.000       
     120       38.5077         0.000       
     119       38.1441         0.000       
     118       37.7429         0.000       
     117       37.5389         0.000       
     116       36.8667         0.000       
     115       36.3497         0.000       
     114       35.7517         0.000       
     113       35.5126         0.000       
     112       35.1424         0.000       
     111       35.0947         0.000       
     110       34.8546         0.000       
     109       34.2633         0.000       
     108       34.0151         0.000       
     107       33.5585         0.000       
     106       33.0808         0.000       
     105       32.6488         0.000       
     104       32.5044         0.000       
     103       32.0967         0.000       
     102       31.1678         0.000       
     101       30.4555         0.000       
     100       30.3026         0.000       
      99       30.1709         0.000       
      98       28.3763         0.000       
      97       28.0826         0.000       
      96       27.3302         0.000       
      95       27.0176         0.000       
      94       26.2522         0.000       
      93       25.6362         0.000       
      92       25.3074         0.000       
      91       24.2451         0.000       
      90       23.0763         0.000       
      89       21.8854         0.000       
      88       20.7373         0.000       
      87       19.8826         0.000       
      86       19.8068         0.000       
      85       18.6616         0.000       
      84       17.8944         0.000       
      83       17.4811         0.000       
      82       16.7422         0.000       
      81       15.8518         0.000       
      80       15.1394         0.000       
      79       14.5624         0.000       
      78       14.3208         0.000       
      77       13.5992         0.000       
      76       13.1199         0.000       
      75       12.9474         0.000       
      74       12.5368         0.000       
      73       12.0206         0.000       
      72       11.4884         0.000       
      71       11.4241         0.000       
      70       10.9456         0.000       
      69       10.8447         0.000       
      68       10.5317         0.000       
      67       10.2512         0.000       
      66        9.7710         0.000       
      65        9.3264         0.000       
      64        8.7953         0.000       
      63        8.6804         0.000       
      62        8.5169         0.000       
      61        8.2466         0.000       
      60        7.6804         0.000       
      59        7.4675         0.000       
      58        7.0954         0.000       
      57        6.9698         0.000       
      56        6.8575         0.000       
      55        6.5923         0.000       
      54        6.1749         0.000       
      53        5.6390         0.000       
      52        5.3787         0.000       
      51        5.1960         0.000       
      50        4.8300         0.000       
      49        4.2143         0.000       
      48        4.0730         0.000       
      47        3.2939         0.000       
      46        3.0953         0.000       
      45        2.2628         0.000       
      44        1.2593         0.000       
      43        1.1236         0.000       
      42        0.5813         0.000       
      41        0.1196         0.000       
      40       -0.5593         0.000       
      39       -1.0200         0.000       
      38       -3.1156         0.000       
      37       -3.2066         0.000 < LUMO
      36       -6.6542         2.000 < HOMO
      35       -6.8103         2.000       
      34       -6.9647         2.000       
      33       -7.0810         2.000       
      32       -7.1628         2.000       
      31       -7.4463         2.000       
      30       -7.8585         2.000       
      29       -8.9013         2.000       
      28      -10.9916         2.000       
      27      -11.4804         2.000       
      26      -12.0654         2.000       
      25      -12.5896         2.000       
      24      -13.0670         2.000       
      23      -13.3381         2.000       
      22      -13.6781         2.000       
      21      -13.8016         2.000       
      20      -14.7176         2.000       
      19      -17.3063         2.000       
      18      -19.2951         2.000       
      17      -19.9854         2.000       
      16      -23.1561         2.000       
      15      -23.9722         2.000       
      14      -26.4817         2.000       
      13      -30.8918         2.000       
      12     -189.7582         2.000       
      11     -189.7657         2.000       
      10     -190.0501         2.000       
       9     -250.8015         2.000       
       8     -273.0258         2.000       
       7     -273.4712         2.000       
       6     -382.2161         2.000       
       5     -382.2609         2.000       
       4     -387.7259         2.000       
       3     -512.4695         2.000       
       2     -512.6304         2.000       
       1    -2750.0838         2.000       

AMS application finished. Exiting.
NORMAL TERMINATION
     Total cpu time:      52.25
  Total system time:       0.39
 Total elapsed time:      52.84
NORMAL TERMINATION
