
 *******************************************************************************
 *                                                                             *
 *  --------------------------------                                           *
 *   Amsterdam Modeling Suite (AMS)              2026.103                      *
 *  --------------------------------                                           *
 *                                               r260501 2026-05-01 873454b5   *
 *                                                                             *
 *                                                                             *
 *                              =================                              *
 *                              |               |                              *
 *                              |     A M S     |                              *
 *                              |               |                              *
 *                              =================                              *
 *                                                                             *
 *                                                                             *
 *   Online information and documentation:  https://www.scm.com/support/       *
 *   E-mail:  support@scm.com   info@scm.com                                   *
 *                                                                             *
 *   Scientific publications using AMS results must be properly referenced     *
 *   See the User Manuals (or the web site) for recommended citations          *
 *   The terms and conditions of the End User License Agreement apply to       *
 *   the use of AMS, https://www.scm.com/license-terms/                        *
 *                                                                             *
 **********************  x86_64_linux_intel / intelmpi  ************************
 
 Licensed to: Jong-June Jeon / University of Seoul 2026-06-02 13:44:15
 SCM User ID: u30731
  
 AMS 2026.103  RunTime: Jun04-2026 03:11:13  ShM Nodes: 1  Procs: 1

 AMS jobname: c5_fragB_opt
 AMS jobid  : 1576881964

 Start   directory: /gpfs/home1/yeseo1ee/projects/eda-asm-prediction/ADF_800/adf_outputs/batch_007/qmrxn20_sn2_E_A_E_B_B_A/
 Results directory: /gpfs/home1/yeseo1ee/projects/eda-asm-prediction/ADF_800/adf_outputs/batch_007/qmrxn20_sn2_E_A_E_B_B_A/c5_fragB_opt.results/
 Scratch directory: /tmp/amstmp_c5_fragB_opt_kid0.1576881964/

 RNG seed: -1733461057 923946520 1435286316 1097287326 753650874 -1633218660 -1019842887 435495705



                      ************************************************************************
                      *  ADF 2026.103  RunTime: Jun04-2026 03:11:13  ShM Nodes: 1  Procs: 1  *
                      ************************************************************************
  

       ***************************
       *  GEOMETRY OPTIMIZATION  *
       ***************************

Optimization Method                    Quasi Newton
Optimization Coordinates               Delocalized Coordinates
Optimize lattice                       F
 
 ------------------------------------------------------
 Convergence criteria (Hartree,Angstrom)
 ------------------------------------------------------
 Maximum gradient               0.000100000000
 Maximum rms gradient           0.000066666667
 Maximum step allowed           0.010000000000
 Maximum rms step allowed       0.006666666667
 Maximum energy change allowe   0.000140000000
 Maximum stress energy allowe   0.000500000000
 
Initial model Hessian                  Automatic Hessian
 
------------------------------------
Quasi-Newton Optimizer Parameters
------------------------------------
Hessian Update Method                  BFGS
Maximum number of steps                  200
First GDIIS cycle                          0
Maximum GDIIS vectors                      0
Trust radius (bohr)                        0.200000
Trust radius varies                        T
Constraints converged at all steps         T
Use projector                              T
 
 Rigid motions settings for: old optimizer
 Atomic rotations (x,y,z):     T T T
 Atomic translations (x,y,z):  T T T
 Tolerance:                  1.000000000000000E-006

--------
Geometry
--------
Formula: C2H6ClN3O2
Atoms
  Index Symbol   x (angstrom)   y (angstrom)   z (angstrom)
      1      C     0.30070267    -0.04786202    -0.07743832
      2      H     1.58417166     1.52064091    -0.70678882
      3     Cl    -1.75758867    -0.13673032    -0.50111771
      4      C     0.63239357     1.43899827    -0.17849421
      5      H     0.13793592    -0.39800493     0.92734583
      6      N     0.78670963    -0.89761881    -1.13249845
      7      H     0.09755337    -1.61482211    -1.31281888
      8      H     1.64979562    -1.30240015    -0.80193880
      9      N     0.56732993     2.02315133     1.13308850
     10      H     0.79759136     3.00770678     1.08206213
     11      H     1.29995698     1.52840559     1.63800599
     12      N    -0.28458423     2.22479375    -1.10935779
     13      O    -0.98267491     3.12612271    -0.64989906
     14      O    -0.19060230     1.95216982    -2.30191043

Total System Charge              0.00000


----------------
ADF Engine Input
----------------
 
   Basis
     Type TZ2P
     Core None
   End
   XC
     GGA BLYP
     Dispersion GRIMME3 BJDAMP
   End
   Symmetry NOSYM
   NumericalQuality Normal
   Unrestricted No
   SCF
     Iterations 200
     Converge 1.0e-6
   End
   Save TAPE21
 

 Title: *** (NO TITLE) ***

 Using automatic Hessian for delocalized coordinates.
 *** GO1_GOStep1 ***

 Energy gradients wrt nuclear displacements
 ==========================================

     Atom      Cartesian (a.u./angstrom)
                 X         Y         Z
 ----------------------------------------
     1 C     0.118913 -0.004817  0.071089
     2 H    -0.013234 -0.001718  0.006226
     3 Cl   -0.036829  0.003709 -0.021156
     4 C    -0.015885  0.011578 -0.015753
     5 H    -0.016943  0.006737 -0.022398
     6 N    -0.010021 -0.031541 -0.021848
     7 H     0.000892  0.016243  0.001603
     8 H    -0.024212  0.019477  0.005064
     9 N    -0.006402  0.017015 -0.004116
    10 H    -0.003287 -0.013750 -0.006728
    11 H    -0.003819 -0.009910 -0.023562
    12 N     0.012581 -0.018261  0.029599
    13 O     0.005456 -0.008126 -0.021688
    14 O    -0.007211  0.013364  0.023667
 ----------------------------------------
 
----------------------------------------------------------------------
Geometry Convergence after Step   1       (Hartree/Angstrom,Angstrom)
----------------------------------------------------------------------
current energy                               -2.70162911 Hartree
energy change                      -2.70162911     0.00014000    F
constrained gradient max            0.11894264     0.00010000    F
constrained gradient rms            0.02651897     0.00006667    F
gradient max                        0.11894264
gradient rms                        0.02651897
cart. step max                      0.06152781     0.01000000    F
cart. step rms                      0.02420299     0.00666667    F
 

--------
Geometry
--------
Formula: C2H6ClN3O2
Atoms
  Index Symbol   x (angstrom)   y (angstrom)   z (angstrom)
      1      C     0.25819767    -0.04955565    -0.09046297
      2      H     1.58011288     1.49967414    -0.72355745
      3     Cl    -1.78917101    -0.19825813    -0.44030780
      4      C     0.62200876     1.43706665    -0.19044189
      5      H     0.12561150    -0.39653545     0.92955316
      6      N     0.78330977    -0.89276755    -1.13344746
      7      H     0.12613843    -1.64534783    -1.31901391
      8      H     1.67555416    -1.28038699    -0.82524083
      9      N     0.57481668     2.02287931     1.13686247
     10      H     0.81808080     3.01109946     1.10149825
     11      H     1.28194909     1.53612574     1.69182604
     12      N    -0.27913700     2.24956718    -1.13771485
     13      O    -0.95403590     3.16428659    -0.65279799
     14      O    -0.18474524     1.96670336    -2.33851477

Total System Charge              0.00000

 *** GO1_GOStep2 ***

 Energy gradients wrt nuclear displacements
 ==========================================

     Atom      Cartesian (a.u./angstrom)
                 X         Y         Z
 ----------------------------------------
     1 C     0.101700  0.001285  0.050732
     2 H    -0.006057  0.000349  0.001390
     3 Cl   -0.043695 -0.004496 -0.012231
     4 C    -0.019527  0.009627 -0.023684
     5 H    -0.019537  0.002392 -0.011331
     6 N    -0.009005 -0.014932 -0.018197
     7 H    -0.002475  0.008452 -0.000808
     8 H    -0.007520  0.005878  0.005292
     9 N    -0.006123  0.009080  0.004800
    10 H     0.000549 -0.004452 -0.002506
    11 H     0.001613 -0.005425 -0.008211
    12 N     0.009997 -0.013665  0.020528
    13 O    -0.001144  0.004094 -0.001030
    14 O     0.001224  0.001812 -0.004745
 ----------------------------------------

 dE(predicted):    -0.76542E-02, dE(actual):    -0.74256E-02, Trust radius:    0.400000, all in a.u.
 
----------------------------------------------------------------------
Geometry Convergence after Step   2       (Hartree/Angstrom,Angstrom)
----------------------------------------------------------------------
current energy                               -2.70905475 Hartree
energy change                      -0.00742564     0.00014000    F
constrained gradient max            0.10170181     0.00010000    F
constrained gradient rms            0.02095494     0.00006667    F
gradient max                        0.10170181
gradient rms                        0.02095494
cart. step max                      0.07927126     0.01000000    F
cart. step rms                      0.02983775     0.00666667    F
 

--------
Geometry
--------
Formula: C2H6ClN3O2
Atoms
  Index Symbol   x (angstrom)   y (angstrom)   z (angstrom)
      1      C     0.17892640    -0.04801923    -0.12175565
      2      H     1.59149798     1.44671894    -0.72846510
      3     Cl    -1.82377419    -0.17015702    -0.40424735
      4      C     0.62494963     1.42180524    -0.19266110
      5      H     0.12612275    -0.39223709     0.91762023
      6      N     0.77699489    -0.87330787    -1.13539673
      7      H     0.18890639    -1.68865018    -1.31709679
      8      H     1.70812031    -1.20654069    -0.84870221
      9      N     0.59033503     2.01640407     1.14027540
     10      H     0.85069473     3.00587148     1.11367377
     11      H     1.25607613     1.54075672     1.75580791
     12      N    -0.26909828     2.26228527    -1.15742143
     13      O    -0.93804875     3.17602128    -0.66489269
     14      O    -0.22301243     1.93359988    -2.34849829

Total System Charge              0.00000

 *** GO1_GOStep3 ***

 Energy gradients wrt nuclear displacements
 ==========================================

     Atom      Cartesian (a.u./angstrom)
                 X         Y         Z
 ----------------------------------------
     1 C     0.066749  0.003007  0.013617
     2 H     0.002262  0.000387 -0.002881
     3 Cl   -0.050445 -0.001793 -0.004859
     4 C    -0.015488 -0.002431 -0.020364
     5 H    -0.012578 -0.000024  0.001026
     6 N    -0.000202  0.007720 -0.003961
     7 H    -0.003415  0.000300 -0.002149
     8 H     0.006374 -0.006513  0.002337
     9 N    -0.004189  0.000048  0.009933
    10 H     0.003882  0.003317  0.001478
    11 H     0.003207  0.000861  0.003485
    12 N     0.009681 -0.000241  0.004155
    13 O    -0.003708 -0.000211  0.003677
    14 O    -0.002129 -0.004428 -0.005495
 ----------------------------------------

 dE(predicted):    -0.67341E-02, dE(actual):    -0.73228E-02, Trust radius:    0.800000, all in a.u.
 
----------------------------------------------------------------------
Geometry Convergence after Step   3       (Hartree/Angstrom,Angstrom)
----------------------------------------------------------------------
current energy                               -2.71637751 Hartree
energy change                      -0.00732276     0.00014000    F
constrained gradient max            0.06677204     0.00010000    F
constrained gradient rms            0.01430551     0.00006667    F
gradient max                        0.06677204
gradient rms                        0.01430551
cart. step max                      0.19737228     0.01000000    F
cart. step rms                      0.07696321     0.00666667    F
 

--------
Geometry
--------
Formula: C2H6ClN3O2
Atoms
  Index Symbol   x (angstrom)   y (angstrom)   z (angstrom)
      1      C     0.05401319    -0.07479673    -0.13980426
      2      H     1.55699381     1.35720133    -0.73007872
      3     Cl    -1.84325054    -0.27582332    -0.23899028
      4      C     0.58322669     1.37743557    -0.19603364
      5      H     0.23440008    -0.40100312     0.90268286
      6      N     0.69755549    -0.86195479    -1.14828226
      7      H     0.27752371    -1.79563284    -1.21863612
      8      H     1.70631456    -1.00916840    -0.97687037
      9      N     0.55579771     1.99126222     1.12597359
     10      H     0.81814587     2.98292331     1.09480235
     11      H     1.17522515     1.53885005     1.80286580
     12      N    -0.28626824     2.27224551    -1.18329586
     13      O    -0.77876851     3.29714903    -0.70759553
     14      O    -0.11221835     2.02586300    -2.37849760

Total System Charge              0.00000

 *** GO1_GOStep4 ***

 Energy gradients wrt nuclear displacements
 ==========================================

     Atom      Cartesian (a.u./angstrom)
                 X         Y         Z
 ----------------------------------------
     1 C    -0.003737  0.003426 -0.033794
     2 H     0.011478 -0.003006 -0.004603
     3 Cl   -0.040494 -0.010644  0.006326
     4 C     0.015121 -0.003157 -0.017927
     5 H     0.009314  0.002074  0.006718
     6 N     0.002295  0.034890  0.021520
     7 H    -0.000663 -0.007928 -0.001771
     8 H     0.016094 -0.013230 -0.001480
     9 N    -0.002040 -0.008546  0.009405
    10 H     0.005796  0.008427  0.004423
    11 H     0.003013  0.008188  0.009735
    12 N    -0.062865 -0.025789 -0.006265
    13 O     0.024646  0.003007  0.000376
    14 O     0.022043  0.012290  0.007337
 ----------------------------------------

 dE(predicted):    -0.64840E-02, dE(actual):    -0.10899E-02, Trust radius:    0.800000, all in a.u.
 
----------------------------------------------------------------------
Geometry Convergence after Step   4       (Hartree/Angstrom,Angstrom)
----------------------------------------------------------------------
current energy                               -2.71746740 Hartree
energy change                      -0.00108988     0.00014000    F
constrained gradient max            0.06282906     0.00010000    F
constrained gradient rms            0.01720444     0.00006667    F
gradient max                        0.06282906
gradient rms                        0.01720444
cart. step max                      0.17809419     0.01000000    F
cart. step rms                      0.05930778     0.00666667    F
 

--------
Geometry
--------
Formula: C2H6ClN3O2
Atoms
  Index Symbol   x (angstrom)   y (angstrom)   z (angstrom)
      1      C     0.03351345    -0.06512019    -0.14005153
      2      H     1.61608867     1.32394802    -0.64752536
      3     Cl    -1.78024180    -0.24253399    -0.16511475
      4      C     0.61617339     1.37684897    -0.16976860
      5      H     0.31267064    -0.41271910     0.87749702
      6      N     0.60869179    -0.85919457    -1.18530620
      7      H     0.28456948    -1.83274735    -1.15521065
      8      H     1.63792876    -0.90019256    -1.15496456
      9      N     0.52750176     1.99678794     1.13647044
     10      H     0.79610168     2.98547142     1.11641369
     11      H     1.07860944     1.53992658     1.86498099
     12      N    -0.14755363     2.32586681    -1.21941065
     13      O    -0.81820784     3.25610226    -0.75946793
     14      O    -0.12715520     1.93210658    -2.39030192

Total System Charge              0.00000

 *** GO1_GOStep5 ***

 Energy gradients wrt nuclear displacements
 ==========================================

     Atom      Cartesian (a.u./angstrom)
                 X         Y         Z
 ----------------------------------------
     1 C    -0.032463  0.005145 -0.028380
     2 H     0.005778  0.001309 -0.006103
     3 Cl   -0.002880 -0.010626  0.003388
     4 C    -0.002116 -0.023267  0.001630
     5 H     0.012135 -0.001405  0.004188
     6 N    -0.008647  0.029529  0.024043
     7 H     0.003854 -0.010767 -0.001706
     8 H     0.013019 -0.011618 -0.002458
     9 N    -0.000939 -0.010950  0.004920
    10 H     0.004644  0.007175  0.003565
    11 H     0.000936  0.007946  0.009611
    12 N     0.030752  0.035356 -0.017364
    13 O    -0.012277 -0.006785  0.006189
    14 O    -0.011795 -0.011043 -0.001523
 ----------------------------------------

 dE(predicted):    -0.84794E-02, dE(actual):    -0.40954E-02, Trust radius:    0.800000, all in a.u.
 
----------------------------------------------------------------------
Geometry Convergence after Step   5       (Hartree/Angstrom,Angstrom)
----------------------------------------------------------------------
current energy                               -2.72156284 Hartree
energy change                      -0.00409545     0.00014000    F
constrained gradient max            0.03538928     0.00010000    F
constrained gradient rms            0.01393668     0.00006667    F
gradient max                        0.03538928
gradient rms                        0.01393668
cart. step max                      0.12446399     0.01000000    F
cart. step rms                      0.04666989     0.00666667    F
 

--------
Geometry
--------
Formula: C2H6ClN3O2
Atoms
  Index Symbol   x (angstrom)   y (angstrom)   z (angstrom)
      1      C     0.14415387    -0.06862886    -0.12126386
      2      H     1.63909630     1.40806120    -0.61835432
      3     Cl    -1.72926028    -0.11807000    -0.13933741
      4      C     0.63811754     1.40030328    -0.15225663
      5      H     0.31373168    -0.44685127     0.90184636
      6      N     0.60309909    -0.88504853    -1.21846575
      7      H     0.19456394    -1.82058707    -1.18193098
      8      H     1.62318406    -0.98313438    -1.22691116
      9      N     0.50304295     2.00516131     1.15279924
     10      H     0.71435630     3.00395627     1.13787022
     11      H     1.09517153     1.55405867     1.85156347
     12      N    -0.17609483     2.26519939    -1.20804850
     13      O    -0.86832733     3.19706688    -0.78017084
     14      O    -0.05614423     1.91306394    -2.38909986

Total System Charge              0.00000

 *** GO1_GOStep6 ***

 Energy gradients wrt nuclear displacements
 ==========================================

     Atom      Cartesian (a.u./angstrom)
                 X         Y         Z
 ----------------------------------------
     1 C     0.027528  0.005098 -0.007074
     2 H    -0.000784 -0.001208 -0.002378
     3 Cl   -0.007049  0.000329  0.001676
     4 C    -0.008326 -0.000703  0.004046
     5 H    -0.008023 -0.001238  0.005900
     6 N    -0.007309 -0.002036 -0.002886
     7 H     0.000848 -0.003830 -0.002571
     8 H     0.003076 -0.005606  0.000499
     9 N    -0.000603 -0.002419  0.004079
    10 H     0.001591  0.002690  0.001668
    11 H     0.000842  0.002313  0.004559
    12 N     0.009853  0.008560 -0.000772
    13 O    -0.008397  0.003883  0.003489
    14 O    -0.003247 -0.005832 -0.010236
 ----------------------------------------

 dE(predicted):    -0.50510E-02, dE(actual):    -0.40121E-02, Trust radius:    0.800000, all in a.u.
 
----------------------------------------------------------------------
Geometry Convergence after Step   6       (Hartree/Angstrom,Angstrom)
----------------------------------------------------------------------
current energy                               -2.72557499 Hartree
energy change                      -0.00401215     0.00014000    F
constrained gradient max            0.02754619     0.00010000    F
constrained gradient rms            0.00634403     0.00006667    F
gradient max                        0.02754619
gradient rms                        0.00634403
cart. step max                      0.12458123     0.01000000    F
cart. step rms                      0.03436327     0.00666667    F
 

--------
Geometry
--------
Formula: C2H6ClN3O2
Atoms
  Index Symbol   x (angstrom)   y (angstrom)   z (angstrom)
      1      C     0.10903943    -0.07755949    -0.10216903
      2      H     1.63761345     1.37368723    -0.59388499
      3     Cl    -1.74456115    -0.12999910    -0.06278121
      4      C     0.63038691     1.38071510    -0.14369993
      5      H     0.35565994    -0.46428097     0.89998807
      6      N     0.56301037    -0.85864145    -1.22402784
      7      H     0.23628427    -1.82196213    -1.15401352
      8      H     1.58216564    -0.85855315    -1.30030048
      9      N     0.48422996     2.00003355     1.14556511
     10      H     0.70192108     2.99519318     1.11994480
     11      H     1.06416425     1.54318927     1.84851597
     12      N    -0.16014133     2.24146220    -1.21724203
     13      O    -0.82218555     3.20262442    -0.81534985
     14      O     0.00110332     1.89864217    -2.39230510

Total System Charge              0.00000

 *** GO1_GOStep7 ***

 Energy gradients wrt nuclear displacements
 ==========================================

     Atom      Cartesian (a.u./angstrom)
                 X         Y         Z
 ----------------------------------------
     1 C     0.005080  0.000191 -0.002322
     2 H    -0.000801 -0.000111 -0.001266
     3 Cl   -0.004511 -0.000384  0.001179
     4 C     0.003543 -0.001355  0.004368
     5 H    -0.001006  0.000699  0.002421
     6 N     0.000666  0.002370 -0.002265
     7 H    -0.000293  0.000162 -0.000274
     8 H     0.001159 -0.002963  0.001429
     9 N     0.000195 -0.002290  0.000255
    10 H     0.000239  0.000099 -0.000132
    11 H     0.000083  0.000859  0.000798
    12 N    -0.004733  0.001226 -0.002083
    13 O     0.000228  0.001454 -0.000806
    14 O     0.000150  0.000042 -0.001303
 ----------------------------------------

 dE(predicted):    -0.12173E-02, dE(actual):    -0.15308E-02, Trust radius:    0.800000, all in a.u.
 
----------------------------------------------------------------------
Geometry Convergence after Step   7       (Hartree/Angstrom,Angstrom)
----------------------------------------------------------------------
current energy                               -2.72710579 Hartree
energy change                      -0.00153080     0.00014000    F
constrained gradient max            0.00507400     0.00010000    F
constrained gradient rms            0.00194730     0.00006667    F
gradient max                        0.00507400
gradient rms                        0.00194730
cart. step max                      0.13206411     0.01000000    F
cart. step rms                      0.04336135     0.00666667    F
 

--------
Geometry
--------
Formula: C2H6ClN3O2
Atoms
  Index Symbol   x (angstrom)   y (angstrom)   z (angstrom)
      1      C     0.09358734    -0.08699920    -0.08399026
      2      H     1.65121834     1.34791700    -0.54858538
      3     Cl    -1.73238397    -0.12412820     0.02921762
      4      C     0.63142383     1.36656755    -0.12862701
      5      H     0.40809351    -0.48858044     0.89203771
      6      N     0.50077683    -0.84856445    -1.23618975
      7      H     0.27937118    -1.83662847    -1.12102984
      8      H     1.49579114    -0.73994862    -1.43236459
      9      N     0.45667464     2.00627849     1.14304911
     10      H     0.67710254     2.99969518     1.10948504
     11      H     1.01237404     1.55135814     1.86531332
     12      N    -0.12176501     2.22015755    -1.23030024
     13      O    -0.79865772     3.17971004    -0.85292998
     14      O     0.08508392     1.87771624    -2.39684577

Total System Charge              0.00000

 *** GO1_GOStep8 ***

 Energy gradients wrt nuclear displacements
 ==========================================

     Atom      Cartesian (a.u./angstrom)
                 X         Y         Z
 ----------------------------------------
     1 C    -0.010088 -0.002065  0.002452
     2 H    -0.001038  0.000894 -0.000756
     3 Cl    0.007875 -0.000288 -0.001477
     4 C     0.005474 -0.003011  0.005947
     5 H     0.001528  0.001415  0.000244
     6 N     0.000631  0.003148 -0.003163
     7 H    -0.000700  0.000340  0.000623
     8 H     0.000101 -0.001035  0.002466
     9 N     0.000610 -0.000470 -0.002309
    10 H    -0.000591 -0.000509 -0.000575
    11 H    -0.000372  0.000082 -0.001095
    12 N    -0.005916  0.000758 -0.006232
    13 O     0.002603 -0.000518  0.000224
    14 O    -0.000117  0.001259  0.003649
 ----------------------------------------

 dE(predicted):    -0.46544E-03, dE(actual):    -0.52133E-03, Trust radius:    0.800000, all in a.u.
 
----------------------------------------------------------------------
Geometry Convergence after Step   8       (Hartree/Angstrom,Angstrom)
----------------------------------------------------------------------
current energy                               -2.72762712 Hartree
energy change                      -0.00052133     0.00014000    F
constrained gradient max            0.01011797     0.00010000    F
constrained gradient rms            0.00304942     0.00006667    F
gradient max                        0.01011797
gradient rms                        0.00304942
cart. step max                      0.15682206     0.01000000    F
cart. step rms                      0.05447224     0.00666667    F
 

--------
Geometry
--------
Formula: C2H6ClN3O2
Atoms
  Index Symbol   x (angstrom)   y (angstrom)   z (angstrom)
      1      C     0.09254059    -0.09361171    -0.06159019
      2      H     1.66919968     1.32996201    -0.48973675
      3     Cl    -1.72094336    -0.11239795     0.15174651
      4      C     0.63417153     1.35849717    -0.11192923
      5      H     0.46853589    -0.51345102     0.88127137
      6      N     0.42991767    -0.83907542    -1.24626279
      7      H     0.33603774    -1.84066743    -1.09389734
      8      H     1.35965382    -0.61163261    -1.58918665
      9      N     0.42255248     2.01349313     1.14304560
     10      H     0.65405747     3.00281548     1.10702861
     11      H     0.95175142     1.55103643     1.87931436
     12      N    -0.07063545     2.19277195    -1.24689166
     13      O    -0.79638776     3.13202988    -0.91560950
     14      O     0.20823889     1.85478091    -2.39906235

Total System Charge              0.00000

 *** GO1_GOStep9 ***

 Energy gradients wrt nuclear displacements
 ==========================================

     Atom      Cartesian (a.u./angstrom)
                 X         Y         Z
 ----------------------------------------
     1 C    -0.012592 -0.002590  0.011472
     2 H    -0.001883  0.001883  0.000434
     3 Cl    0.012484  0.000325 -0.003852
     4 C     0.003923 -0.001861  0.005065
     5 H     0.001971  0.002285 -0.002144
     6 N     0.001154  0.000040 -0.008131
     7 H    -0.001407  0.001885  0.001665
     8 H    -0.001939  0.000218  0.004653
     9 N     0.001780  0.000744 -0.003220
    10 H    -0.002002 -0.002316 -0.001569
    11 H    -0.000431 -0.001792 -0.003889
    12 N    -0.000916 -0.000556 -0.007725
    13 O     0.002929 -0.002225 -0.001764
    14 O    -0.003071  0.003958  0.009006
 ----------------------------------------

 dE(predicted):    -0.36900E-03, dE(actual):    -0.44248E-03, Trust radius:    0.800000, all in a.u.
 
----------------------------------------------------------------------
Geometry Convergence after Step   9       (Hartree/Angstrom,Angstrom)
----------------------------------------------------------------------
current energy                               -2.72806960 Hartree
energy change                      -0.00044248     0.00014000    F
constrained gradient max            0.01260940     0.00010000    F
constrained gradient rms            0.00453133     0.00006667    F
gradient max                        0.01260940
gradient rms                        0.00453133
cart. step max                      0.20453498     0.01000000    F
cart. step rms                      0.06615826     0.00666667    F
 

--------
Geometry
--------
Formula: C2H6ClN3O2
Atoms
  Index Symbol   x (angstrom)   y (angstrom)   z (angstrom)
      1      C     0.09607133    -0.10107881    -0.03877647
      2      H     1.68845989     1.30791873    -0.41972976
      3     Cl    -1.70506546    -0.10787576     0.28972739
      4      C     0.63763723     1.35147142    -0.09027170
      5      H     0.52947257    -0.54322351     0.86532024
      6      N     0.35556555    -0.82906000    -1.25183950
      7      H     0.42657451    -1.82956166    -1.08853282
      8      H     1.15511884    -0.47067139    -1.76253914
      9      N     0.38616106     2.03120488     1.14447157
     10      H     0.64562308     3.01297657     1.10580445
     11      H     0.87408247     1.56140140     1.90421080
     12      N    -0.01171201     2.15565196    -1.26282779
     13      O    -0.79479148     3.06782791    -0.99380280
     14      O     0.35549300     1.81756909    -2.39297450

Total System Charge              0.00000

 *** GO1_GOStep10 ***

 Energy gradients wrt nuclear displacements
 ==========================================

     Atom      Cartesian (a.u./angstrom)
                 X         Y         Z
 ----------------------------------------
     1 C    -0.010948 -0.001680  0.017915
     2 H    -0.001374  0.002112  0.001217
     3 Cl    0.014651  0.000477 -0.006358
     4 C    -0.000758 -0.000150  0.000673
     5 H     0.001208  0.003167 -0.003058
     6 N    -0.001061  0.000147 -0.013427
     7 H    -0.001214  0.001530  0.002337
     8 H    -0.001939 -0.000683  0.006771
     9 N     0.003036  0.002091 -0.001911
    10 H    -0.003084 -0.002969 -0.001910
    11 H     0.000086 -0.003001 -0.005145
    12 N     0.004604 -0.003642 -0.006430
    13 O     0.000588 -0.001023 -0.001190
    14 O    -0.003798  0.003624  0.010517
 ----------------------------------------

 dE(predicted):    -0.86194E-03, dE(actual):    -0.80429E-03, Trust radius:    0.800000, all in a.u.
 
----------------------------------------------------------------------
Geometry Convergence after Step  10       (Hartree/Angstrom,Angstrom)
----------------------------------------------------------------------
current energy                               -2.72887389 Hartree
energy change                      -0.00080429     0.00014000    F
constrained gradient max            0.01789620     0.00010000    F
constrained gradient rms            0.00547920     0.00006667    F
gradient max                        0.01789620
gradient rms                        0.00547920
cart. step max                      0.20463465     0.01000000    F
cart. step rms                      0.05614811     0.00666667    F
 

--------
Geometry
--------
Formula: C2H6ClN3O2
Atoms
  Index Symbol   x (angstrom)   y (angstrom)   z (angstrom)
      1      C     0.10074076    -0.10994357    -0.02410298
      2      H     1.70102105     1.28603120    -0.36534971
      3     Cl    -1.68916878    -0.11744719     0.40628058
      4      C     0.63976076     1.34514645    -0.07447214
      5      H     0.57799307    -0.56720308     0.84805980
      6      N     0.30873241    -0.82816650    -1.24890830
      7      H     0.52758958    -1.80809711    -1.10022008
      8      H     0.95048419    -0.37206795    -1.88695261
      9      N     0.35329035     2.05027433     1.14031102
     10      H     0.65284385     3.02110085     1.10261731
     11      H     0.78819477     1.57476131     1.92854412
     12      N     0.03709564     2.13027686    -1.27419208
     13      O    -0.77267251     3.02992514    -1.05582944
     14      O     0.46278546     1.78996009    -2.38754551

Total System Charge              0.00000

 *** GO1_GOStep11 ***

 Energy gradients wrt nuclear displacements
 ==========================================

     Atom      Cartesian (a.u./angstrom)
                 X         Y         Z
 ----------------------------------------
     1 C    -0.009769 -0.000121  0.020282
     2 H    -0.000664  0.001479  0.001610
     3 Cl    0.014288  0.000003 -0.006439
     4 C    -0.003762  0.001157 -0.005064
     5 H     0.001191  0.003641 -0.002931
     6 N    -0.003839  0.000463 -0.016684
     7 H    -0.000805  0.000938  0.002315
     8 H    -0.000038 -0.001783  0.006643
     9 N     0.002257  0.002714 -0.000126
    10 H    -0.003324 -0.002451 -0.001916
    11 H     0.001002 -0.002804 -0.004716
    12 N     0.007059 -0.004990 -0.000928
    13 O     0.000386 -0.001388 -0.001650
    14 O    -0.003982  0.003141  0.009604
 ----------------------------------------

 dE(predicted):    -0.15612E-02, dE(actual):    -0.12317E-02, Trust radius:    0.800000, all in a.u.
 
----------------------------------------------------------------------
Geometry Convergence after Step  11       (Hartree/Angstrom,Angstrom)
----------------------------------------------------------------------
current energy                               -2.73010562 Hartree
energy change                      -0.00123173     0.00014000    F
constrained gradient max            0.02027299     0.00010000    F
constrained gradient rms            0.00583945     0.00006667    F
gradient max                        0.02027299
gradient rms                        0.00583945
cart. step max                      0.20666081     0.01000000    F
cart. step rms                      0.05109652     0.00666667    F
 

--------
Geometry
--------
Formula: C2H6ClN3O2
Atoms
  Index Symbol   x (angstrom)   y (angstrom)   z (angstrom)
      1      C     0.10658918    -0.12021891    -0.01388908
      2      H     1.71353941     1.26614247    -0.31872252
      3     Cl    -1.67641132    -0.12735940     0.50541325
      4      C     0.64379561     1.33897812    -0.06189268
      5      H     0.62247102    -0.59159554     0.82900463
      6      N     0.27514160    -0.83032573    -1.24255783
      7      H     0.62936703    -1.77371431    -1.12620095
      8      H     0.74382338    -0.30906688    -1.97709158
      9      N     0.32626930     2.06850286     1.13699798
     10      H     0.66209371     3.02983380     1.10348687
     11      H     0.70546117     1.59477348     1.95608575
     12      N     0.07945921     2.10996242    -1.28595920
     13      O    -0.75074564     2.99812149    -1.10841417
     14      O     0.55783695     1.77051694    -2.38802047

Total System Charge              0.00000

 *** GO1_GOStep12 ***

 Energy gradients wrt nuclear displacements
 ==========================================

     Atom      Cartesian (a.u./angstrom)
                 X         Y         Z
 ----------------------------------------
     1 C    -0.009451  0.000853  0.019487
     2 H     0.001100  0.000385  0.002089
     3 Cl    0.010659 -0.000241 -0.005382
     4 C    -0.005311  0.000573 -0.012627
     5 H     0.003365  0.003050 -0.001444
     6 N    -0.007083  0.000860 -0.015621
     7 H     0.000603 -0.000122  0.001929
     8 H     0.002126 -0.001871  0.003245
     9 N    -0.000334  0.002222  0.003487
    10 H    -0.002691  0.000412 -0.001353
    11 H     0.002146 -0.001769 -0.001365
    12 N     0.004859 -0.004645  0.008751
    13 O    -0.000809  0.000118 -0.000387
    14 O     0.000821  0.000175 -0.000809
 ----------------------------------------

 dE(predicted):    -0.21332E-02, dE(actual):    -0.12248E-02, Trust radius:    0.800000, all in a.u.
 
----------------------------------------------------------------------
Geometry Convergence after Step  12       (Hartree/Angstrom,Angstrom)
----------------------------------------------------------------------
current energy                               -2.73133037 Hartree
energy change                      -0.00122475     0.00014000    F
constrained gradient max            0.01948490     0.00010000    F
constrained gradient rms            0.00557698     0.00006667    F
gradient max                        0.01948490
gradient rms                        0.00557698
cart. step max                      0.20927559     0.01000000    F
cart. step rms                      0.04865433     0.00666667    F
 

--------
Geometry
--------
Formula: C2H6ClN3O2
Atoms
  Index Symbol   x (angstrom)   y (angstrom)   z (angstrom)
      1      C     0.11508634    -0.12670136    -0.00601737
      2      H     1.72491231     1.25356907    -0.27628996
      3     Cl    -1.66146667    -0.13452142     0.59083892
      4      C     0.64925658     1.33633830    -0.05096522
      5      H     0.65468488    -0.61256230     0.81194389
      6      N     0.25361115    -0.83002106    -1.23463468
      7      H     0.73459626    -1.71876671    -1.16303643
      8      H     0.53454779    -0.26681734    -2.03205077
      9      N     0.30355944     2.08709344     1.12843520
     10      H     0.68751405     3.03120456     1.10812088
     11      H     0.61725427     1.60367996     1.96928960
     12      N     0.11805364     2.09048901    -1.29606764
     13      O    -0.73263318     2.96393917    -1.16039512
     14      O     0.63971375     1.74762748    -2.38093133

Total System Charge              0.00000

 *** GO1_GOStep13 ***

 Energy gradients wrt nuclear displacements
 ==========================================

     Atom      Cartesian (a.u./angstrom)
                 X         Y         Z
 ----------------------------------------
     1 C    -0.007525  0.002467  0.018567
     2 H     0.001328 -0.000282  0.003116
     3 Cl    0.007051 -0.000243 -0.003214
     4 C    -0.005394 -0.000389 -0.017682
     5 H     0.003032  0.002921 -0.000829
     6 N    -0.004885 -0.001283 -0.016773
     7 H     0.001117  0.000600  0.001729
     8 H     0.000422 -0.000187  0.001629
     9 N    -0.001637  0.003122  0.004977
    10 H    -0.002754  0.000912 -0.001367
    11 H     0.002904 -0.001279 -0.000834
    12 N     0.003510 -0.003985  0.012994
    13 O     0.000933 -0.001622 -0.001183
    14 O     0.001897 -0.000753 -0.001130
 ----------------------------------------

 dE(predicted):    -0.97625E-03, dE(actual):    -0.60031E-03, Trust radius:    0.800000, all in a.u.
 
----------------------------------------------------------------------
Geometry Convergence after Step  13       (Hartree/Angstrom,Angstrom)
----------------------------------------------------------------------
current energy                               -2.73193068 Hartree
energy change                      -0.00060031     0.00014000    F
constrained gradient max            0.01859033     0.00010000    F
constrained gradient rms            0.00581288     0.00006667    F
gradient max                        0.01859033
gradient rms                        0.00581288
cart. step max                      0.08004418     0.01000000    F
cart. step rms                      0.03624751     0.00666667    F
 

--------
Geometry
--------
Formula: C2H6ClN3O2
Atoms
  Index Symbol   x (angstrom)   y (angstrom)   z (angstrom)
      1      C     0.11563165    -0.14423714    -0.02884817
      2      H     1.74815920     1.24072831    -0.29952875
      3     Cl    -1.74111389    -0.10127332     0.58098518
      4      C     0.67168677     1.33054562    -0.05530316
      5      H     0.63689640    -0.66829347     0.79721719
      6      N     0.27875985    -0.85285132    -1.21511293
      7      H     0.79873004    -1.72502590    -1.15860273
      8      H     0.55480517    -0.30865620    -2.05773016
      9      N     0.33441963     2.10524267     1.14871318
     10      H     0.76755823     3.04359315     1.14153537
     11      H     0.55571519     1.65990135     2.04677941
     12      N     0.08819151     2.10685082    -1.31435399
     13      O    -0.77023969     2.96894348    -1.12923251
     14      O     0.59949055     1.76908278    -2.44827795

Total System Charge              0.00000

 *** GO1_GOStep14 ***

 Energy gradients wrt nuclear displacements
 ==========================================

     Atom      Cartesian (a.u./angstrom)
                 X         Y         Z
 ----------------------------------------
     1 C    -0.014139 -0.008657 -0.021367
     2 H     0.009964 -0.004194  0.002679
     3 Cl   -0.018659  0.000913  0.006558
     4 C     0.009539 -0.003518 -0.035198
     5 H     0.017328 -0.011842  0.004311
     6 N    -0.020795 -0.006882  0.041039
     7 H     0.008150 -0.001508 -0.005985
     8 H     0.017116  0.009462 -0.025691
     9 N    -0.015803 -0.004578  0.024274
    10 H     0.005867  0.019667  0.003880
    11 H     0.003341  0.007975  0.018831
    12 N    -0.013027  0.003293  0.034466
    13 O    -0.017788  0.016482  0.012520
    14 O     0.028906 -0.016614 -0.060317
 ----------------------------------------

 dE(predicted):    -0.13182E-02, dE(actual):     0.44066E-02, Trust radius:    0.090067, all in a.u.
 
----------------------------------------------------------------------
Geometry Convergence after Step  14       (Hartree/Angstrom,Angstrom)
----------------------------------------------------------------------
current energy                               -2.72752409 Hartree
energy change                       0.00440659     0.00014000    F
constrained gradient max            0.06033603     0.00010000    F
constrained gradient rms            0.01886554     0.00006667    F
gradient max                        0.06033603
gradient rms                        0.01886554
cart. step max                      0.03152152     0.01000000    F
cart. step rms                      0.01134549     0.00666667    F
 

--------
Geometry
--------
Formula: C2H6ClN3O2
Atoms
  Index Symbol   x (angstrom)   y (angstrom)   z (angstrom)
      1      C     0.11795794    -0.13374472    -0.02297283
      2      H     1.74181494     1.24824767    -0.29715616
      3     Cl    -1.72222746    -0.09874021     0.57943883
      4      C     0.66811397     1.33436420    -0.05439008
      5      H     0.63446828    -0.64600058     0.80382452
      6      N     0.27677517    -0.84699149    -1.21688534
      7      H     0.79599321    -1.71707329    -1.15486190
      8      H     0.54231708    -0.30170563    -2.04765122
      9      N     0.33006154     2.09712347     1.13556897
     10      H     0.76077353     3.02844461     1.13139844
     11      H     0.56059287     1.63035489     2.01525790
     12      N     0.09326010     2.10290618    -1.30698494
     13      O    -0.76426942     2.96240634    -1.13899277
     14      O     0.60305886     1.76495939    -2.41735344

Total System Charge              0.00000

 *** GO1_GOStep15 ***

 Energy gradients wrt nuclear displacements
 ==========================================

     Atom      Cartesian (a.u./angstrom)
                 X         Y         Z
 ----------------------------------------
     1 C    -0.009211 -0.003961 -0.008481
     2 H     0.005410 -0.002725  0.003524
     3 Cl   -0.013191  0.000725  0.004670
     4 C     0.007548 -0.000933 -0.027026
     5 H     0.011563 -0.006096  0.001122
     6 N    -0.014106 -0.004203  0.019568
     7 H     0.005853  0.000210 -0.004380
     8 H     0.010890  0.003716 -0.013119
     9 N    -0.009673 -0.002297  0.015494
    10 H     0.001891  0.010039  0.001177
    11 H     0.003100  0.005288  0.009966
    12 N    -0.009529  0.004194  0.021190
    13 O    -0.005164  0.003952  0.004871
    14 O     0.014620 -0.007909 -0.028573
 ----------------------------------------

 dE(predicted):    -0.33772E-02, dE(actual):    -0.38517E-02, Trust radius:    0.180135, all in a.u.
 
----------------------------------------------------------------------
Geometry Convergence after Step  15       (Hartree/Angstrom,Angstrom)
----------------------------------------------------------------------
current energy                               -2.73137580 Hartree
energy change                      -0.00385171     0.00014000    F
constrained gradient max            0.02859099     0.00010000    F
constrained gradient rms            0.01050320     0.00006667    F
gradient max                        0.02859099
gradient rms                        0.01050320
cart. step max                      0.04918153     0.01000000    F
cart. step rms                      0.01747447     0.00666667    F
 

--------
Geometry
--------
Formula: C2H6ClN3O2
Atoms
  Index Symbol   x (angstrom)   y (angstrom)   z (angstrom)
      1      C     0.12985067    -0.11788469    -0.01522208
      2      H     1.73199845     1.26608301    -0.30116845
      3     Cl    -1.68402242    -0.10126898     0.57451178
      4      C     0.66190964     1.34610837    -0.05276511
      5      H     0.63126551    -0.61434371     0.82028604
      6      N     0.27899807    -0.83972392    -1.21375750
      7      H     0.79889722    -1.70715818    -1.14509336
      8      H     0.50859666    -0.29715743    -2.04228199
      9      N     0.32665115     2.09187219     1.12270576
     10      H     0.78254121     3.00271662     1.14517306
     11      H     0.53203044     1.58117336     1.97882167
     12      N     0.09672213     2.09918234    -1.30846910
     13      O    -0.75709410     2.96639454    -1.16116125
     14      O     0.60034598     1.74855730    -2.39333950

Total System Charge              0.00000

 *** GO1_GOStep16 ***

 Energy gradients wrt nuclear displacements
 ==========================================

     Atom      Cartesian (a.u./angstrom)
                 X         Y         Z
 ----------------------------------------
     1 C    -0.001380  0.000969  0.004391
     2 H     0.000630 -0.002022  0.003360
     3 Cl    0.000064 -0.000473 -0.000060
     4 C     0.000017  0.004626 -0.012793
     5 H     0.001797  0.000072 -0.000382
     6 N    -0.009345  0.001394 -0.003420
     7 H     0.003370  0.000614 -0.001416
     8 H     0.002938 -0.002197  0.000033
     9 N    -0.002705 -0.001998  0.004616
    10 H    -0.002055  0.000517 -0.001495
    11 H     0.003550  0.001761  0.000035
    12 N     0.004449 -0.003409  0.000695
    13 O     0.000117 -0.001416 -0.000669
    14 O    -0.001447  0.001562  0.007105
 ----------------------------------------

 dE(predicted):    -0.18399E-02, dE(actual):    -0.20436E-02, Trust radius:    0.360270, all in a.u.
 
----------------------------------------------------------------------
Geometry Convergence after Step  16       (Hartree/Angstrom,Angstrom)
----------------------------------------------------------------------
current energy                               -2.73341941 Hartree
energy change                      -0.00204361     0.00014000    F
constrained gradient max            0.01280446     0.00010000    F
constrained gradient rms            0.00344668     0.00006667    F
gradient max                        0.01280446
gradient rms                        0.00344668
cart. step max                      0.10418471     0.01000000    F
cart. step rms                      0.02666708     0.00666667    F
 

--------
Geometry
--------
Formula: C2H6ClN3O2
Atoms
  Index Symbol   x (angstrom)   y (angstrom)   z (angstrom)
      1      C     0.14409012    -0.11341051    -0.01097214
      2      H     1.73627436     1.27755770    -0.30177972
      3     Cl    -1.66557427    -0.09627886     0.60484499
      4      C     0.66570113     1.35322548    -0.05481352
      5      H     0.64940998    -0.60722002     0.82165326
      6      N     0.28321998    -0.84192594    -1.20348790
      7      H     0.84188941    -1.68502260    -1.14951397
      8      H     0.42920723    -0.30222803    -2.05143106
      9      N     0.32311886     2.10379683     1.11096093
     10      H     0.84661965     2.97426124     1.18165276
     11      H     0.42784573     1.55996990     1.96436699
     12      N     0.10258456     2.09782016    -1.31943681
     13      O    -0.75166111     2.96520449    -1.18062246
     14      O     0.60596495     1.73880098    -2.40318139

Total System Charge              0.00000

 *** GO1_GOStep17 ***

 Energy gradients wrt nuclear displacements
 ==========================================

     Atom      Cartesian (a.u./angstrom)
                 X         Y         Z
 ----------------------------------------
     1 C    -0.000094  0.000864  0.005576
     2 H     0.000751 -0.002293  0.002848
     3 Cl    0.001512 -0.000029  0.000262
     4 C    -0.000819  0.004606 -0.012138
     5 H    -0.000188  0.000636 -0.000380
     6 N    -0.007294  0.000624 -0.005511
     7 H     0.003130  0.000874 -0.000883
     8 H     0.000835 -0.001676  0.000893
     9 N    -0.005937 -0.000195  0.002249
    10 H    -0.001886  0.000271 -0.001894
    11 H     0.004736 -0.000014 -0.000720
    12 N     0.006068 -0.003526  0.004760
    13 O     0.000598 -0.001775 -0.000757
    14 O    -0.001413  0.001633  0.005695
 ----------------------------------------

 dE(predicted):    -0.40264E-03, dE(actual):    -0.73763E-03, Trust radius:    0.720540, all in a.u.
 
----------------------------------------------------------------------
Geometry Convergence after Step  17       (Hartree/Angstrom,Angstrom)
----------------------------------------------------------------------
current energy                               -2.73415704 Hartree
energy change                      -0.00073763     0.00014000    F
constrained gradient max            0.01215329     0.00010000    F
constrained gradient rms            0.00345364     0.00006667    F
gradient max                        0.01215329
gradient rms                        0.00345364
cart. step max                      0.21178126     0.01000000    F
cart. step rms                      0.05225599     0.00666667    F
 

--------
Geometry
--------
Formula: C2H6ClN3O2
Atoms
  Index Symbol   x (angstrom)   y (angstrom)   z (angstrom)
      1      C     0.17235514    -0.09822221    -0.00483834
      2      H     1.73574775     1.31078558    -0.33928921
      3     Cl    -1.64029446    -0.08121502     0.61452210
      4      C     0.67164947     1.37097376    -0.06286498
      5      H     0.66831481    -0.57769734     0.83834972
      6      N     0.31632359    -0.84198792    -1.18302210
      7      H     0.88554134    -1.67588946    -1.12733927
      8      H     0.38772069    -0.31649752    -2.04741478
      9      N     0.34724581     2.12248041     1.09548110
     10      H     1.00312386     2.87600561     1.28463581
     11      H     0.21606448     1.53120831     1.91159127
     12      N     0.08198854     2.10387379    -1.34057221
     13      O    -0.74869454     2.99141909    -1.19487537
     14      O     0.54160413     1.70931374    -2.43612377

Total System Charge              0.00000

 *** GO1_GOStep18 ***

 Energy gradients wrt nuclear displacements
 ==========================================

     Atom      Cartesian (a.u./angstrom)
                 X         Y         Z
 ----------------------------------------
     1 C    -0.000016  0.001350  0.010151
     2 H     0.000973 -0.003146 -0.000494
     3 Cl    0.006004 -0.000044 -0.001426
     4 C    -0.004092  0.004856 -0.006447
     5 H    -0.003600  0.001752 -0.000665
     6 N    -0.004543 -0.001289 -0.009864
     7 H     0.002424  0.001710  0.000505
     8 H    -0.001754 -0.000683  0.002785
     9 N    -0.009992  0.003658 -0.001659
    10 H    -0.000624  0.000185 -0.002026
    11 H     0.006827 -0.004415 -0.002176
    12 N     0.009445 -0.002485  0.012215
    13 O    -0.000843 -0.000994 -0.000263
    14 O    -0.000211 -0.000456 -0.000636
 ----------------------------------------

 dE(predicted):    -0.19846E-02, dE(actual):    -0.21748E-02, Trust radius:    1.000000, all in a.u.
 
----------------------------------------------------------------------
Geometry Convergence after Step  18       (Hartree/Angstrom,Angstrom)
----------------------------------------------------------------------
current energy                               -2.73633181 Hartree
energy change                      -0.00217476     0.00014000    F
constrained gradient max            0.01212234     0.00010000    F
constrained gradient rms            0.00444627     0.00006667    F
gradient max                        0.01212234
gradient rms                        0.00444627
cart. step max                      0.21540916     0.01000000    F
cart. step rms                      0.05930716     0.00666667    F
 

--------
Geometry
--------
Formula: C2H6ClN3O2
Atoms
  Index Symbol   x (angstrom)   y (angstrom)   z (angstrom)
      1      C     0.20574046    -0.08613674    -0.00339286
      2      H     1.73282218     1.34712747    -0.39424899
      3     Cl    -1.61776250    -0.06193740     0.60223359
      4      C     0.68157449     1.38435439    -0.07059479
      5      H     0.68239706    -0.54976085     0.85768014
      6      N     0.36819315    -0.84503257    -1.16295662
      7      H     0.89999867    -1.69968629    -1.08792104
      8      H     0.41416988    -0.33469958    -2.03765810
      9      N     0.39452187     2.13080918     1.08695400
     10      H     1.15067138     2.72961638     1.40381823
     11      H     0.00065531     1.56452080     1.83181135
     12      N     0.04178250     2.11873197    -1.35740256
     13      O    -0.74471826     3.03890485    -1.18552895
     14      O     0.42864441     1.68773922    -2.47455343

Total System Charge              0.00000

 *** GO1_GOStep19 ***

 Energy gradients wrt nuclear displacements
 ==========================================

     Atom      Cartesian (a.u./angstrom)
                 X         Y         Z
 ----------------------------------------
     1 C    -0.001775  0.002764  0.012677
     2 H     0.001331 -0.004820 -0.005723
     3 Cl    0.011574  0.000240 -0.003508
     4 C    -0.006539  0.004934  0.001400
     5 H    -0.005391  0.001850 -0.001145
     6 N    -0.003156 -0.005696 -0.010737
     7 H     0.002115  0.002961  0.002112
     8 H    -0.002451  0.001293  0.004209
     9 N    -0.014049  0.005325 -0.004250
    10 H     0.001218 -0.000246 -0.000830
    11 H     0.007471 -0.006816 -0.002385
    12 N     0.009383  0.001430  0.019777
    13 O    -0.002058 -0.000007  0.000175
    14 O     0.002327 -0.003214 -0.011772
 ----------------------------------------

 dE(predicted):    -0.35269E-02, dE(actual):    -0.29531E-02, Trust radius:    1.000000, all in a.u.
 
----------------------------------------------------------------------
Geometry Convergence after Step  19       (Hartree/Angstrom,Angstrom)
----------------------------------------------------------------------
current energy                               -2.73928491 Hartree
energy change                      -0.00295311     0.00014000    F
constrained gradient max            0.01970126     0.00010000    F
constrained gradient rms            0.00631095     0.00006667    F
gradient max                        0.01970126
gradient rms                        0.00631095
cart. step max                      0.20850830     0.01000000    F
cart. step rms                      0.07737514     0.00666667    F
 

--------
Geometry
--------
Formula: C2H6ClN3O2
Atoms
  Index Symbol   x (angstrom)   y (angstrom)   z (angstrom)
      1      C     0.24329752    -0.08519830    -0.01183313
      2      H     1.72365775     1.38912755    -0.45170646
      3     Cl    -1.62303364    -0.05353372     0.52271523
      4      C     0.69593115     1.38569610    -0.06458564
      5      H     0.66914462    -0.54017944     0.88056736
      6      N     0.46547162    -0.84606878    -1.14593190
      7      H     0.87122581    -1.76199694    -1.04227983
      8      H     0.55311407    -0.34016152    -2.02301884
      9      N     0.48196955     2.12614014     1.09418095
     10      H     1.29685005     2.54567474     1.52705153
     11      H    -0.18309221     1.71521494     1.74150422
     12      N    -0.03614115     2.13406280    -1.36343829
     13      O    -0.73984064     3.10712364    -1.14770423
     14      O     0.22013611     1.64864960    -2.50728100

Total System Charge              0.00000

 *** GO1_GOStep20 ***

 Energy gradients wrt nuclear displacements
 ==========================================

     Atom      Cartesian (a.u./angstrom)
                 X         Y         Z
 ----------------------------------------
     1 C    -0.002505  0.004040  0.004799
     2 H     0.000104 -0.005315 -0.010116
     3 Cl    0.013924 -0.001301 -0.005185
     4 C    -0.007969  0.004577  0.015055
     5 H    -0.003493  0.000551 -0.001846
     6 N    -0.007422 -0.014769 -0.001975
     7 H     0.001878  0.004592  0.003653
     8 H     0.001806  0.006786  0.003100
     9 N    -0.008330  0.004443 -0.004275
    10 H     0.002635 -0.001189  0.001857
    11 H     0.004168 -0.004742 -0.001029
    12 N     0.003673  0.011392  0.026591
    13 O    -0.001985  0.000926  0.001430
    14 O     0.003514 -0.009989 -0.032058
 ----------------------------------------

 dE(predicted):    -0.40519E-02, dE(actual):    -0.33910E-02, Trust radius:    1.000000, all in a.u.
 
----------------------------------------------------------------------
Geometry Convergence after Step  20       (Hartree/Angstrom,Angstrom)
----------------------------------------------------------------------
current energy                               -2.74267596 Hartree
energy change                      -0.00339104     0.00014000    F
constrained gradient max            0.03207104     0.00010000    F
constrained gradient rms            0.00880589     0.00006667    F
gradient max                        0.03207104
gradient rms                        0.00880589
cart. step max                      0.20994646     0.01000000    F
cart. step rms                      0.07250257     0.00666667    F
 

--------
Geometry
--------
Formula: C2H6ClN3O2
Atoms
  Index Symbol   x (angstrom)   y (angstrom)   z (angstrom)
      1      C     0.29521045    -0.08403725    -0.01109586
      2      H     1.75278745     1.42637503    -0.44174344
      3     Cl    -1.57920501    -0.03666924     0.58250243
      4      C     0.72880372     1.39033384    -0.05194254
      5      H     0.72603822    -0.55531340     0.86770572
      6      N     0.49405123    -0.83303187    -1.14521104
      7      H     0.94170816    -1.73132044    -1.07997404
      8      H     0.38196680    -0.36734671    -2.03980441
      9      N     0.51398181     2.12755874     1.09611328
     10      H     1.31315491     2.34099471     1.67864284
     11      H    -0.35195008     1.92516140     1.58433536
     12      N    -0.03792733     2.11955379    -1.36813186
     13      O    -0.73796811     3.09634075    -1.16363804
     14      O     0.19803839     1.60595145    -2.49951840

Total System Charge              0.00000

 *** GO1_GOStep21 ***

 Energy gradients wrt nuclear displacements
 ==========================================

     Atom      Cartesian (a.u./angstrom)
                 X         Y         Z
 ----------------------------------------
     1 C     0.001528  0.005163  0.005745
     2 H    -0.001841 -0.002704 -0.011988
     3 Cl    0.013405  0.001005 -0.002894
     4 C    -0.001760  0.006243  0.024315
     5 H    -0.006156 -0.000342 -0.003483
     6 N    -0.005036 -0.009800 -0.000568
     7 H     0.005415  0.007803  0.002715
     8 H    -0.003835  0.004994  0.003337
     9 N    -0.003230 -0.011239 -0.005854
    10 H     0.000549 -0.004410  0.002713
    11 H     0.000233  0.002386 -0.004437
    12 N    -0.004594  0.013114  0.016395
    13 O    -0.000045 -0.000836 -0.000979
    14 O     0.005367 -0.011378 -0.025017
 ----------------------------------------

 dE(predicted):    -0.18739E-02, dE(actual):     0.11651E-03, Trust radius:    0.233308, all in a.u.
 
----------------------------------------------------------------------
Geometry Convergence after Step  21       (Hartree/Angstrom,Angstrom)
----------------------------------------------------------------------
current energy                               -2.74255944 Hartree
energy change                       0.00011651     0.00014000    T
constrained gradient max            0.02502692     0.00010000    F
constrained gradient rms            0.00820877     0.00006667    F
gradient max                        0.02502692
gradient rms                        0.00820877
cart. step max                      0.06638219     0.01000000    F
cart. step rms                      0.02731252     0.00666667    F
 

--------
Geometry
--------
Formula: C2H6ClN3O2
Atoms
  Index Symbol   x (angstrom)   y (angstrom)   z (angstrom)
      1      C     0.29665636    -0.09617852    -0.02189126
      2      H     1.76876711     1.44331276    -0.41297086
      3     Cl    -1.62099794    -0.02119055     0.51658491
      4      C     0.73999060     1.37999702    -0.04677612
      5      H     0.70335333    -0.57524072     0.86908851
      6      N     0.52772542    -0.84194177    -1.14716387
      7      H     0.89955263    -1.77563239    -1.07708690
      8      H     0.44815890    -0.38797802    -2.05386835
      9      N     0.52959043     2.13405825     1.09577612
     10      H     1.33227687     2.40737690     1.64811745
     11      H    -0.32127010     1.92938890     1.61405842
     12      N    -0.06104080     2.11848892    -1.35899521
     13      O    -0.76257297     3.09090979    -1.12785969
     14      O     0.15850075     1.61918023    -2.48877318

Total System Charge              0.00000

 *** GO1_GOStep22 ***

 Energy gradients wrt nuclear displacements
 ==========================================

     Atom      Cartesian (a.u./angstrom)
                 X         Y         Z
 ----------------------------------------
     1 C    -0.002183  0.000347 -0.003223
     2 H    -0.001289  0.001448 -0.003507
     3 Cl    0.004555  0.001369 -0.002351
     4 C     0.004339 -0.003279  0.016017
     5 H    -0.000068 -0.002138 -0.001388
     6 N    -0.009359 -0.010574  0.007409
     7 H     0.007197  0.005017  0.000424
     8 H    -0.000408  0.004353 -0.001582
     9 N     0.003360  0.001439 -0.007759
    10 H     0.001094 -0.002583  0.003927
    11 H    -0.002654  0.000672 -0.000694
    12 N    -0.005533  0.006688  0.002591
    13 O    -0.001995  0.001665  0.001240
    14 O     0.002944 -0.004423 -0.011103
 ----------------------------------------

 dE(predicted):    -0.19953E-02, dE(actual):    -0.19465E-02, Trust radius:    0.466615, all in a.u.
 
----------------------------------------------------------------------
Geometry Convergence after Step  22       (Hartree/Angstrom,Angstrom)
----------------------------------------------------------------------
current energy                               -2.74450599 Hartree
energy change                      -0.00194655     0.00014000    F
constrained gradient max            0.01602488     0.00010000    F
constrained gradient rms            0.00500429     0.00006667    F
gradient max                        0.01602488
gradient rms                        0.00500429
cart. step max                      0.12858602     0.01000000    F
cart. step rms                      0.03961873     0.00666667    F
 

--------
Geometry
--------
Formula: C2H6ClN3O2
Atoms
  Index Symbol   x (angstrom)   y (angstrom)   z (angstrom)
      1      C     0.30640226    -0.09816017    -0.01881130
      2      H     1.78006000     1.46325097    -0.39037590
      3     Cl    -1.63599962    -0.00725725     0.47546599
      4      C     0.74897043     1.37606559    -0.04089878
      5      H     0.69344587    -0.58165900     0.88192810
      6      N     0.55802876    -0.82229409    -1.15206744
      7      H     0.77096662    -1.80759716    -1.10343554
      8      H     0.56887519    -0.34729967    -2.05085626
      9      N     0.52782272     2.12110703     1.10699322
     10      H     1.32315943     2.50292286     1.59993527
     11      H    -0.27616294     1.86524070     1.67483370
     12      N    -0.08029338     2.09669054    -1.36364379
     13      O    -0.76064518     3.08574535    -1.13348008
     14      O     0.11406044     1.57779512    -2.47734723

Total System Charge              0.00000

 *** GO1_GOStep23 ***

 Energy gradients wrt nuclear displacements
 ==========================================

     Atom      Cartesian (a.u./angstrom)
                 X         Y         Z
 ----------------------------------------
     1 C    -0.005889 -0.001954 -0.001607
     2 H    -0.001190  0.002511  0.002246
     3 Cl    0.002903  0.002353 -0.003797
     4 C     0.008809 -0.004389  0.004979
     5 H     0.004364 -0.001929  0.001252
     6 N    -0.016913 -0.002206  0.004327
     7 H     0.006965  0.001489 -0.001172
     8 H     0.006469  0.002606 -0.002002
     9 N     0.003744  0.007024 -0.004526
    10 H     0.000349 -0.002985  0.003282
    11 H    -0.001793 -0.001240  0.002324
    12 N    -0.006582 -0.003658 -0.015781
    13 O    -0.001597  0.002497  0.002827
    14 O     0.000360 -0.000119  0.007648
 ----------------------------------------

 dE(predicted):    -0.13785E-02, dE(actual):    -0.14285E-02, Trust radius:    0.933230, all in a.u.
 
----------------------------------------------------------------------
Geometry Convergence after Step  23       (Hartree/Angstrom,Angstrom)
----------------------------------------------------------------------
current energy                               -2.74593446 Hartree
energy change                      -0.00142847     0.00014000    F
constrained gradient max            0.01694487     0.00010000    F
constrained gradient rms            0.00520411     0.00006667    F
gradient max                        0.01694487
gradient rms                        0.00520411
cart. step max                      0.11552774     0.01000000    F
cart. step rms                      0.03502394     0.00666667    F
 

--------
Geometry
--------
Formula: C2H6ClN3O2
Atoms
  Index Symbol   x (angstrom)   y (angstrom)   z (angstrom)
      1      C     0.32726056    -0.10977878    -0.01692246
      2      H     1.79454760     1.47918486    -0.35769858
      3     Cl    -1.63533933    -0.04042118     0.48475751
      4      C     0.75624219     1.36927455    -0.04078698
      5      H     0.72143971    -0.59121987     0.88350042
      6      N     0.57892226    -0.82897934    -1.14724979
      7      H     0.65897818    -1.83601894    -1.11971694
      8      H     0.57325217    -0.36647802    -2.05162013
      9      N     0.50880044     2.10319289     1.11139541
     10      H     1.26641975     2.61845060     1.53561120
     11      H    -0.24331614     1.80339069     1.72371964
     12      N    -0.06725709     2.10776569    -1.37237816
     13      O    -0.74975636     3.09217374    -1.13306658
     14      O     0.14849668     1.62401394    -2.49130458

Total System Charge              0.00000

 *** GO1_GOStep24 ***

 Energy gradients wrt nuclear displacements
 ==========================================

     Atom      Cartesian (a.u./angstrom)
                 X         Y         Z
 ----------------------------------------
     1 C    -0.004057 -0.007363 -0.005371
     2 H    -0.000911  0.003911  0.008504
     3 Cl   -0.001678  0.001679 -0.003084
     4 C     0.012715 -0.008218 -0.007988
     5 H     0.007440 -0.002461  0.001627
     6 N    -0.019776  0.001312  0.010176
     7 H     0.006133 -0.000636 -0.002960
     8 H     0.008540 -0.001063 -0.001238
     9 N    -0.001911  0.013041 -0.001931
    10 H     0.000733 -0.002386  0.002154
    11 H     0.001555 -0.001780  0.004542
    12 N    -0.006482 -0.005014 -0.020588
    13 O     0.000893 -0.000638 -0.000502
    14 O    -0.003193  0.009616  0.016660
 ----------------------------------------

 dE(predicted):    -0.87530E-03, dE(actual):    -0.11736E-02, Trust radius:    0.933230, all in a.u.
 
----------------------------------------------------------------------
Geometry Convergence after Step  24       (Hartree/Angstrom,Angstrom)
----------------------------------------------------------------------
current energy                               -2.74710809 Hartree
energy change                      -0.00117362     0.00014000    F
constrained gradient max            0.02059170     0.00010000    F
constrained gradient rms            0.00734549     0.00006667    F
gradient max                        0.02059170
gradient rms                        0.00734549
cart. step max                      0.21049247     0.01000000    F
cart. step rms                      0.04709627     0.00666667    F
 

--------
Geometry
--------
Formula: C2H6ClN3O2
Atoms
  Index Symbol   x (angstrom)   y (angstrom)   z (angstrom)
      1      C     0.38492599    -0.12996751    -0.00838532
      2      H     1.81756167     1.51169596    -0.32377071
      3     Cl    -1.62289486    -0.08763355     0.47151359
      4      C     0.78394058     1.35175106    -0.01991699
      5      H     0.75978784    -0.61560577     0.89915172
      6      N     0.66411280    -0.82396321    -1.13396636
      7      H     0.44848572    -1.81059456    -1.18280252
      8      H     0.59506491    -0.34409079    -2.02735163
      9      N     0.51991432     2.06250672     1.13304300
     10      H     1.19619915     2.71961815     1.48825167
     11      H    -0.24445151     1.80082738     1.74277640
     12      N    -0.07095204     2.09294585    -1.38383094
     13      O    -0.72308924     3.09689979    -1.14390722
     14      O     0.13008530     1.60016132    -2.50256470

Total System Charge              0.00000

 *** GO1_GOStep25 ***

 Energy gradients wrt nuclear displacements
 ==========================================

     Atom      Cartesian (a.u./angstrom)
                 X         Y         Z
 ----------------------------------------
     1 C     0.003040 -0.019851 -0.024118
     2 H    -0.002378  0.005987  0.013734
     3 Cl   -0.008739  0.001516 -0.000853
     4 C     0.014726 -0.010026 -0.013271
     5 H     0.010996 -0.002449  0.001338
     6 N    -0.016583  0.014640  0.031815
     7 H     0.000424  0.004871 -0.009358
     8 H     0.008398 -0.008356  0.000295
     9 N    -0.004518  0.012855 -0.002122
    10 H     0.000272 -0.004295  0.002930
    11 H     0.005431  0.000566  0.006179
    12 N    -0.012910 -0.001741 -0.020584
    13 O     0.002655 -0.001332 -0.000845
    14 O    -0.000812  0.007614  0.014860
 ----------------------------------------

 dE(predicted):    -0.14721E-02, dE(actual):    -0.13878E-02, Trust radius:    0.933230, all in a.u.
 
----------------------------------------------------------------------
Geometry Convergence after Step  25       (Hartree/Angstrom,Angstrom)
----------------------------------------------------------------------
current energy                               -2.74849593 Hartree
energy change                      -0.00138785     0.00014000    F
constrained gradient max            0.03191108     0.00010000    F
constrained gradient rms            0.01073214     0.00006667    F
gradient max                        0.03191108
gradient rms                        0.01073214
cart. step max                      0.11254412     0.01000000    F
cart. step rms                      0.03620268     0.00666667    F
 

--------
Geometry
--------
Formula: C2H6ClN3O2
Atoms
  Index Symbol   x (angstrom)   y (angstrom)   z (angstrom)
      1      C     0.41258567    -0.13176760    -0.00253379
      2      H     1.83066623     1.49973180    -0.32329441
      3     Cl    -1.58263986    -0.15563681     0.51429659
      4      C     0.79529674     1.34912805    -0.01230774
      5      H     0.80221361    -0.61376716     0.89638076
      6      N     0.67811472    -0.82233151    -1.14662688
      7      H     0.38053010    -1.79045336    -1.18519113
      8      H     0.48252078    -0.33581780    -2.01813671
      9      N     0.50716654     2.04044717     1.14043964
     10      H     1.10422423     2.79069367     1.44773392
     11      H    -0.26075336     1.76994454     1.73698774
     12      N    -0.02611055     2.10074143    -1.38291200
     13      O    -0.67907084     3.10579118    -1.14879926
     14      O     0.19394658     1.61784722    -2.50779672

Total System Charge              0.00000

 *** GO1_GOStep26 ***

 Energy gradients wrt nuclear displacements
 ==========================================

     Atom      Cartesian (a.u./angstrom)
                 X         Y         Z
 ----------------------------------------
     1 C     0.008248 -0.012431 -0.015421
     2 H    -0.000566  0.003242  0.008693
     3 Cl   -0.009588 -0.001137  0.000547
     4 C     0.012426 -0.007541 -0.008116
     5 H     0.006286  0.000216  0.000328
     6 N    -0.006456  0.011613  0.021911
     7 H    -0.002897  0.005571 -0.009298
     8 H     0.001720 -0.009686  0.002965
     9 N    -0.013124  0.009167 -0.003775
    10 H     0.000564 -0.004693  0.002131
    11 H     0.009132  0.000956  0.004755
    12 N    -0.009523  0.002817 -0.009818
    13 O     0.002717 -0.002153 -0.001636
    14 O     0.001061  0.004058  0.006735
 ----------------------------------------

 dE(predicted):    -0.14321E-02, dE(actual):    -0.20470E-02, Trust radius:    0.933230, all in a.u.
 
----------------------------------------------------------------------
Geometry Convergence after Step  26       (Hartree/Angstrom,Angstrom)
----------------------------------------------------------------------
current energy                               -2.75054292 Hartree
energy change                      -0.00204699     0.00014000    F
constrained gradient max            0.02195359     0.00010000    F
constrained gradient rms            0.00774923     0.00006667    F
gradient max                        0.02195359
gradient rms                        0.00774923
cart. step max                      0.10368897     0.01000000    F
cart. step rms                      0.03749282     0.00666667    F
 

--------
Geometry
--------
Formula: C2H6ClN3O2
Atoms
  Index Symbol   x (angstrom)   y (angstrom)   z (angstrom)
      1      C     0.39459613    -0.11863511    -0.00519055
      2      H     1.80088977     1.44890403    -0.39279374
      3     Cl    -1.53912873    -0.18776348     0.54698166
      4      C     0.77631095     1.35259232    -0.01459115
      5      H     0.78207546    -0.58597664     0.89242754
      6      N     0.66536407    -0.83174518    -1.16970793
      7      H     0.48421907    -1.83084148    -1.12490937
      8      H     0.42811740    -0.34539917    -2.03356003
      9      N     0.50848270     2.02132239     1.14207546
     10      H     1.10717248     2.76443084     1.46376813
     11      H    -0.32982043     1.80131474     1.65877148
     12      N     0.00023131     2.13414023    -1.35075420
     13      O    -0.62137989     3.15784013    -1.11085374
     14      O     0.18156030     1.64436721    -2.49342357

Total System Charge              0.00000

 *** GO1_GOStep27 ***

 Energy gradients wrt nuclear displacements
 ==========================================

     Atom      Cartesian (a.u./angstrom)
                 X         Y         Z
 ----------------------------------------
     1 C     0.011181  0.014184  0.018370
     2 H    -0.000330 -0.002785 -0.008849
     3 Cl    0.003096 -0.003026  0.001191
     4 C    -0.003179 -0.001093  0.019371
     5 H    -0.006650  0.005008 -0.002147
     6 N    -0.007386 -0.011767 -0.021595
     7 H     0.002378 -0.004951  0.004701
     8 H     0.002890  0.004582  0.002312
     9 N    -0.016670  0.001684 -0.015324
    10 H     0.003416 -0.005943  0.002087
    11 H     0.006766 -0.001732 -0.000793
    12 N     0.001821  0.011989  0.017717
    13 O     0.001018 -0.003092 -0.002501
    14 O     0.001648 -0.003057 -0.014540
 ----------------------------------------

 dE(predicted):    -0.24048E-02, dE(actual):    -0.11165E-02, Trust radius:    0.933230, all in a.u.
 Residual max backtransformation error   0.1391E-01
 
----------------------------------------------------------------------
Geometry Convergence after Step  27       (Hartree/Angstrom,Angstrom)
----------------------------------------------------------------------
current energy                               -2.75165940 Hartree
energy change                      -0.00111648     0.00014000    F
constrained gradient max            0.02155861     0.00010000    F
constrained gradient rms            0.00885631     0.00006667    F
gradient max                        0.02155861
gradient rms                        0.00885631
cart. step max                      0.09781987     0.01000000    F
cart. step rms                      0.03505412     0.00666667    F
 

--------
Geometry
--------
Formula: C2H6ClN3O2
Atoms
  Index Symbol   x (angstrom)   y (angstrom)   z (angstrom)
      1      C     0.42824593    -0.13347887    -0.01088410
      2      H     1.82140834     1.45432300    -0.37983049
      3     Cl    -1.53553230    -0.19098014     0.48142012
      4      C     0.80366749     1.33552383     0.00779962
      5      H     0.77226482    -0.61509158     0.89898176
      6      N     0.76318393    -0.83085079    -1.16669576
      7      H     0.39643273    -1.78388603    -1.15444933
      8      H     0.42153748    -0.34478861    -2.00084626
      9      N     0.54965690     1.98736949     1.17135079
     10      H     1.06137045     2.81631118     1.43207553
     11      H    -0.33900100     1.84615206     1.63389105
     12      N    -0.01428084     2.11665793    -1.33761190
     13      O    -0.59748955     3.16246141    -1.09148864
     14      O     0.10722621     1.60482795    -2.47547240

Total System Charge              0.00000

 *** GO1_GOStep28 ***

 Energy gradients wrt nuclear displacements
 ==========================================

     Atom      Cartesian (a.u./angstrom)
                 X         Y         Z
 ----------------------------------------
     1 C     0.011040  0.003772 -0.007759
     2 H    -0.000577 -0.002346 -0.007067
     3 Cl   -0.003617 -0.001314  0.005518
     4 C    -0.004221 -0.000668  0.028464
     5 H    -0.005959  0.003144 -0.001492
     6 N     0.020971  0.001741  0.000581
     7 H    -0.009025  0.001327 -0.002349
     8 H    -0.007335 -0.002841  0.004066
     9 N    -0.008772 -0.002788 -0.028311
    10 H     0.000175 -0.005046  0.007385
    11 H     0.005825  0.001570  0.003216
    12 N    -0.001093  0.010850  0.013176
    13 O     0.001205 -0.003550 -0.003814
    14 O     0.001383 -0.003851 -0.011615
 ----------------------------------------

 dE(predicted):    -0.15890E-02, dE(actual):    -0.11493E-02, Trust radius:    0.933230, all in a.u.
 
----------------------------------------------------------------------
Geometry Convergence after Step  28       (Hartree/Angstrom,Angstrom)
----------------------------------------------------------------------
current energy                               -2.75280872 Hartree
energy change                      -0.00114933     0.00014000    F
constrained gradient max            0.02843653     0.00010000    F
constrained gradient rms            0.00882285     0.00006667    F
gradient max                        0.02843653
gradient rms                        0.00882285
cart. step max                      0.09160125     0.01000000    F
cart. step rms                      0.02998911     0.00666667    F
 

--------
Geometry
--------
Formula: C2H6ClN3O2
Atoms
  Index Symbol   x (angstrom)   y (angstrom)   z (angstrom)
      1      C     0.39198862    -0.12651229    -0.01764375
      2      H     1.82761564     1.44052246    -0.36212804
      3     Cl    -1.57857295    -0.13629014     0.45462355
      4      C     0.80170547     1.34148195     0.00679773
      5      H     0.73316718    -0.63008656     0.88681172
      6      N     0.72416540    -0.81496279    -1.17054643
      7      H     0.48803398    -1.80669495    -1.16430658
[...]
                                    3.42%     2 P:x             4.589  0.00     1 C
                                   -2.90%     2 P:z             7.649  0.00    11 N
                                   -2.82%     2 P:z             7.649  0.00    10 N
                                   -2.46%     2 P:x             7.649  0.00    11 N
                                   -2.33%     1 P:z            -5.239  0.67     2 C
                                    1.91%     1 P:x            -5.239  0.67     1 C
                                    1.83%     2 S             -13.620  2.00     1 C
                                    1.63%     2 S             -18.450  2.00    12 N
                                   -1.26%     3 S              10.158  0.00     1 C
                                   -1.11%     2 P:y             4.589  0.00     2 C
       0.961  0.00    43 A         16.68%     2 S               2.394  0.00     4 H
                                   15.31%     1 S              -6.532  1.00     7 H
                                   12.22%     1 P:z            -5.239  0.67     2 C
                                  -10.23%     2 P:z             4.589  0.00     1 C
                                    9.09%     1 S              -6.532  1.00     4 H
                                    8.07%     2 S             -18.450  2.00    12 N
                                    7.78%     1 P:x            -5.239  0.67     2 C
                                    7.35%     1 S              -6.532  1.00     6 H
                                    7.20%     2 S               2.394  0.00     7 H
                                    7.13%     1 S              -6.532  1.00     8 H
                                    6.51%     2 S             -13.620  2.00     2 C
                                   -5.98%     2 P:y             7.649  0.00    11 N
                                    3.83%     1 P:x            -5.239  0.67     1 C
                                   -3.23%     3 S              14.073  0.00    12 N
                                    3.17%     1 P:y            -5.239  0.67     2 C
                                    3.05%     1 P:y            -7.062  1.00    11 N
                                    2.75%     1 P:z            -7.062  1.00    11 N
                                    2.73%     1 P:y            -5.239  0.67     1 C
                                   -2.46%     2 P:y             4.589  0.00     1 C
                                   -2.00%     2 P:x             4.589  0.00     1 C
                                    1.95%     1 P:z            -9.020  1.33    14 O
                                    1.95%     1 P:z            -7.062  1.00    12 N
                                   -1.93%     3 S              10.158  0.00     2 C
                                   -1.70%     4 S               5.292  0.00     9 Cl
                                    1.60%     3 S              40.869  0.00     7 H
                                   -1.42%     2 P:z             7.649  0.00    10 N
                                    1.27%     1 P:y            -9.020  1.33    13 O
                                    1.20%     2 P:x            -8.439  1.67     9 Cl
                                   -1.14%     1 P:z            -5.239  0.67     1 C
                                    1.14%     2 S               2.394  0.00     8 H
                                    1.01%     1 P:x            -7.062  1.00    12 N
       1.427  0.00    44 A         29.70%     1 S              -6.532  1.00     6 H
                                   21.60%     1 S              -6.532  1.00     5 H
                                   18.79%     2 S               2.394  0.00     6 H
                                  -11.42%     2 P:y             7.649  0.00    10 N
                                   10.72%     2 S               2.394  0.00     8 H
                                   10.29%     1 S              -6.532  1.00     8 H
                                    9.41%     1 S              -6.532  1.00     7 H
                                    4.00%     1 P:y            -7.062  1.00    10 N
                                    3.95%     2 S               2.394  0.00     3 H
                                    3.95%     1 P:x            -5.239  0.67     2 C
                                   -3.70%     2 P:x             7.649  0.00    11 N
                                   -3.46%     2 P:y             7.649  0.00    11 N
                                   -3.21%     2 P:z             7.649  0.00    10 N
                                   -2.79%     2 S               2.394  0.00     5 H
                                   -2.57%     2 S               2.394  0.00     7 H
                                    2.55%     3 S              40.869  0.00     5 H
                                    2.13%     1 P:x            -7.062  1.00    11 N
                                   -1.68%     2 P:y             4.589  0.00     1 C
                                    1.64%     1 P:z            -7.062  1.00    12 N
                                    1.54%     2 S               2.394  0.00     4 H
                                    1.38%     1 S              -6.532  1.00     3 H
                                    1.34%     3 S              40.869  0.00     7 H
                                    1.14%     1 P:z            -7.062  1.00    10 N
                                   -1.07%     2 P:y             9.437  0.00    14 O
       2.055  0.00    45 A         17.48%     1 S              -6.532  1.00     8 H
                                   12.23%     1 S              -6.532  1.00     4 H
                                   11.62%     1 S              -6.532  1.00     3 H
                                   10.98%     1 S              -6.532  1.00     6 H
                                   10.41%     1 S              -6.532  1.00     7 H
                                    9.03%     2 S               2.394  0.00     4 H
                                    6.56%     1 S              -6.532  1.00     5 H
                                    5.92%     1 P:x            -5.239  0.67     2 C
                                    5.67%     2 S               2.394  0.00     3 H
                                    5.36%     1 P:x            -7.062  1.00    11 N
                                   -5.11%     2 S               2.394  0.00     5 H
                                   -4.71%     2 S               2.394  0.00     7 H
                                   -4.38%     2 P:x             7.649  0.00    11 N
                                   -4.28%     2 P:x             4.589  0.00     2 C
                                    4.09%     1 P:x            -5.239  0.67     1 C
                                    3.62%     1 P:y            -5.239  0.67     2 C
                                    3.58%     2 S               2.394  0.00     6 H
                                   -2.82%     2 P:y             7.649  0.00    10 N
                                    2.75%     2 S             -18.450  2.00    12 N
                                    2.39%     1 P:y            -7.062  1.00    10 N
                                    1.99%     3 S              40.869  0.00     3 H
                                   -1.96%     2 P:y             4.589  0.00     1 C
                                    1.96%     3 S              40.869  0.00     4 H
                                   -1.88%     2 P:z             4.589  0.00     1 C
                                    1.74%     1 P:z            -5.239  0.67     1 C
                                    1.59%     1 P:z            -9.020  1.33    14 O
                                    1.56%     3 S              40.869  0.00     8 H
                                    1.48%     2 S               2.394  0.00     8 H
                                   -1.39%     2 P:y             7.649  0.00    11 N
                                   -1.06%     3 S              14.073  0.00    12 N

 Energy gradients wrt nuclear displacements
 ==========================================

     Atom      Cartesian (a.u./angstrom)
                 X         Y         Z
 ----------------------------------------
     1 C    -0.000013 -0.000085 -0.000008
     2 H    -0.000016  0.000025  0.000021
     3 Cl    0.000003 -0.000020 -0.000084
     4 C     0.000018 -0.000005  0.000042
     5 H    -0.000034 -0.000015 -0.000031
     6 N     0.000010  0.000028 -0.000011
     7 H     0.000045  0.000024 -0.000055
     8 H     0.000029  0.000041 -0.000009
     9 N    -0.000008  0.000064  0.000084
    10 H    -0.000035 -0.000054  0.000037
    11 H    -0.000051 -0.000098 -0.000029
    12 N     0.000016  0.000023  0.000001
    13 O    -0.000006  0.000021  0.000034
    14 O     0.000042  0.000050  0.000009
 ----------------------------------------



 =======================================================================
 Electrostatic potential at the Nuclei due to electrons and other nuclei
 =======================================================================
  
         Atom                  Potential
         ----                  ---------
     1)   C                  14.67304047
     2)   H                   1.05505154
     3)   Cl                 64.88615201
     4)   C                  14.67579573
     5)   H                   1.06528206
     6)   N                  18.38216172
     7)   H                   1.00884656
     8)   H                   1.01411874
     9)   N                  18.38796780
    10)   H                   1.01481438
    11)   H                   1.01859943
    12)   N                  18.20116451
    13)   O                  22.35415662
    14)   O                  22.35798177
 Mulliken charges used for AMS results%charges...


    =====================
     CALCULATION RESULTS
    =====================

Energy (hartree)            -2.75765788

Gradients (hartree/bohr)
  Index   Atom            d/dx            d/dy            d/dz
      1      C   -0.0000069141   -0.0000449721   -0.0000043901
      2      H   -0.0000086170    0.0000130924    0.0000113162
      3     Cl    0.0000017624   -0.0000107208   -0.0000445963
      4      C    0.0000093214   -0.0000025250    0.0000221006
      5      H   -0.0000178035   -0.0000077450   -0.0000164665
      6      N    0.0000054779    0.0000148830   -0.0000057369
      7      H    0.0000238513    0.0000128109   -0.0000288975
      8      H    0.0000154684    0.0000216709   -0.0000050172
      9      N   -0.0000041848    0.0000339308    0.0000442400
     10      H   -0.0000183578   -0.0000286009    0.0000196650
     11      H   -0.0000269350   -0.0000519609   -0.0000154671
     12      N    0.0000082615    0.0000122912    0.0000004755
     13      O   -0.0000033319    0.0000113719    0.0000178837
     14      O    0.0000220012    0.0000264736    0.0000048908


--------------
Atomic charges
--------------
  Index   Atom    Charge
      1      C    0.3830
      2      H   -0.1198
      3     Cl   -0.2744
      4      C    0.4036
      5      H   -0.1018
      6      N    0.0446
      7      H   -0.0467
      8      H    0.0084
      9      N   -0.0014
     10      H   -0.0380
     11      H   -0.0159
     12      N    0.5313
     13      O   -0.3627
     14      O   -0.4102


Dipole moment vector    (Debye):     2.91270272   -1.33971490    1.23824919
              magnitude (Debye):     3.43684946


-----------------------
Molecular orbitals info
-----------------------
n orbitals:              282
n spin:                    1

Note: only printing virtual orbitals with
      energy smaller than HOMO + 100. eV

HOMO (eV):              -6.5231
LUMO (eV):              -3.2340
HOMO-LUMO gap (eV):      3.2890

   Index   Energy (eV)    Occupation
     182       92.6395         0.000       
     181       91.6360         0.000       
     180       91.1611         0.000       
     179       89.9148         0.000       
     178       89.7016         0.000       
     177       88.9639         0.000       
     176       87.2850         0.000       
     175       86.5822         0.000       
     174       86.1380         0.000       
     173       84.1351         0.000       
     172       82.3375         0.000       
     171       82.0972         0.000       
     170       81.8825         0.000       
     169       80.8496         0.000       
     168       80.2709         0.000       
     167       79.1537         0.000       
     166       79.0004         0.000       
     165       77.7095         0.000       
     164       77.0982         0.000       
     163       76.6529         0.000       
     162       74.5445         0.000       
     161       73.0879         0.000       
     160       72.0419         0.000       
     159       71.8584         0.000       
     158       70.4318         0.000       
     157       70.0646         0.000       
     156       68.3776         0.000       
     155       67.7602         0.000       
     154       65.9312         0.000       
     153       65.0875         0.000       
     152       64.7700         0.000       
     151       64.2472         0.000       
     150       62.8031         0.000       
     149       62.1427         0.000       
     148       61.6813         0.000       
     147       60.9223         0.000       
     146       60.4122         0.000       
     145       59.7865         0.000       
     144       59.0075         0.000       
     143       58.0614         0.000       
     142       57.1676         0.000       
     141       56.5944         0.000       
     140       55.5551         0.000       
     139       55.3717         0.000       
     138       54.6604         0.000       
     137       53.0054         0.000       
     136       51.7110         0.000       
     135       51.5636         0.000       
     134       50.4923         0.000       
     133       49.7661         0.000       
     132       49.1238         0.000       
     131       48.1335         0.000       
     130       47.0397         0.000       
     129       45.4414         0.000       
     128       45.1996         0.000       
     127       43.8891         0.000       
     126       43.6068         0.000       
     125       43.1517         0.000       
     124       41.9219         0.000       
     123       41.1737         0.000       
     122       40.7914         0.000       
     121       40.4420         0.000       
     120       39.3706         0.000       
     119       38.7626         0.000       
     118       38.0982         0.000       
     117       37.8121         0.000       
     116       37.3364         0.000       
     115       37.0386         0.000       
     114       36.2610         0.000       
     113       35.8258         0.000       
     112       35.3186         0.000       
     111       35.1166         0.000       
     110       34.3142         0.000       
     109       34.0971         0.000       
     108       33.7165         0.000       
     107       33.5051         0.000       
     106       33.0428         0.000       
     105       32.6146         0.000       
     104       32.0730         0.000       
     103       31.6146         0.000       
     102       30.8092         0.000       
     101       30.4993         0.000       
     100       29.8854         0.000       
      99       28.8767         0.000       
      98       28.0970         0.000       
      97       27.8157         0.000       
      96       27.2777         0.000       
      95       26.9473         0.000       
      94       25.6543         0.000       
      93       25.1909         0.000       
      92       24.6523         0.000       
      91       23.9969         0.000       
      90       22.8013         0.000       
      89       21.7413         0.000       
      88       21.2770         0.000       
      87       20.5520         0.000       
      86       20.1954         0.000       
      85       19.2957         0.000       
      84       18.5269         0.000       
      83       18.0433         0.000       
      82       16.5921         0.000       
      81       16.3405         0.000       
      80       15.0651         0.000       
      79       14.8989         0.000       
      78       14.2897         0.000       
      77       13.7879         0.000       
      76       13.3101         0.000       
      75       12.9635         0.000       
      74       12.6573         0.000       
      73       12.4510         0.000       
      72       11.9177         0.000       
      71       11.9043         0.000       
      70       11.1508         0.000       
      69       10.7820         0.000       
      68       10.6526         0.000       
      67       10.3111         0.000       
      66        9.8792         0.000       
      65        9.3863         0.000       
      64        8.9032         0.000       
      63        8.7712         0.000       
      62        8.4839         0.000       
      61        8.1896         0.000       
      60        7.8335         0.000       
      59        7.4687         0.000       
      58        7.4241         0.000       
      57        6.7371         0.000       
      56        6.6420         0.000       
      55        6.2536         0.000       
      54        6.1451         0.000       
      53        5.5690         0.000       
      52        5.4648         0.000       
      51        5.1137         0.000       
      50        4.9020         0.000       
      49        4.4357         0.000       
      48        3.6947         0.000       
      47        2.9082         0.000       
      46        2.7760         0.000       
      45        2.0547         0.000       
      44        1.4270         0.000       
      43        0.9610         0.000       
      42        0.4625         0.000       
      41        0.1854         0.000       
      40       -0.4635         0.000       
      39       -0.5474         0.000       
      38       -1.7049         0.000       
      37       -3.2340         0.000 < LUMO
      36       -6.5231         2.000 < HOMO
      35       -6.7116         2.000       
      34       -7.0648         2.000       
      33       -7.2446         2.000       
      32       -7.3580         2.000       
      31       -8.0147         2.000       
      30       -8.1503         2.000       
      29       -9.8587         2.000       
      28      -10.5992         2.000       
      27      -11.5997         2.000       
      26      -11.7393         2.000       
      25      -12.7313         2.000       
      24      -12.7714         2.000       
      23      -13.2217         2.000       
      22      -13.8358         2.000       
      21      -14.1440         2.000       
      20      -15.1574         2.000       
      19      -16.8130         2.000       
      18      -18.7737         2.000       
      17      -20.0172         2.000       
      16      -23.1438         2.000       
      15      -23.9531         2.000       
      14      -26.5238         2.000       
      13      -30.6825         2.000       
      12     -189.6463         2.000       
      11     -189.6554         2.000       
      10     -189.8887         2.000       
       9     -250.6767         2.000       
       8     -273.0351         2.000       
       7     -273.1112         2.000       
       6     -382.2727         2.000       
       5     -382.4237         2.000       
       4     -387.5278         2.000       
       3     -512.7693         2.000       
       2     -512.8830         2.000       
       1    -2749.9341         2.000       

AMS application finished. Exiting.
NORMAL TERMINATION
     Total cpu time:    2110.87
  Total system time:       9.62
 Total elapsed time:    2126.73
NORMAL TERMINATION
