
 *******************************************************************************
 *                                                                             *
 *  --------------------------------                                           *
 *   Amsterdam Modeling Suite (AMS)              2026.103                      *
 *  --------------------------------                                           *
 *                                               r260501 2026-05-01 873454b5   *
 *                                                                             *
 *                                                                             *
 *                              =================                              *
 *                              |               |                              *
 *                              |     A M S     |                              *
 *                              |               |                              *
 *                              =================                              *
 *                                                                             *
 *                                                                             *
 *   Online information and documentation:  https://www.scm.com/support/       *
 *   E-mail:  support@scm.com   info@scm.com                                   *
 *                                                                             *
 *   Scientific publications using AMS results must be properly referenced     *
 *   See the User Manuals (or the web site) for recommended citations          *
 *   The terms and conditions of the End User License Agreement apply to       *
 *   the use of AMS, https://www.scm.com/license-terms/                        *
 *                                                                             *
 **********************  x86_64_linux_intel / intelmpi  ************************
 
 Licensed to: Jong-June Jeon / University of Seoul 2026-06-02 13:44:15
 SCM User ID: u30731
  
 AMS 2026.103  RunTime: Jun04-2026 08:30:49  ShM Nodes: 1  Procs: 1

 AMS jobname: c5_fragB_opt
 AMS jobid  : 1988760766

 Start   directory: /gpfs/home1/yeseo1ee/projects/eda-asm-prediction/ADF_800/adf_outputs/batch_003/qmrxn20_e2_A_D_B_E_A_A/
 Results directory: /gpfs/home1/yeseo1ee/projects/eda-asm-prediction/ADF_800/adf_outputs/batch_003/qmrxn20_e2_A_D_B_E_A_A/c5_fragB_opt.results/
 Scratch directory: /tmp/amstmp_c5_fragB_opt_kid0.1988760766/

 RNG seed: 1829581740 -51606655 -1434863569 -1158915760 2004984784 758681691 -1861007418 484879710



                      ************************************************************************
                      *  ADF 2026.103  RunTime: Jun04-2026 08:30:50  ShM Nodes: 1  Procs: 1  *
                      ************************************************************************
  

       ***************************
       *  GEOMETRY OPTIMIZATION  *
       ***************************

Optimization Method                    Quasi Newton
Optimization Coordinates               Delocalized Coordinates
Optimize lattice                       F
 
 ------------------------------------------------------
 Convergence criteria (Hartree,Angstrom)
 ------------------------------------------------------
 Maximum gradient               0.000100000000
 Maximum rms gradient           0.000066666667
 Maximum step allowed           0.010000000000
 Maximum rms step allowed       0.006666666667
 Maximum energy change allowe   0.000150000000
 Maximum stress energy allowe   0.000500000000
 
Initial model Hessian                  Automatic Hessian
 
------------------------------------
Quasi-Newton Optimizer Parameters
------------------------------------
Hessian Update Method                  BFGS
Maximum number of steps                  200
First GDIIS cycle                          0
Maximum GDIIS vectors                      0
Trust radius (bohr)                        0.200000
Trust radius varies                        T
Constraints converged at all steps         T
Use projector                              T
 
 Rigid motions settings for: old optimizer
 Atomic rotations (x,y,z):     T T T
 Atomic translations (x,y,z):  T T T
 Tolerance:                  1.000000000000000E-006

--------
Geometry
--------
Formula: C3H7FN2O2
Atoms
  Index Symbol   x (angstrom)   y (angstrom)   z (angstrom)
      1      C    -0.13894976     0.06217464    -0.32456782
      2      C    -0.13701997     0.06886662     1.17955465
      3      F     1.16851980    -0.22237058    -0.82113358
      4      H    -1.31738874    -0.08173196     1.44918261
      5      C    -0.65814376     1.25863045    -1.08162962
      6      H    -0.69863083     1.01264406    -2.14712516
      7      H    -1.65901645     1.50753286    -0.72699347
      8      H    -0.01567360     2.12432938    -0.93377776
      9      N     0.36571875     1.31414058     1.77745178
     10      O     1.24679513     1.28890887     2.64236212
     11      O    -0.19531998     2.36592037     1.41981378
     12      N     0.45491786    -1.08968573     1.75691661
     13      H     1.13314369    -1.51172013     1.13876560
     14      H    -0.31273303    -1.73575082     1.94241110
     15      H    -0.73980172    -0.82082883    -0.57436602

Total System Charge              0.00000


----------------
ADF Engine Input
----------------
 
   Basis
     Type TZ2P
     Core None
   End
   XC
     GGA BLYP
     Dispersion GRIMME3 BJDAMP
   End
   Symmetry NOSYM
   NumericalQuality Normal
   Unrestricted No
   SCF
     Iterations 200
     Converge 1.0e-6
   End
   Save TAPE21
 

 Title: *** (NO TITLE) ***

 Using automatic Hessian for delocalized coordinates.
 *** GO1_GOStep1 ***

 Energy gradients wrt nuclear displacements
 ==========================================

     Atom      Cartesian (a.u./angstrom)
                 X         Y         Z
 ----------------------------------------
     1 C     0.010049  0.002374  0.045710
     2 C     0.120922  0.071514 -0.012932
     3 F    -0.015455  0.003616 -0.007572
     4 H    -0.088555 -0.047492  0.014826
     5 C     0.004191 -0.003716  0.006713
     6 H     0.001102  0.000675  0.001327
     7 H     0.005664 -0.004043  0.001227
     8 H    -0.001189 -0.004635  0.000754
     9 N    -0.012882 -0.072866 -0.052214
    10 O    -0.012108  0.017248  0.004553
    11 O     0.012589 -0.004490  0.011009
    12 N     0.009234  0.019474 -0.018120
    13 H    -0.013693  0.007780  0.004444
    14 H    -0.019533  0.011214 -0.004914
    15 H    -0.000337  0.003346  0.005187
 ----------------------------------------
 
----------------------------------------------------------------------
Geometry Convergence after Step   1       (Hartree/Angstrom,Angstrom)
----------------------------------------------------------------------
current energy                               -2.95287488 Hartree
energy change                      -2.95287488     0.00015000    F
constrained gradient max            0.12090966     0.00010000    F
constrained gradient rms            0.03108266     0.00006667    F
gradient max                        0.12090966
gradient rms                        0.03108266
cart. step max                      0.06679022     0.01000000    F
cart. step rms                      0.02782330     0.00666667    F
 

--------
Geometry
--------
Formula: C3H7FN2O2
Atoms
  Index Symbol   x (angstrom)   y (angstrom)   z (angstrom)
      1      C    -0.16175001     0.06858210    -0.33901250
      2      C    -0.15891099     0.06870003     1.18886986
      3      F     1.16374311    -0.23398512    -0.79055369
      4      H    -1.29438161    -0.02705688     1.46563720
      5      C    -0.66872288     1.26368560    -1.12198750
      6      H    -0.69147593     1.00281200    -2.18513393
      7      H    -1.67813548     1.52553604    -0.79378369
      8      H    -0.02796441     2.13361663    -0.97705771
      9      N     0.36158180     1.32587514     1.82263586
     10      O     1.26458048     1.24972234     2.66498611
     11      O    -0.19963351     2.38814478     1.47910389
     12      N     0.45965301    -1.10435997     1.76138965
     13      H     1.15040808    -1.51678461     1.13979182
     14      H    -0.25815915    -1.79111549     1.98107158
     15      H    -0.76441510    -0.81231279    -0.59909215

Total System Charge              0.00000

 *** GO1_GOStep2 ***

 Energy gradients wrt nuclear displacements
 ==========================================

     Atom      Cartesian (a.u./angstrom)
                 X         Y         Z
 ----------------------------------------
     1 C    -0.000096  0.002112  0.023199
     2 C     0.089998  0.068254 -0.011181
     3 F    -0.006950 -0.000359 -0.001791
     4 H    -0.065017 -0.030056  0.009688
     5 C    -0.001061 -0.002967 -0.001673
     6 H     0.000568  0.000647  0.000442
     7 H     0.002984 -0.001077  0.000223
     8 H    -0.001141 -0.002993 -0.000387
     9 N    -0.015028 -0.047633 -0.031156
    10 O     0.001829  0.001604  0.011092
    11 O     0.001693  0.007498  0.001954
    12 N     0.006092  0.000194  0.000911
    13 H    -0.005713 -0.000936  0.000251
    14 H    -0.006600  0.003424 -0.002911
    15 H    -0.001559  0.002287  0.001340
 ----------------------------------------

 dE(predicted):    -0.98032E-02, dE(actual):    -0.11129E-01, Trust radius:    0.400000, all in a.u.
 
----------------------------------------------------------------------
Geometry Convergence after Step   2       (Hartree/Angstrom,Angstrom)
----------------------------------------------------------------------
current energy                               -2.96400342 Hartree
energy change                      -0.01112854     0.00015000    F
constrained gradient max            0.08998671     0.00010000    F
constrained gradient rms            0.02237950     0.00006667    F
gradient max                        0.08998671
gradient rms                        0.02237950
cart. step max                      0.11982163     0.01000000    F
cart. step rms                      0.04571919     0.00666667    F
 

--------
Geometry
--------
Formula: C3H7FN2O2
Atoms
  Index Symbol   x (angstrom)   y (angstrom)   z (angstrom)
      1      C    -0.18276708     0.03608151    -0.36002910
      2      C    -0.21790456     0.01657083     1.19540376
      3      F     1.17037705    -0.25283345    -0.75846814
      4      H    -1.25895845     0.02760652     1.48619478
      5      C    -0.65387462     1.28739342    -1.08982806
      6      H    -0.64622411     1.08646678    -2.16684371
      7      H    -1.67512496     1.54522936    -0.78289118
      8      H    -0.01118897     2.14597779    -0.87383416
      9      N     0.33320563     1.34541439     1.78361852
     10      O     1.29857007     1.31251238     2.54516448
     11      O    -0.26130006     2.36890824     1.39365068
     12      N     0.44248045    -1.14093469     1.78082294
     13      H     1.14957059    -1.53668176     1.15774512
     14      H    -0.20839395    -1.86844968     2.05880371
     15      H    -0.78204963    -0.83220187    -0.67264482

Total System Charge              0.00000

 *** GO1_GOStep3 ***

 Energy gradients wrt nuclear displacements
 ==========================================

     Atom      Cartesian (a.u./angstrom)
                 X         Y         Z
 ----------------------------------------
     1 C    -0.005413 -0.006060 -0.001492
     2 C    -0.008722  0.045532  0.007275
     3 F     0.005275 -0.001051 -0.001067
     4 H     0.015774 -0.005148 -0.006105
     5 C    -0.001845  0.002649  0.004200
     6 H     0.000306  0.000292  0.000673
     7 H    -0.001537  0.001448  0.000853
     8 H     0.001518  0.003252  0.002510
     9 N    -0.012712 -0.012419 -0.001554
    10 O     0.000479 -0.001774  0.001302
    11 O     0.000890  0.000182 -0.014264
    12 N     0.003967 -0.018715  0.015098
    13 H     0.001138 -0.006282 -0.004188
    14 H     0.004285 -0.001981 -0.002453
    15 H    -0.003401  0.000074 -0.000788
 ----------------------------------------

 dE(predicted):    -0.84090E-02, dE(actual):    -0.71094E-02, Trust radius:    0.800000, all in a.u.
 
----------------------------------------------------------------------
Geometry Convergence after Step   3       (Hartree/Angstrom,Angstrom)
----------------------------------------------------------------------
current energy                               -2.97111285 Hartree
energy change                      -0.00710943     0.00015000    F
constrained gradient max            0.04554692     0.00010000    F
constrained gradient rms            0.00929284     0.00006667    F
gradient max                        0.04554692
gradient rms                        0.00929284
cart. step max                      0.20896833     0.01000000    F
cart. step rms                      0.04001954     0.00666667    F
 

--------
Geometry
--------
Formula: C3H7FN2O2
Atoms
  Index Symbol   x (angstrom)   y (angstrom)   z (angstrom)
      1      C    -0.18502622     0.04115792    -0.36648308
      2      C    -0.23355169     0.02730601     1.19497701
      3      F     1.17429438    -0.24555934    -0.74432518
      4      H    -1.25366722     0.07496043     1.50461249
      5      C    -0.65468227     1.27196598    -1.13195212
      6      H    -0.63570742     1.04261887    -2.20344374
      7      H    -1.68135443     1.53013339    -0.84320950
      8      H    -0.01963547     2.14002140    -0.93348996
      9      N     0.36637872     1.34746534     1.79959341
     10      O     1.35852300     1.27728562     2.51916507
     11      O    -0.32004865     2.36578380     1.60261901
     12      N     0.42811592    -1.12592594     1.76962707
     13      H     1.13855805    -1.51192581     1.14552257
     14      H    -0.21528708    -1.85636234     2.05790261
     15      H    -0.77049223    -0.83786553    -0.67425085

Total System Charge              0.00000

 *** GO1_GOStep4 ***

 Energy gradients wrt nuclear displacements
 ==========================================

     Atom      Cartesian (a.u./angstrom)
                 X         Y         Z
 ----------------------------------------
     1 C    -0.003478 -0.003169 -0.005574
     2 C    -0.037915  0.035906  0.021978
     3 F     0.004567 -0.001638 -0.000734
     4 H     0.031269 -0.003745 -0.009185
     5 C    -0.000756  0.001525 -0.003968
     6 H    -0.000200 -0.001102 -0.000399
     7 H    -0.001189  0.001255  0.000105
     8 H     0.000041  0.001141 -0.000468
     9 N     0.010067 -0.003188 -0.025473
    10 O    -0.010047 -0.002581  0.008574
    11 O    -0.001349 -0.005157  0.008833
    12 N     0.006076 -0.012924  0.013346
    13 H     0.001229 -0.004272 -0.004333
    14 H     0.003683 -0.002062 -0.002187
    15 H    -0.001998  0.000012 -0.000516
 ----------------------------------------

 dE(predicted):    -0.36939E-02, dE(actual):    -0.10834E-02, Trust radius:    0.800000, all in a.u.
 
----------------------------------------------------------------------
Geometry Convergence after Step   4       (Hartree/Angstrom,Angstrom)
----------------------------------------------------------------------
current energy                               -2.97219630 Hartree
energy change                      -0.00108345     0.00015000    F
constrained gradient max            0.03796215     0.00010000    F
constrained gradient rms            0.01143374     0.00006667    F
gradient max                        0.03796215
gradient rms                        0.01143374
cart. step max                      0.21073816     0.01000000    F
cart. step rms                      0.05107180     0.00666667    F
 

--------
Geometry
--------
Formula: C3H7FN2O2
Atoms
  Index Symbol   x (angstrom)   y (angstrom)   z (angstrom)
      1      C    -0.17059628     0.05469508    -0.35149277
      2      C    -0.26813994     0.01934954     1.20260359
      3      F     1.20468871    -0.17983960    -0.68978159
      4      H    -1.30933438     0.08242862     1.51458167
      5      C    -0.65624593     1.25989249    -1.13990714
      6      H    -0.59511790     1.02653478    -2.20886052
      7      H    -1.69966065     1.47812431    -0.88543749
      8      H    -0.05942198     2.14936341    -0.92794348
      9      N     0.35618868     1.31928760     1.85345520
     10      O     1.49496658     1.27478511     2.30842691
     11      O    -0.32126894     2.35304535     1.72509317
     12      N     0.37941866    -1.11916147     1.76915162
     13      H     1.12105391    -1.47847193     1.17352444
     14      H    -0.27517853    -1.85124687     2.03255526
     15      H    -0.70493462    -0.84772664    -0.67910405

Total System Charge              0.00000

 *** GO1_GOStep5 ***

 Energy gradients wrt nuclear displacements
 ==========================================

     Atom      Cartesian (a.u./angstrom)
                 X         Y         Z
 ----------------------------------------
     1 C    -0.005109 -0.004395 -0.000403
     2 C    -0.006904  0.012518 -0.005395
     3 F     0.000275 -0.000120 -0.001063
     4 H     0.006447 -0.000473  0.002901
     5 C     0.002205  0.000546 -0.006795
     6 H    -0.000308 -0.001078 -0.000781
     7 H     0.000775 -0.000183  0.000048
     8 H    -0.001518 -0.001496 -0.001848
     9 N    -0.012607 -0.021223  0.030347
    10 O    -0.003874  0.009201 -0.008711
    11 O     0.014783 -0.002195 -0.003960
    12 N     0.009736  0.006265 -0.000332
    13 H    -0.002374  0.001510 -0.002029
    14 H    -0.002995  0.000170 -0.000807
    15 H     0.001467  0.000952 -0.001172
 ----------------------------------------

 dE(predicted):    -0.28682E-02, dE(actual):    -0.13632E-02, Trust radius:    0.800000, all in a.u.
 
----------------------------------------------------------------------
Geometry Convergence after Step   5       (Hartree/Angstrom,Angstrom)
----------------------------------------------------------------------
current energy                               -2.97355951 Hartree
energy change                      -0.00136321     0.00015000    F
constrained gradient max            0.03035527     0.00010000    F
constrained gradient rms            0.00744897     0.00006667    F
gradient max                        0.03035527
gradient rms                        0.00744897
cart. step max                      0.09462494     0.01000000    F
cart. step rms                      0.03183541     0.00666667    F
 

--------
Geometry
--------
Formula: C3H7FN2O2
Atoms
  Index Symbol   x (angstrom)   y (angstrom)   z (angstrom)
      1      C    -0.15912833     0.03781781    -0.36252501
      2      C    -0.25991642    -0.00224647     1.18498096
      3      F     1.21588042    -0.18766354    -0.70146409
      4      H    -1.31898137     0.08366927     1.48083891
      5      C    -0.64815227     1.26987774    -1.10232123
      6      H    -0.58858553     1.08405036    -2.18014540
      7      H    -1.69094306     1.47668240    -0.83656115
      8      H    -0.05058411     2.14932433    -0.85231971
      9      N     0.36260773     1.33350454     1.77133652
     10      O     1.51090821     1.30951152     2.21380198
     11      O    -0.37453597     2.33680916     1.69979459
     12      N     0.36403822    -1.13130976     1.78905084
     13      H     1.12755815    -1.50772786     1.23410827
     14      H    -0.29765465    -1.85311349     2.06193779
     15      H    -0.69609362    -0.85812625    -0.70364845

Total System Charge              0.00000

 *** GO1_GOStep6 ***

 Energy gradients wrt nuclear displacements
 ==========================================

     Atom      Cartesian (a.u./angstrom)
                 X         Y         Z
 ----------------------------------------
     1 C    -0.003762  0.001042 -0.001413
     2 C     0.010517  0.001991 -0.001741
     3 F     0.000084  0.000713 -0.000126
     4 H    -0.010444  0.001188  0.004288
     5 C     0.001409  0.000770 -0.001708
     6 H    -0.000293 -0.000772 -0.000123
     7 H     0.000615 -0.000305  0.000275
     8 H    -0.000677 -0.001261 -0.000552
     9 N    -0.001194 -0.010400 -0.000003
    10 O     0.002983  0.001324  0.002125
    11 O    -0.001587  0.004399 -0.000912
    12 N     0.006439  0.000360  0.000038
    13 H    -0.002216  0.001270 -0.000478
    14 H    -0.002652 -0.000918 -0.000654
    15 H     0.000779  0.000600  0.000983
 ----------------------------------------

 dE(predicted):    -0.18185E-02, dE(actual):    -0.20830E-02, Trust radius:    0.800000, all in a.u.
 
----------------------------------------------------------------------
Geometry Convergence after Step   6       (Hartree/Angstrom,Angstrom)
----------------------------------------------------------------------
current energy                               -2.97564251 Hartree
energy change                      -0.00208300     0.00015000    F
constrained gradient max            0.01053480     0.00010000    F
constrained gradient rms            0.00326201     0.00006667    F
gradient max                        0.01053480
gradient rms                        0.00326201
cart. step max                      0.10686979     0.01000000    F
cart. step rms                      0.02392125     0.00666667    F
 

--------
Geometry
--------
Formula: C3H7FN2O2
Atoms
  Index Symbol   x (angstrom)   y (angstrom)   z (angstrom)
      1      C    -0.15409011     0.02525460    -0.37173773
      2      C    -0.26827969    -0.01628307     1.17447017
      3      F     1.22165161    -0.20309703    -0.70375358
      4      H    -1.31968023     0.07984665     1.45865387
      5      C    -0.63885843     1.27566805    -1.08387220
      6      H    -0.57280378     1.12182815    -2.16615224
      7      H    -1.68365486     1.47709000    -0.81976913
      8      H    -0.04234343     2.14857962    -0.80601395
      9      N     0.35536466     1.33980622     1.74005252
     10      O     1.52847254     1.33539305     2.10693219
     11      O    -0.41075262     2.32093799     1.72902357
     12      N     0.34951017    -1.13274904     1.80117071
     13      H     1.13063637    -1.51480465     1.27366415
     14      H    -0.30429207    -1.85275278     2.09202968
     15      H    -0.69446275    -0.86365799    -0.72783322

Total System Charge              0.00000

 *** GO1_GOStep7 ***

 Energy gradients wrt nuclear displacements
 ==========================================

     Atom      Cartesian (a.u./angstrom)
                 X         Y         Z
 ----------------------------------------
     1 C    -0.002897  0.002214 -0.003263
     2 C     0.000572 -0.001641  0.001670
     3 F     0.001567  0.000124  0.000322
     4 H    -0.000414  0.001257  0.000918
     5 C     0.000137  0.000516  0.000622
     6 H    -0.000332 -0.000461  0.000056
     7 H    -0.000016  0.000154  0.000186
     8 H    -0.000154 -0.000485  0.000267
     9 N     0.003364 -0.000655 -0.001204
    10 O    -0.001214 -0.000503  0.000570
    11 O    -0.001337  0.000486 -0.001087
    12 N     0.001548 -0.000297  0.001764
    13 H    -0.000402  0.000110 -0.000699
    14 H    -0.000750 -0.000770 -0.000817
    15 H     0.000327 -0.000048  0.000695
 ----------------------------------------

 dE(predicted):    -0.33350E-03, dE(actual):    -0.38427E-03, Trust radius:    0.800000, all in a.u.
 
----------------------------------------------------------------------
Geometry Convergence after Step   7       (Hartree/Angstrom,Angstrom)
----------------------------------------------------------------------
current energy                               -2.97602678 Hartree
energy change                      -0.00038427     0.00015000    F
constrained gradient max            0.00325978     0.00010000    F
constrained gradient rms            0.00118347     0.00006667    F
gradient max                        0.00325978
gradient rms                        0.00118347
cart. step max                      0.09460209     0.01000000    F
cart. step rms                      0.02044369     0.00666667    F
 

--------
Geometry
--------
Formula: C3H7FN2O2
Atoms
  Index Symbol   x (angstrom)   y (angstrom)   z (angstrom)
      1      C    -0.15272583     0.01626764    -0.37592253
      2      C    -0.27708766    -0.02380948     1.16773563
      3      F     1.21979033    -0.22262117    -0.70731110
      4      H    -1.32813735     0.07048627     1.44626421
      5      C    -0.62624937     1.27834673    -1.07556209
      6      H    -0.55481548     1.14210581    -2.15967981
      7      H    -1.67154489     1.48213564    -0.81470460
      8      H    -0.02661344     2.14495054    -0.78271144
      9      N     0.34401884     1.34261570     1.72771032
     10      O     1.54020816     1.36088971     2.01233010
     11      O    -0.44293032     2.30420206     1.78554046
     12      N     0.34242387    -1.12933431     1.80502259
     13      H     1.13385078    -1.51266177     1.29411727
     14      H    -0.30320409    -1.84752252     2.11487519
     15      H    -0.70056614    -0.86499107    -0.74083939

Total System Charge              0.00000

 *** GO1_GOStep8 ***

 Energy gradients wrt nuclear displacements
 ==========================================

     Atom      Cartesian (a.u./angstrom)
                 X         Y         Z
 ----------------------------------------
     1 C    -0.001689  0.001801 -0.001830
     2 C    -0.002482 -0.003666  0.001004
     3 F     0.001253  0.000122  0.000041
     4 H     0.001482  0.000807  0.000247
     5 C     0.000027 -0.000049  0.001137
     6 H    -0.000310 -0.000068  0.000054
     7 H    -0.000051  0.000195  0.000181
     8 H    -0.000114 -0.000092  0.000313
     9 N     0.003433  0.001356  0.000787
    10 O    -0.001106 -0.000180 -0.000718
    11 O    -0.000537 -0.000372 -0.001142
    12 N    -0.000582  0.001266  0.001008
    13 H     0.000324 -0.000294 -0.000307
    14 H    -0.000051 -0.000477 -0.000929
    15 H     0.000403 -0.000349  0.000153
 ----------------------------------------

 dE(predicted):    -0.11315E-03, dE(actual):    -0.80206E-04, Trust radius:    0.800000, all in a.u.
 
----------------------------------------------------------------------
Geometry Convergence after Step   8       (Hartree/Angstrom,Angstrom)
----------------------------------------------------------------------
current energy                               -2.97610698 Hartree
energy change                      -0.00008021     0.00015000    T
constrained gradient max            0.00364795     0.00010000    F
constrained gradient rms            0.00113745     0.00006667    F
gradient max                        0.00364795
gradient rms                        0.00113745
cart. step max                      0.03234273     0.01000000    F
cart. step rms                      0.01119171     0.00666667    F
 

--------
Geometry
--------
Formula: C3H7FN2O2
Atoms
  Index Symbol   x (angstrom)   y (angstrom)   z (angstrom)
      1      C    -0.15550605     0.01128114    -0.37870656
      2      C    -0.27759958    -0.02475301     1.16396489
      3      F     1.21022276    -0.24716459    -0.71837273
      4      H    -1.32957719     0.05967328     1.44119863
      5      C    -0.61602033     1.28041554    -1.07565145
      6      H    -0.54728181     1.14754672    -2.16024891
      7      H    -1.65875713     1.49504795    -0.81285211
      8      H    -0.00641306     2.14032148    -0.78214116
      9      N     0.33184133     1.34564118     1.72822915
     10      O     1.53394716     1.37729089     1.98902969
     11      O    -0.46608371     2.29502478     1.81788319
     12      N     0.34861434    -1.12556286     1.80285149
     13      H     1.13750377    -1.51256998     1.29100142
     14      H    -0.29013456    -1.84000715     2.13340989
     15      H    -0.71833855    -0.86112559    -0.74273062

Total System Charge              0.00000

 *** GO1_GOStep9 ***

 Energy gradients wrt nuclear displacements
 ==========================================

     Atom      Cartesian (a.u./angstrom)
                 X         Y         Z
 ----------------------------------------
     1 C    -0.000660  0.000891 -0.000451
     2 C    -0.002142 -0.001509 -0.000334
     3 F     0.000449 -0.000072 -0.000333
     4 H     0.001770  0.000127  0.000107
     5 C    -0.000133 -0.000470  0.000702
     6 H    -0.000286  0.000213  0.000058
     7 H    -0.000166  0.000213  0.000178
     8 H    -0.000096  0.000174  0.000179
     9 N     0.001442  0.001109  0.000812
    10 O    -0.000549 -0.000017 -0.000594
    11 O     0.000283 -0.000306 -0.000440
    12 N    -0.001070  0.001003  0.001506
    13 H     0.000600 -0.000534 -0.000274
    14 H     0.000295 -0.000506 -0.000838
    15 H     0.000262 -0.000315 -0.000279
 ----------------------------------------

 dE(predicted):    -0.47423E-04, dE(actual):    -0.81844E-04, Trust radius:    0.800000, all in a.u.
 
----------------------------------------------------------------------
Geometry Convergence after Step   9       (Hartree/Angstrom,Angstrom)
----------------------------------------------------------------------
current energy                               -2.97618883 Hartree
energy change                      -0.00008184     0.00015000    T
constrained gradient max            0.00219296     0.00010000    F
constrained gradient rms            0.00073101     0.00006667    F
gradient max                        0.00219296
gradient rms                        0.00073101
cart. step max                      0.02901123     0.01000000    F
cart. step rms                      0.01328864     0.00666667    F
 

--------
Geometry
--------
Formula: C3H7FN2O2
Atoms
  Index Symbol   x (angstrom)   y (angstrom)   z (angstrom)
      1      C    -0.16148952     0.00729215    -0.37950924
      2      C    -0.27820068    -0.02493203     1.16216568
      3      F     1.19646437    -0.27513025    -0.72629878
      4      H    -1.33209192     0.04652952     1.44016203
      5      C    -0.60347128     1.28311876    -1.07780922
      6      H    -0.53784352     1.14823488    -2.16226614
      7      H    -1.64244514     1.51372696    -0.81372138
      8      H     0.02021214     2.13410059    -0.78692367
      9      N     0.31657586     1.34845022     1.73125309
     10      O     1.52213749     1.39409105     1.97785801
     11      O    -0.49336174     2.28445746     1.84689442
     12      N     0.36137343    -1.12145563     1.79543168
     13      H     1.13875021    -1.51397669     1.27137142
     14      H    -0.26715381    -1.82896687     2.15779926
     15      H    -0.74303849    -0.85448036    -0.73954235

Total System Charge              0.00000

 *** GO1_GOStep10 ***

 Energy gradients wrt nuclear displacements
 ==========================================

     Atom      Cartesian (a.u./angstrom)
                 X         Y         Z
 ----------------------------------------
     1 C     0.000342 -0.000371  0.000819
     2 C    -0.000532  0.001242 -0.001616
     3 F    -0.000564 -0.000047 -0.000099
     4 H     0.000460 -0.000388  0.000034
     5 C    -0.000200 -0.000501 -0.000062
     6 H    -0.000212  0.000331  0.000035
     7 H    -0.000195  0.000129  0.000161
     8 H    -0.000048  0.000318 -0.000028
     9 N    -0.000636  0.000267  0.000022
    10 O     0.000532 -0.000244 -0.000017
    11 O     0.000572 -0.000208  0.000329
    12 N    -0.000045  0.000506  0.001620
    13 H     0.000414 -0.000431 -0.000265
    14 H     0.000239 -0.000527 -0.000677
    15 H    -0.000128 -0.000076 -0.000255
 ----------------------------------------

 dE(predicted):    -0.39429E-04, dE(actual):    -0.10068E-03, Trust radius:    0.800000, all in a.u.
 
----------------------------------------------------------------------
Geometry Convergence after Step  10       (Hartree/Angstrom,Angstrom)
----------------------------------------------------------------------
current energy                               -2.97628950 Hartree
energy change                      -0.00010068     0.00015000    T
constrained gradient max            0.00169090     0.00010000    F
constrained gradient rms            0.00051503     0.00006667    F
gradient max                        0.00169090
gradient rms                        0.00051503
cart. step max                      0.01787289     0.01000000    F
cart. step rms                      0.00677545     0.00666667    F
 

--------
Geometry
--------
Formula: C3H7FN2O2
Atoms
  Index Symbol   x (angstrom)   y (angstrom)   z (angstrom)
      1      C    -0.16364391     0.00607190    -0.37968923
      2      C    -0.27837419    -0.02667888     1.16200599
      3      F     1.19175139    -0.28482600    -0.72872358
      4      H    -1.33262798     0.04103226     1.44103930
      5      C    -0.59739902     1.28504198    -1.07777072
      6      H    -0.53225806     1.14916384    -2.16211466
      7      H    -1.63483750     1.52220712    -0.81376157
      8      H     0.03235101     2.13150755    -0.78692613
      9      N     0.30930233     1.34965132     1.73119784
     10      O     1.51645085     1.40496958     1.96844628
     11      O    -0.50788205     2.27804624     1.85776245
     12      N     0.36704807    -1.12167735     1.79077137
     13      H     1.13457965    -1.52036422     1.25781023
     14      H    -0.25600379    -1.82179064     2.17567215
     15      H    -0.75203941    -0.85129491    -0.73885488

Total System Charge              0.00000

 *** GO1_GOStep11 ***

 Energy gradients wrt nuclear displacements
 ==========================================

     Atom      Cartesian (a.u./angstrom)
                 X         Y         Z
 ----------------------------------------
     1 C     0.000545 -0.000582  0.000872
     2 C     0.000200  0.001738 -0.001517
     3 F    -0.000758  0.000107  0.000012
     4 H     0.000067 -0.000358  0.000075
     5 C    -0.000149 -0.000206 -0.000341
     6 H    -0.000173  0.000242  0.000026
     7 H    -0.000149  0.000048  0.000152
     8 H    -0.000048  0.000207 -0.000049
     9 N    -0.001044 -0.000220 -0.000368
    10 O     0.000630 -0.000233 -0.000041
    11 O     0.000476 -0.000114  0.000472
    12 N     0.000568  0.000000  0.001625
    13 H     0.000070 -0.000175 -0.000282
    14 H     0.000046 -0.000533 -0.000565
    15 H    -0.000281  0.000078 -0.000072
 ----------------------------------------

 dE(predicted):    -0.10793E-04, dE(actual):    -0.50446E-04, Trust radius:    0.800000, all in a.u.
 
----------------------------------------------------------------------
Geometry Convergence after Step  11       (Hartree/Angstrom,Angstrom)
----------------------------------------------------------------------
current energy                               -2.97633995 Hartree
energy change                      -0.00005045     0.00015000    T
constrained gradient max            0.00175109     0.00010000    F
constrained gradient rms            0.00054920     0.00006667    F
gradient max                        0.00175109
gradient rms                        0.00054920
cart. step max                      0.03954530     0.01000000    F
cart. step rms                      0.01202157     0.00666667    F
 

--------
Geometry
--------
Formula: C3H7FN2O2
Atoms
  Index Symbol   x (angstrom)   y (angstrom)   z (angstrom)
      1      C    -0.16639143     0.00454854    -0.38105349
      2      C    -0.27871160    -0.03070497     1.16138100
      3      F     1.18600412    -0.29789875    -0.73328403
      4      H    -1.33285385     0.03295905     1.44240836
      5      C    -0.58835060     1.28871347    -1.07697139
      6      H    -0.52416153     1.15154091    -2.16119422
      7      H    -1.62335577     1.53537315    -0.81273244
      8      H     0.05063993     2.12778324    -0.78551559
      9      N     0.29786995     1.35110224     1.73103269
     10      O     1.50566400     1.42177049     1.96032145
     11      O    -0.53100889     2.26809089     1.86777941
     12      N     0.37656202    -1.12327577     1.78015579
     13      H     1.12166245    -1.53810923     1.22939484
     14      H    -0.23354451    -1.80431658     2.21521745
     15      H    -0.76360689    -0.84651689    -0.74007500

Total System Charge              0.00000

 *** GO1_GOStep12 ***

 Energy gradients wrt nuclear displacements
 ==========================================

     Atom      Cartesian (a.u./angstrom)
                 X         Y         Z
 ----------------------------------------
     1 C     0.000742 -0.000648  0.000183
     2 C     0.000269  0.002478 -0.000412
     3 F    -0.000511  0.000176  0.000038
     4 H     0.000004 -0.000164  0.000118
     5 C    -0.000178  0.000494 -0.000439
     6 H    -0.000098 -0.000068  0.000073
     7 H    -0.000079 -0.000055  0.000120
     8 H    -0.000025 -0.000066 -0.000005
     9 N    -0.001188 -0.001354 -0.000984
    10 O     0.000567 -0.000145 -0.000041
    11 O     0.000190 -0.000096  0.000567
    12 N     0.001336 -0.000536  0.001616
    13 H    -0.000350  0.000108 -0.000541
    14 H    -0.000267 -0.000369 -0.000515
    15 H    -0.000413  0.000244  0.000221
 ----------------------------------------

 dE(predicted):    -0.20029E-04, dE(actual):    -0.77761E-04, Trust radius:    0.800000, all in a.u.
 
----------------------------------------------------------------------
Geometry Convergence after Step  12       (Hartree/Angstrom,Angstrom)
----------------------------------------------------------------------
current energy                               -2.97641771 Hartree
energy change                      -0.00007776     0.00015000    T
constrained gradient max            0.00249179     0.00010000    F
constrained gradient rms            0.00064645     0.00006667    F
gradient max                        0.00249179
gradient rms                        0.00064645
cart. step max                      0.05785740     0.01000000    F
cart. step rms                      0.01583573     0.00666667    F
 

--------
Geometry
--------
Formula: C3H7FN2O2
Atoms
  Index Symbol   x (angstrom)   y (angstrom)   z (angstrom)
      1      C    -0.16961056     0.00225628    -0.38472532
      2      C    -0.27945332    -0.03806982     1.15873319
      3      F     1.17968849    -0.31205770    -0.74087234
      4      H    -1.33350351     0.02256092     1.44104929
      5      C    -0.57807891     1.29395063    -1.07461111
      6      H    -0.51531385     1.15916353    -2.15922414
      7      H    -1.61008943     1.55090633    -0.80923038
      8      H     0.07114682     2.12381387    -0.78013733
      9      N     0.28430077     1.35222263     1.72934708
     10      O     1.49151672     1.44030061     1.95387696
     11      O    -0.55768891     2.25684606     1.87268066
     12      N     0.38650483    -1.12657645     1.76590179
     13      H     1.10205580    -1.56613472     1.19722469
     14      H    -0.19968172    -1.77671011     2.27307485
     15      H    -0.77537583    -0.84141226    -0.74622307

Total System Charge              0.00000

 *** GO1_GOStep13 ***

 Energy gradients wrt nuclear displacements
 ==========================================

     Atom      Cartesian (a.u./angstrom)
                 X         Y         Z
 ----------------------------------------
     1 C     0.000466 -0.000294 -0.000911
     2 C     0.000240  0.002797  0.001064
     3 F    -0.000160  0.000237  0.000041
     4 H     0.000174  0.000049 -0.000015
     5 C    -0.000102  0.001124 -0.000316
     6 H    -0.000040 -0.000226  0.000090
     7 H     0.000030 -0.000132  0.000078
     8 H    -0.000001 -0.000254  0.000069
     9 N    -0.000919 -0.002613 -0.001528
    10 O     0.000261  0.000042 -0.000129
    11 O    -0.000150  0.000102  0.000568
    12 N     0.001601 -0.001391  0.002055
    13 H    -0.000865  0.000154 -0.000859
    14 H    -0.000186  0.000117 -0.000594
    15 H    -0.000349  0.000289  0.000388
 ----------------------------------------

 dE(predicted):    -0.22819E-04, dE(actual):    -0.54430E-04, Trust radius:    0.800000, all in a.u.
 
----------------------------------------------------------------------
Geometry Convergence after Step  13       (Hartree/Angstrom,Angstrom)
----------------------------------------------------------------------
current energy                               -2.97647214 Hartree
energy change                      -0.00005443     0.00015000    T
constrained gradient max            0.00281599     0.00010000    F
constrained gradient rms            0.00085594     0.00006667    F
gradient max                        0.00281599
gradient rms                        0.00085594
cart. step max                      0.02646164     0.01000000    F
cart. step rms                      0.00685754     0.00666667    F
 

--------
Geometry
--------
Formula: C3H7FN2O2
Atoms
  Index Symbol   x (angstrom)   y (angstrom)   z (angstrom)
      1      C    -0.17134020     0.00082931    -0.38747922
      2      C    -0.28059293    -0.04237242     1.15625118
      3      F     1.17700574    -0.31760324    -0.74548834
      4      H    -1.33466527     0.01853414     1.43866107
      5      C    -0.57509647     1.29611910    -1.07285231
      6      H    -0.51433195     1.16439737    -2.15797210
      7      H    -1.60546265     1.55733182    -0.80540474
      8      H     0.07834207     2.12202316    -0.77676971
      9      N     0.27969588     1.35243013     1.72864942
     10      O     1.48501373     1.44355473     1.96044845
     11      O    -0.56549429     2.25527545     1.86549496
     12      N     0.38922927    -1.12826490     1.75815910
     13      H     1.09595116    -1.57786199     1.18706101
     14      H    -0.18240530    -1.76331417     2.29953650
     15      H    -0.77943141    -0.84001871    -0.75143045

Total System Charge              0.00000

 *** GO1_GOStep14 ***

 Energy gradients wrt nuclear displacements
 ==========================================

     Atom      Cartesian (a.u./angstrom)
                 X         Y         Z
 ----------------------------------------
     1 C     0.000206 -0.000073 -0.001356
     2 C    -0.000269  0.002535  0.001750
     3 F     0.000064  0.000088 -0.000106
     4 H     0.000176  0.000210 -0.000223
     5 C    -0.000084  0.001097  0.000065
     6 H    -0.000061 -0.000171  0.000056
     7 H     0.000030 -0.000069  0.000024
     8 H     0.000002 -0.000266  0.000094
     9 N    -0.000374 -0.002865 -0.001307
    10 O    -0.000017  0.000029 -0.000236
    11 O    -0.000287  0.000067  0.000334
    12 N     0.002066 -0.000802  0.001955
    13 H    -0.000910 -0.000084 -0.000831
    14 H    -0.000330  0.000090 -0.000484
    15 H    -0.000212  0.000215  0.000265
 ----------------------------------------

 dE(predicted):    -0.14435E-04, dE(actual):    -0.14727E-04, Trust radius:    0.800000, all in a.u.
 
----------------------------------------------------------------------
Geometry Convergence after Step  14       (Hartree/Angstrom,Angstrom)
----------------------------------------------------------------------
current energy                               -2.97648687 Hartree
energy change                      -0.00001473     0.00015000    T
constrained gradient max            0.00280358     0.00010000    F
constrained gradient rms            0.00086614     0.00006667    F
gradient max                        0.00280358
gradient rms                        0.00086614
cart. step max                      0.06649638     0.01000000    F
cart. step rms                      0.01892484     0.00666667    F
 

--------
Geometry
--------
Formula: C3H7FN2O2
Atoms
  Index Symbol   x (angstrom)   y (angstrom)   z (angstrom)
      1      C    -0.17638547    -0.00251193    -0.39551517
      2      C    -0.28480857    -0.05524695     1.14790163
      3      F     1.17105900    -0.32798714    -0.75675939
      4      H    -1.33831191     0.01076982     1.43160351
      5      C    -0.57124875     1.30033114    -1.06899285
      6      H    -0.51835235     1.17733747    -2.15557726
      7      H    -1.59683813     1.57137140    -0.79321945
      8      H     0.09164492     2.11777453    -0.77063331
      9      N     0.27180575     1.35398321     1.73018736
     10      O     1.46773622     1.44266509     2.00303005
     11      O    -0.57466360     2.26086184     1.82968809
     12      N     0.38905967    -1.13648235     1.73143720
     13      H     1.08397381    -1.60687047     1.16493774
     14      H    -0.13155007    -1.72682718     2.36603287
     15      H    -0.78670313    -0.83810872    -0.76725621

Total System Charge              0.00000

 *** GO1_GOStep15 ***

 Energy gradients wrt nuclear displacements
 ==========================================

     Atom      Cartesian (a.u./angstrom)
                 X         Y         Z
 ----------------------------------------
     1 C    -0.000829  0.000525 -0.002187
     2 C    -0.001198  0.000386  0.003599
     3 F     0.000492 -0.000497 -0.000391
     4 H     0.000316  0.000458 -0.000770
     5 C    -0.000019  0.000224  0.001255
     6 H    -0.000179  0.000147 -0.000013
     7 H    -0.000013  0.000157 -0.000008
     8 H    -0.000002 -0.000149  0.000156
     9 N     0.001336 -0.002902  0.000139
    10 O    -0.000929  0.000143 -0.000463
    11 O    -0.000537  0.000169 -0.000596
    12 N     0.003355  0.003506 -0.000195
    13 H    -0.001119 -0.001226 -0.000439
    14 H    -0.000972 -0.000873  0.000054
    15 H     0.000298 -0.000068 -0.000140
 ----------------------------------------

 dE(predicted):    -0.58566E-04, dE(actual):    -0.58590E-04, Trust radius:    0.800000, all in a.u.
 
----------------------------------------------------------------------
Geometry Convergence after Step  15       (Hartree/Angstrom,Angstrom)
----------------------------------------------------------------------
current energy                               -2.97654546 Hartree
energy change                      -0.00005859     0.00015000    T
constrained gradient max            0.00360102     0.00010000    F
constrained gradient rms            0.00118971     0.00006667    F
gradient max                        0.00360102
gradient rms                        0.00118971
cart. step max                      0.04048778     0.01000000    F
cart. step rms                      0.01150765     0.00666667    F
 

--------
Geometry
--------
Formula: C3H7FN2O2
Atoms
  Index Symbol   x (angstrom)   y (angstrom)   z (angstrom)
      1      C    -0.17821710    -0.00417479    -0.40166355
      2      C    -0.28996810    -0.06582882     1.13978329
      3      F     1.17074440    -0.32754274    -0.76222846
      4      H    -1.34284131     0.00911243     1.42455272
      5      C    -0.57209051     1.30172138    -1.06762845
      6      H    -0.52288704     1.18594932    -2.15514365
      7      H    -1.59603925     1.57410640    -0.78690224
      8      H     0.09215763     2.11734589    -0.76688694
      9      N     0.27173431     1.35515763     1.73209143
     10      O     1.46175255     1.43594661     2.03040475
     11      O    -0.57030142     2.26781958     1.81056256
     12      N     0.37733553    -1.14666565     1.71196658
     13      H     1.08171596    -1.62088621     1.16241961
     14      H    -0.10103347    -1.70256303     2.40652065
     15      H    -0.78564479    -0.83843821    -0.78098348

Total System Charge              0.00000

 *** GO1_GOStep16 ***

 Energy gradients wrt nuclear displacements
 ==========================================

     Atom      Cartesian (a.u./angstrom)
                 X         Y         Z
 ----------------------------------------
     1 C    -0.001394  0.001257 -0.001908
     2 C    -0.000996 -0.002993  0.003891
     3 F     0.000527 -0.000646 -0.000612
     4 H     0.000233  0.000457 -0.000867
     5 C     0.000189 -0.001000  0.001694
     6 H    -0.000241  0.000530 -0.000005
     7 H    -0.000015  0.000303  0.000136
     8 H     0.000009  0.000143  0.000206
     9 N     0.002387 -0.001797  0.001414
    10 O    -0.001164  0.000388 -0.000669
    11 O    -0.000569  0.000115 -0.001204
    12 N     0.002886  0.007001 -0.001434
    13 H    -0.001492 -0.002160 -0.000058
    14 H    -0.000957 -0.001432 -0.000279
    15 H     0.000595 -0.000167 -0.000305
 ----------------------------------------

 dE(predicted):    -0.48283E-04, dE(actual):    -0.82075E-04, Trust radius:    0.800000, all in a.u.
 
----------------------------------------------------------------------
Geometry Convergence after Step  16       (Hartree/Angstrom,Angstrom)
----------------------------------------------------------------------
current energy                               -2.97662753 Hartree
energy change                      -0.00008208     0.00015000    T
constrained gradient max            0.00706637     0.00010000    F
constrained gradient rms            0.00165287     0.00006667    F
gradient max                        0.00706637
gradient rms                        0.00165287
cart. step max                      0.17063475     0.01000000    F
cart. step rms                      0.04955162     0.00666667    F
 

--------
Geometry
--------
Formula: C3H7FN2O2
Atoms
  Index Symbol   x (angstrom)   y (angstrom)   z (angstrom)
      1      C    -0.19174465    -0.01770494    -0.42535531
      2      C    -0.32567346    -0.11504881     1.10423937
      3      F     1.16268419    -0.34022815    -0.77619845
      4      H    -1.37374496     0.00415616     1.39477407
      5      C    -0.57118089     1.30237973    -1.06377536
      6      H    -0.53077593     1.21467274    -2.15403327
      7      H    -1.58885362     1.58470377    -0.76909295
      8      H     0.10061296     2.10793914    -0.75054191
      9      N     0.26921026     1.35634210     1.74708791
     10      O     1.43265990     1.39388019     2.13988523
     11      O    -0.54435688     2.29467450     1.76332257
     12      N     0.30442986    -1.19639583     1.63091495
     13      H     1.07576674    -1.64003872     1.15959577
     14      H     0.06960128    -1.56727717     2.53483423
     15      H    -0.79221739    -0.84099493    -0.83879204

Total System Charge              0.00000

 *** GO1_GOStep17 ***

 Energy gradients wrt nuclear displacements
 ==========================================

     Atom      Cartesian (a.u./angstrom)
                 X         Y         Z
 ----------------------------------------
     1 C    -0.001966  0.004037  0.001632
     2 C     0.005036 -0.030492  0.009125
     3 F     0.000520 -0.001249 -0.001204
     4 H    -0.000063 -0.000053 -0.001611
     5 C     0.000926 -0.006126  0.002669
     6 H    -0.000324  0.002005  0.000100
     7 H    -0.000015  0.000875  0.000702
     8 H     0.000086  0.001649  0.000290
     9 N     0.007461  0.004957  0.006780
    10 O    -0.003912  0.001361 -0.002668
    11 O     0.000018 -0.001342 -0.003268
    12 N    -0.003756  0.035539 -0.008903
    13 H    -0.008837 -0.007305  0.005412
    14 H     0.003597 -0.003336 -0.008487
    15 H     0.001229 -0.000520 -0.000568
 ----------------------------------------

 dE(predicted):    -0.34951E-03, dE(actual):    -0.58268E-03, Trust radius:    1.000000, all in a.u.
 
----------------------------------------------------------------------
Geometry Convergence after Step  17       (Hartree/Angstrom,Angstrom)
----------------------------------------------------------------------
current energy                               -2.97721021 Hartree
energy change                      -0.00058268     0.00015000    F
constrained gradient max            0.03558107     0.00010000    F
constrained gradient rms            0.00802567     0.00006667    F
gradient max                        0.03558107
gradient rms                        0.00802567
cart. step max                      0.17743619     0.01000000    F
cart. step rms                      0.07090405     0.00666667    F
 

--------
Geometry
--------
Formula: C3H7FN2O2
Atoms
  Index Symbol   x (angstrom)   y (angstrom)   z (angstrom)
      1      C    -0.20160561    -0.03703030    -0.45404638
      2      C    -0.37907995    -0.18086610     1.05236102
      3      F     1.17230614    -0.31664401    -0.77356616
      4      H    -1.41306253     0.01689224     1.35368946
      5      C    -0.60122010     1.28478680    -1.06569938
      6      H    -0.56358989     1.23388788    -2.15801700
      7      H    -1.62238546     1.54566309    -0.76005149
      8      H     0.04741492     2.10369569    -0.73426337
      9      N     0.31705002     1.33413224     1.77894159
     10      O     1.42420557     1.25849381     2.30566815
     11      O    -0.40034145     2.33979624     1.71329674
     12      N     0.16146381    -1.27762331     1.54092132
     13      H     1.10281533    -1.51091404     1.28181247
     14      H     0.21470107    -1.38984098     2.53278889
     15      H    -0.76225447    -0.86336948    -0.91697103

Total System Charge              0.00000

 *** GO1_GOStep18 ***

 Energy gradients wrt nuclear displacements
 ==========================================

     Atom      Cartesian (a.u./angstrom)
                 X         Y         Z
 ----------------------------------------
     1 C    -0.002347  0.004177  0.011593
     2 C     0.034468 -0.104150  0.033057
     3 F     0.000580 -0.002227 -0.002999
     4 H    -0.001941  0.000507 -0.000502
     5 C     0.002568 -0.014856  0.003507
     6 H    -0.000235  0.004003  0.000395
     7 H     0.000103  0.001801  0.001845
     8 H     0.000140  0.004504  0.000473
     9 N     0.015566  0.017286  0.014541
    10 O    -0.008213  0.003951 -0.005685
    11 O     0.000203 -0.003781 -0.004908
    12 N    -0.051204  0.095580 -0.052113
    13 H    -0.022365 -0.003614  0.040935
    14 H     0.030704 -0.002686 -0.038644
    15 H     0.001971 -0.000497 -0.001494
 ----------------------------------------

 dE(predicted):    -0.86730E-03, dE(actual):     0.54410E-02, Trust radius:    0.250000, all in a.u.
 
----------------------------------------------------------------------
Geometry Convergence after Step  18       (Hartree/Angstrom,Angstrom)
----------------------------------------------------------------------
current energy                               -2.97176921 Hartree
energy change                       0.00544101     0.00015000    F
constrained gradient max            0.10414951     0.00010000    F
constrained gradient rms            0.02732708     0.00006667    F
gradient max                        0.10414951
gradient rms                        0.02732708
cart. step max                      0.06182301     0.01000000    F
cart. step rms                      0.02226728     0.00666667    F
 

--------
Geometry
--------
Formula: C3H7FN2O2
Atoms
  Index Symbol   x (angstrom)   y (angstrom)   z (angstrom)
      1      C    -0.19532953    -0.01918577    -0.44977697
      2      C    -0.36388116    -0.15446464     1.06269489
      3      F     1.17952619    -0.28652074    -0.77010177
      4      H    -1.39836687     0.02471748     1.36281310
      5      C    -0.60976918     1.29011348    -1.08357125
      6      H    -0.57181913     1.21604488    -2.17466877
      7      H    -1.63391704     1.54340416    -0.78194983
      8      H     0.03198690     2.11953842    -0.76702472
      9      N     0.31841156     1.33824668     1.78309382
     10      O     1.42914053     1.26315772     2.30683165
     11      O    -0.39858617     2.34500960     1.72472935
     12      N     0.19897503    -1.27063755     1.57483541
     13      H     1.10949407    -1.56074428     1.24095553
     14      H     0.15287806    -1.45166014     2.56591935
     15      H    -0.75232587    -0.85595952    -0.89791497

Total System Charge              0.00000

 *** GO1_GOStep19 ***

 Energy gradients wrt nuclear displacements
 ==========================================

     Atom      Cartesian (a.u./angstrom)
                 X         Y         Z
 ----------------------------------------
     1 C    -0.003382  0.007394  0.006888
     2 C     0.004982 -0.053368  0.006098
     3 F    -0.000160 -0.001109 -0.002026
     4 H     0.001135  0.000553 -0.001549
     5 C     0.003052 -0.012197 -0.000067
     6 H    -0.000314  0.003564  0.000035
     7 H     0.000175  0.001339  0.001791
     8 H    -0.000107  0.003530 -0.000200
     9 N     0.007626  0.015090  0.011573
    10 O    -0.002884  0.003296 -0.002806
    11 O     0.002072 -0.002881 -0.002867
    12 N    -0.021762  0.050970 -0.019346
    13 H    -0.005816 -0.009457  0.015724
    14 H     0.014060 -0.006423 -0.012178
    15 H     0.001324 -0.000301 -0.001070
 ----------------------------------------

 dE(predicted):    -0.69458E-02, dE(actual):    -0.65061E-02, Trust radius:    0.500000, all in a.u.
 
----------------------------------------------------------------------
Geometry Convergence after Step  19       (Hartree/Angstrom,Angstrom)
----------------------------------------------------------------------
current energy                               -2.97827531 Hartree
energy change                      -0.00650610     0.00015000    F
constrained gradient max            0.05337932     0.00010000    F
constrained gradient rms            0.01324591     0.00006667    F
gradient max                        0.05337932
gradient rms                        0.01324591
cart. step max                      0.17680264     0.01000000    F
cart. step rms                      0.05215339     0.00666667    F
 

--------
Geometry
--------
Formula: C3H7FN2O2
Atoms
  Index Symbol   x (angstrom)   y (angstrom)   z (angstrom)
      1      C    -0.17543483    -0.00061186    -0.45872231
      2      C    -0.34889036    -0.13128645     1.04833411
      3      F     1.21308615    -0.19832966    -0.75947269
      4      H    -1.38424863     0.04616744     1.35774893
      5      C    -0.65681241     1.28220794    -1.10391754
      6      H    -0.60157050     1.19979544    -2.19352525
      7      H    -1.69846530     1.47646514    -0.81789395
      8      H    -0.06655211     2.14730951    -0.78394287
      9      N     0.38055507     1.32003000     1.78405717
     10      O     1.48626212     1.17614231     2.31015936
     11      O    -0.28782946     2.35964674     1.74862139
     12      N     0.19240662    -1.27515227     1.58267207
     13      H     1.15911672    -1.48402107     1.34236753
     14      H    -0.02392458    -1.51128013     2.54394008
     15      H    -0.69128112    -0.86602331    -0.90356122

Total System Charge              0.00000

 *** GO1_GOStep20 ***

 Energy gradients wrt nuclear displacements
 ==========================================

     Atom      Cartesian (a.u./angstrom)
                 X         Y         Z
 ----------------------------------------
     1 C    -0.002549  0.005082  0.006513
     2 C     0.000145 -0.027985 -0.016580
     3 F    -0.000465 -0.000744 -0.000499
     4 H    -0.002550  0.000332  0.002584
     5 C     0.001599 -0.010424 -0.000923
     6 H    -0.000483  0.002338  0.000389
     7 H    -0.000017  0.001519  0.001592
     8 H    -0.000393  0.002826 -0.000292
     9 N     0.004766  0.017803  0.009065
    10 O     0.002830  0.000039  0.000059
    11 O     0.001213 -0.002863 -0.000689
    12 N    -0.007749  0.023868 -0.000337
    13 H     0.002255 -0.004701  0.002957
    14 H     0.001671 -0.006670 -0.002276
    15 H    -0.000274 -0.000419 -0.001561
 ----------------------------------------

 dE(predicted):    -0.18221E-02, dE(actual):    -0.16655E-02, Trust radius:    1.000000, all in a.u.
 
----------------------------------------------------------------------
Geometry Convergence after Step  20       (Hartree/Angstrom,Angstrom)
----------------------------------------------------------------------
current energy                               -2.97994082 Hartree
energy change                      -0.00166551     0.00015000    F
constrained gradient max            0.02798613     0.00010000    F
constrained gradient rms            0.00736152     0.00006667    F
gradient max                        0.02798613
gradient rms                        0.00736152
cart. step max                      0.21929722     0.01000000    F
cart. step rms                      0.06025164     0.00666667    F
 

--------
Geometry
--------
Formula: C3H7FN2O2
Atoms
  Index Symbol   x (angstrom)   y (angstrom)   z (angstrom)
      1      C    -0.19597500    -0.00677106    -0.44434435
      2      C    -0.36238858    -0.11721776     1.07272340
      3      F     1.18540725    -0.25714338    -0.74577084
      4      H    -1.40629947     0.03698008     1.37483386
      5      C    -0.62499072     1.29212779    -1.10153140
      6      H    -0.55705680     1.17684156    -2.18775729
      7      H    -1.66214086     1.52712653    -0.83504921
      8      H     0.00560060     2.12549872    -0.78316397
      9      N     0.32082307     1.31266086     1.80141944
     10      O     1.39426746     1.18155571     2.39348039
     11      O    -0.34891273     2.35442730     1.71620935
     12      N     0.22624646    -1.27869985     1.58667369
     13      H     1.09280219    -1.55169271     1.12307030
     14      H     0.17733014    -1.39849112     2.59839720
     15      H    -0.74829561    -0.85614287    -0.87232575

Total System Charge              0.00000

 *** GO1_GOStep21 ***

 Energy gradients wrt nuclear displacements
 ==========================================

     Atom      Cartesian (a.u./angstrom)
                 X         Y         Z
 ----------------------------------------
     1 C     0.001768  0.001107 -0.001371
     2 C    -0.012492 -0.004025 -0.015509
     3 F     0.000719 -0.000572  0.001150
     4 H    -0.004866  0.000760  0.000561
     5 C    -0.000343  0.000076  0.001331
     6 H    -0.000044 -0.001173  0.000696
     7 H    -0.000274  0.000557  0.000210
     8 H     0.000181 -0.000561  0.000187
     9 N     0.004899  0.008659  0.006326
    10 O     0.003086  0.000049  0.002050
    11 O    -0.002325  0.005820 -0.000559
    12 N     0.018868 -0.007340  0.008738
    13 H     0.000722 -0.004772 -0.015649
    14 H    -0.009124  0.001264  0.011524
    15 H    -0.000775  0.000151  0.000314
 ----------------------------------------

 dE(predicted):    -0.20038E-02, dE(actual):    -0.11970E-03, Trust radius:    0.169328, all in a.u.
 
----------------------------------------------------------------------
Geometry Convergence after Step  21       (Hartree/Angstrom,Angstrom)
----------------------------------------------------------------------
current energy                               -2.98006052 Hartree
energy change                      -0.00011970     0.00015000    T
constrained gradient max            0.01882589     0.00010000    F
constrained gradient rms            0.00599118     0.00006667    F
gradient max                        0.01882589
gradient rms                        0.00599118
cart. step max                      0.06875582     0.01000000    F
cart. step rms                      0.01618364     0.00666667    F
 

--------
Geometry
--------
Formula: C3H7FN2O2
Atoms
  Index Symbol   x (angstrom)   y (angstrom)   z (angstrom)
      1      C    -0.19300862    -0.00385045    -0.44905993
      2      C    -0.35750146    -0.12080654     1.06627809
      3      F     1.18808330    -0.24181933    -0.75819887
      4      H    -1.39996512     0.03687400     1.36631943
      5      C    -0.63425224     1.29220660    -1.10440815
      6      H    -0.56732175     1.18671275    -2.19185094
      7      H    -1.67367654     1.51410849    -0.83545771
      8      H    -0.01503595     2.13382248    -0.78388736
      9      N     0.33621288     1.30332475     1.79726354
     10      O     1.41049622     1.16220822     2.38340324
     11      O    -0.32508595     2.34741813     1.71814236
     12      N     0.21101058    -1.28164631     1.58571533
     13      H     1.11753192    -1.52227200     1.19182612
     14      H     0.13758678    -1.40899331     2.59073959
     15      H    -0.73865665    -0.85622771    -0.87995994

Total System Charge              0.00000

 *** GO1_GOStep22 ***

 Energy gradients wrt nuclear displacements
 ==========================================

     Atom      Cartesian (a.u./angstrom)
                 X         Y         Z
 ----------------------------------------
     1 C     0.000224  0.002203  0.002252
     2 C    -0.007505 -0.012305 -0.014303
     3 F    -0.000236 -0.000206 -0.000476
     4 H    -0.003277 -0.000043  0.000542
     5 C     0.000526 -0.001670 -0.000012
     6 H    -0.000281  0.000144  0.000216
     7 H     0.000058  0.000248  0.000437
     8 H     0.000090  0.000088 -0.000064
     9 N     0.005539  0.012597  0.007608
    10 O     0.000070  0.000525  0.000372
    11 O     0.000563  0.000469 -0.000147
    12 N     0.010315  0.001637  0.008281
    13 H    -0.001187 -0.003392 -0.007316
    14 H    -0.004472 -0.000432  0.002854
    15 H    -0.000426  0.000136 -0.000243
 ----------------------------------------

 dE(predicted):    -0.75562E-03, dE(actual):    -0.98781E-03, Trust radius:    0.338656, all in a.u.
 
----------------------------------------------------------------------
Geometry Convergence after Step  22       (Hartree/Angstrom,Angstrom)
----------------------------------------------------------------------
current energy                               -2.98104834 Hartree
energy change                      -0.00098781     0.00015000    F
constrained gradient max            0.01432055     0.00010000    F
constrained gradient rms            0.00461369     0.00006667    F
gradient max                        0.01432055
gradient rms                        0.00461369
cart. step max                      0.10457668     0.01000000    F
cart. step rms                      0.03504799     0.00666667    F
 

--------
Geometry
--------
Formula: C3H7FN2O2
Atoms
  Index Symbol   x (angstrom)   y (angstrom)   z (angstrom)
      1      C    -0.18423388     0.00851701    -0.45151034
      2      C    -0.35158604    -0.11363470     1.06106366
      3      F     1.20481106    -0.18511809    -0.75080809
      4      H    -1.39256952     0.05326364     1.35842993
      5      C    -0.66358084     1.28998152    -1.11199373
      6      H    -0.57553712     1.19235379    -2.19893919
      7      H    -1.71588888     1.46750924    -0.86093075
      8      H    -0.08536734     2.15544878    -0.77908999
      9      N     0.37529913     1.27225558     1.78890421
     10      O     1.44218896     1.09071957     2.37706303
     11      O    -0.24508982     2.33868681     1.70721744
     12      N     0.18024433    -1.29357103     1.57325845
     13      H     1.14392332    -1.45721945     1.29640280
     14      H     0.06350517    -1.41691411     2.57214452
     15      H    -0.69970113    -0.86121877    -0.88434716

Total System Charge              0.00000

 *** GO1_GOStep23 ***

 Energy gradients wrt nuclear displacements
 ==========================================

     Atom      Cartesian (a.u./angstrom)
                 X         Y         Z
 ----------------------------------------
     1 C    -0.000598  0.000881  0.005922
     2 C    -0.000803 -0.018465 -0.011053
     3 F    -0.001170 -0.000184 -0.000377
     4 H    -0.002274 -0.000541  0.001099
     5 C     0.000239 -0.001101 -0.000452
     6 H    -0.000356  0.000649 -0.000110
     7 H     0.000526 -0.000003  0.000355
     8 H    -0.000100  0.000207 -0.000219
     9 N     0.006218  0.014092  0.006743
    10 O    -0.001624  0.000017 -0.000559
    11 O     0.001853 -0.002720  0.000201
    12 N     0.001536  0.007351  0.002883
    13 H    -0.003789  0.000039  0.001059
    14 H     0.000534 -0.000189 -0.004950
    15 H    -0.000193 -0.000033 -0.000543
 ----------------------------------------

 dE(predicted):    -0.73971E-03, dE(actual):    -0.86435E-03, Trust radius:    0.677311, all in a.u.
 
----------------------------------------------------------------------
Geometry Convergence after Step  23       (Hartree/Angstrom,Angstrom)
----------------------------------------------------------------------
current energy                               -2.98191269 Hartree
energy change                      -0.00086435     0.00015000    F
constrained gradient max            0.01845990     0.00010000    F
constrained gradient rms            0.00450288     0.00006667    F
gradient max                        0.01845990
gradient rms                        0.00450288
cart. step max                      0.05003029     0.01000000    F
cart. step rms                      0.02115342     0.00666667    F
 

--------
Geometry
--------
Formula: C3H7FN2O2
Atoms
  Index Symbol   x (angstrom)   y (angstrom)   z (angstrom)
      1      C    -0.17486555     0.02092840    -0.45020148
      2      C    -0.34253953    -0.09957546     1.06461253
      3      F     1.21849285    -0.14081532    -0.74654081
      4      H    -1.38468346     0.07286810     1.35497819
      5      C    -0.68231977     1.28967065    -1.11715156
      6      H    -0.57388353     1.19329375    -2.20255513
      7      H    -1.74411801     1.43241241    -0.88455228
      8      H    -0.13539763     2.17099438    -0.77462418
      9      N     0.39564432     1.24572840     1.78223528
     10      O     1.46072005     1.04388395     2.36759437
     11      O    -0.20173865     2.32531385     1.69944205
     12      N     0.16272947    -1.30156636     1.57047694
     13      H     1.14404121    -1.43734278     1.34257051
     14      H     0.02477944    -1.41296646     2.56905000
     15      H    -0.67044382    -0.86176772    -0.87846964

Total System Charge              0.00000

 *** GO1_GOStep24 ***

 Energy gradients wrt nuclear displacements
 ==========================================

     Atom      Cartesian (a.u./angstrom)
                 X         Y         Z
 ----------------------------------------
     1 C    -0.000578 -0.000213  0.006477
     2 C     0.002241 -0.015680 -0.008014
     3 F    -0.001110  0.000061 -0.000792
     4 H    -0.001942 -0.000500  0.001338
     5 C    -0.000330  0.000774 -0.000493
     6 H    -0.000337  0.000337 -0.000311
     7 H     0.000612 -0.000296  0.000104
     8 H    -0.000091 -0.000289 -0.000190
     9 N     0.004927  0.011631  0.004854
    10 O    -0.002428 -0.000488 -0.001064
    11 O     0.002076 -0.002722  0.000391
    12 N     0.000342  0.004811  0.001045
    13 H    -0.004294  0.001544  0.002449
    14 H     0.001064  0.000873 -0.005316
    15 H    -0.000151  0.000157 -0.000480
 ----------------------------------------

 dE(predicted):    -0.31973E-03, dE(actual):    -0.42763E-03, Trust radius:    0.677311, all in a.u.
 
----------------------------------------------------------------------
Geometry Convergence after Step  24       (Hartree/Angstrom,Angstrom)
----------------------------------------------------------------------
current energy                               -2.98234032 Hartree
energy change                      -0.00042763     0.00015000    F
constrained gradient max            0.01567711     0.00010000    F
constrained gradient rms            0.00380249     0.00006667    F
gradient max                        0.01567711
gradient rms                        0.00380249
cart. step max                      0.04952359     0.01000000    F
cart. step rms                      0.02149009     0.00666667    F
 

--------
Geometry
--------
Formula: C3H7FN2O2
Atoms
  Index Symbol   x (angstrom)   y (angstrom)   z (angstrom)
      1      C    -0.16272157     0.03616053    -0.44285001
      2      C    -0.33103329    -0.07076029     1.07968686
      3      F     1.23419731    -0.09870384    -0.73384257
      4      H    -1.37606347     0.10625286     1.35458475
      5      C    -0.69569175     1.29025820    -1.12022311
      6      H    -0.55638184     1.19444772    -2.20217619
      7      H    -1.76801415     1.39486803    -0.91631337
      8      H    -0.18492122     2.18727566    -0.76421546
      9      N     0.40616538     1.21341852     1.76901392
     10      O     1.48979064     1.01032055     2.32204503
     11      O    -0.18859283     2.29767744     1.70206307
     12      N     0.14531976    -1.30331103     1.57293147
     13      H     1.13177540    -1.44190540     1.36177909
     14      H    -0.00667444    -1.41381714     2.57232741
     15      H    -0.64073653    -0.86112201    -0.85794608

Total System Charge              0.00000

 *** GO1_GOStep25 ***

 Energy gradients wrt nuclear displacements
 ==========================================

     Atom      Cartesian (a.u./angstrom)
                 X         Y         Z
 ----------------------------------------
     1 C     0.000172 -0.002295  0.004976
     2 C     0.002991 -0.003003 -0.001641
     3 F    -0.000206  0.000213 -0.000714
     4 H    -0.000957  0.000224  0.000770
     5 C    -0.001291  0.003426 -0.000200
     6 H    -0.000193 -0.000400 -0.000124
     7 H     0.000170 -0.000577 -0.000296
     8 H    -0.000010 -0.000983 -0.000061
     9 N    -0.000181  0.002868  0.000212
    10 O    -0.001723 -0.001006 -0.000952
    11 O     0.001722 -0.002585  0.000047
    12 N     0.002685  0.001944 -0.000663
    13 H    -0.002330  0.000986  0.001021
    14 H    -0.000719  0.000965 -0.002154
    15 H    -0.000130  0.000223 -0.000221
 ----------------------------------------

 dE(predicted):    -0.43033E-03, dE(actual):    -0.48171E-03, Trust radius:    0.677311, all in a.u.
 
----------------------------------------------------------------------
Geometry Convergence after Step  25       (Hartree/Angstrom,Angstrom)
----------------------------------------------------------------------
current energy                               -2.98282203 Hartree
energy change                      -0.00048171     0.00015000    F
constrained gradient max            0.00497137     0.00010000    F
constrained gradient rms            0.00160280     0.00006667    F
gradient max                        0.00497137
gradient rms                        0.00160280
cart. step max                      0.03292184     0.01000000    F
cart. step rms                      0.01106471     0.00666667    F
 

--------
Geometry
--------
Formula: C3H7FN2O2
Atoms
  Index Symbol   x (angstrom)   y (angstrom)   z (angstrom)
      1      C    -0.16505934     0.03273104    -0.44219663
      2      C    -0.33435133    -0.07108269     1.08330967
      3      F     1.23043811    -0.11690886    -0.73240290
      4      H    -1.37862455     0.10457421     1.35514376
      5      C    -0.68539757     1.29141842    -1.11879210
      6      H    -0.54784892     1.19625230    -2.20092021
      7      H    -1.75640438     1.40768815    -0.91325136
      8      H    -0.16617605     2.18424921    -0.76296879
      9      N     0.39397502     1.21731692     1.76898016
     10      O     1.49115284     1.03364594     2.30369306
     11      O    -0.22151467     2.29233473     1.71617006
     12      N     0.14380085    -1.30505704     1.57628345
     13      H     1.12328576    -1.45674516     1.33782239
     14      H     0.02108568    -1.40880323     2.58149240
     15      H    -0.65194406    -0.86055416    -0.85549814

Total System Charge              0.00000

 *** GO1_GOStep26 ***

 Energy gradients wrt nuclear displacements
 ==========================================

     Atom      Cartesian (a.u./angstrom)
                 X         Y         Z
 ----------------------------------------
     1 C    -0.000212 -0.001460  0.002466
     2 C     0.000638 -0.001083 -0.000479
     3 F     0.000071  0.000050 -0.000454
     4 H     0.000907  0.000040  0.000063
     5 C    -0.000831  0.002224 -0.000370
     6 H    -0.000187 -0.000188 -0.000033
     7 H    -0.000020 -0.000404 -0.000109
     8 H    -0.000017 -0.000535  0.000037
     9 N    -0.001362  0.000513 -0.000245
    10 O     0.000445  0.000008  0.000006
    11 O     0.000838 -0.000501  0.000086
    12 N     0.000496  0.000817 -0.000937
    13 H    -0.000717  0.000197  0.000527
    14 H     0.000000  0.000153 -0.000445
    15 H    -0.000048  0.000169 -0.000112
 ----------------------------------------

 dE(predicted):    -0.62458E-04, dE(actual):    -0.12201E-03, Trust radius:    0.677311, all in a.u.
 
----------------------------------------------------------------------
Geometry Convergence after Step  26       (Hartree/Angstrom,Angstrom)
----------------------------------------------------------------------
current energy                               -2.98294404 Hartree
energy change                      -0.00012201     0.00015000    T
constrained gradient max            0.00246373     0.00010000    F
constrained gradient rms            0.00072100     0.00006667    F
gradient max                        0.00246373
gradient rms                        0.00072100
cart. step max                      0.01723028     0.01000000    F
cart. step rms                      0.00620981     0.00666667    T
 

--------
Geometry
--------
Formula: C3H7FN2O2
Atoms
  Index Symbol   x (angstrom)   y (angstrom)   z (angstrom)
      1      C    -0.16682081     0.03052112    -0.44207762
      2      C    -0.33801768    -0.07176206     1.08476166
      3      F     1.22796267    -0.12739217    -0.73027225
      4      H    -1.38335098     0.10167425     1.35577335
      5      C    -0.67909110     1.29166729    -1.11773579
      6      H    -0.54436006     1.19666057    -2.20014814
      7      H    -1.74868136     1.41679565    -0.90944974
      8      H    -0.15372573     2.18190417    -0.76332005
      9      N     0.38709591     1.21909064     1.76843390
     10      O     1.48908846     1.04289075     2.29519909
     11      O    -0.23838025     2.28929930     1.72244309
     12      N     0.14495849    -1.30450859     1.57856720
     13      H     1.11996339    -1.46122864     1.32307344
     14      H     0.03831596    -1.40406804     2.58632751
     15      H    -0.65853953    -0.86048445    -0.85471084

Total System Charge              0.00000

 *** GO1_GOStep27 ***

 Energy gradients wrt nuclear displacements
 ==========================================

     Atom      Cartesian (a.u./angstrom)
                 X         Y         Z
 ----------------------------------------
     1 C    -0.000059 -0.000573  0.000713
     2 C    -0.000323 -0.000112 -0.000414
     3 F     0.000055 -0.000001 -0.000205
     4 H     0.000271  0.000027  0.000081
     5 C    -0.000366  0.000919 -0.000150
     6 H    -0.000160 -0.000054  0.000060
     7 H    -0.000091 -0.000172  0.000058
     8 H    -0.000094 -0.000138  0.000066
     9 N    -0.000013 -0.000028 -0.000094
    10 O     0.000398 -0.000063 -0.000019
    11 O     0.000052 -0.000028 -0.000019
    12 N     0.000156  0.000409 -0.000171
    13 H     0.000140 -0.000150 -0.000133
    14 H     0.000118 -0.000113  0.000174
    15 H    -0.000084  0.000077  0.000053
 ----------------------------------------

 dE(predicted):    -0.12441E-04, dE(actual):    -0.38618E-04, Trust radius:    0.677311, all in a.u.
 
----------------------------------------------------------------------
Geometry Convergence after Step  27       (Hartree/Angstrom,Angstrom)
----------------------------------------------------------------------
current energy                               -2.98298266 Hartree
energy change                      -0.00003862     0.00015000    T
constrained gradient max            0.00090456     0.00010000    F
constrained gradient rms            0.00024135     0.00006667    F
gradient max                        0.00090456
gradient rms                        0.00024135
cart. step max                      0.00369413     0.01000000    T
cart. step rms                      0.00135215     0.00666667    T
 

--------
Geometry
--------
Formula: C3H7FN2O2
Atoms
  Index Symbol   x (angstrom)   y (angstrom)   z (angstrom)
      1      C    -0.16708531     0.03026789    -0.44230742
      2      C    -0.33817953    -0.07202677     1.08496304
      3      F     1.22740108    -0.12933419    -0.73052954
      4      H    -1.38389493     0.10057548     1.35559007
      5      C    -0.67789957     1.29158921    -1.11772596
      6      H    -0.54582586     1.19593872    -2.20040493
      7      H    -1.74668701     1.41987350    -0.90703298
[...]
                                   -1.97%     2 P:x             7.649  0.00    13 N
                                    1.69%     1 S              -6.532  1.00     8 H
                                    1.67%     1 P:z            -5.239  0.67     2 C
                                    1.61%     2 S               2.394  0.00    11 H
                                   -1.59%     3 S              14.073  0.00    12 N
                                   -1.16%     2 S               2.394  0.00     7 H
                                    1.03%     1 P:z            -5.239  0.67     3 C
                                    1.02%     3 S              40.869  0.00     6 H
       1.524  0.00    40 A         36.99%     3 S               0.624  0.00     4 F
                                   23.07%     2 S               2.394  0.00     7 H
                                   22.47%     1 S              -6.532  1.00     7 H
                                    8.73%     1 S              -6.532  1.00     5 H
                                   -7.49%     2 P:x             4.589  0.00     1 C
                                   -7.08%     2 P:x             4.589  0.00     3 C
                                    6.46%     1 S              -6.532  1.00     6 H
                                    3.93%     2 S             -13.620  2.00     2 C
                                    3.87%     1 P:z            -5.239  0.67     3 C
                                   -3.77%     1 P:x            -5.239  0.67     1 C
                                   -2.97%     2 P:z             4.589  0.00     3 C
                                    2.65%     1 S              -6.532  1.00     9 H
                                   -2.64%     3 S              10.158  0.00     2 C
                                    2.50%     3 S              40.869  0.00     7 H
                                    2.34%     2 P:z             4.589  0.00     2 C
                                    2.13%     2 S               2.394  0.00    10 H
                                   -1.66%     2 P:x            11.654  0.00     4 F
                                    1.62%     1 P:z            -5.239  0.67     1 C
                                    1.47%     1 S              -6.532  1.00    10 H
                                   -1.45%     2 P:z             4.589  0.00     1 C
                                    1.36%     2 S             -18.450  2.00    12 N
                                    1.35%     2 S               2.394  0.00     9 H
                                    1.05%     2 P:z             7.649  0.00    13 N
       1.865  0.00    41 A         44.57%     1 S              -6.532  1.00     8 H
                                  -18.27%     2 P:z             4.589  0.00     3 C
                                   17.89%     2 S               2.394  0.00     8 H
                                   15.81%     1 S              -6.532  1.00     6 H
                                   -8.66%     2 P:x             4.589  0.00     3 C
                                   -7.43%     2 P:y             4.589  0.00     3 C
                                    5.91%     2 S               2.394  0.00     6 H
                                    5.69%     1 S              -6.532  1.00     7 H
                                    4.58%     1 P:z            -5.239  0.67     3 C
                                    4.36%     1 P:x            -5.239  0.67     2 C
                                    3.98%     1 P:x            -5.239  0.67     3 C
                                    3.51%     1 P:y            -5.239  0.67     2 C
                                    3.20%     1 P:y            -5.239  0.67     3 C
                                    2.94%     1 S              -6.532  1.00    11 H
                                    2.54%     1 P:x            -5.239  0.67     1 C
                                   -2.33%     2 S               2.394  0.00     7 H
                                    2.13%     1 P:y            -7.062  1.00    12 N
                                    2.00%     2 S               2.394  0.00     5 H
                                    1.95%     2 S               2.394  0.00    11 H
                                    1.84%     2 S             -18.450  2.00    12 N
                                    1.80%     3 S              40.869  0.00     6 H
                                   -1.74%     3 S              14.073  0.00    12 N
                                    1.73%     1 P:y            -5.239  0.67     1 C
                                    1.57%     1 P:x           -11.127  1.67     4 F
                                    1.51%     2 S               2.394  0.00     9 H
                                    1.48%     3 S              40.869  0.00     8 H
                                    1.39%     2 S             -13.620  2.00     2 C
                                    1.39%     2 S             -13.620  2.00     1 C
                                   -1.22%     2 S               2.394  0.00    10 H
                                    1.05%     1 P:y            -9.020  1.33    15 O
       2.124  0.00    42 A         19.33%     1 S              -6.532  1.00     9 H
                                   13.83%     2 S               2.394  0.00     5 H
                                   11.49%     1 S              -6.532  1.00     5 H
                                    9.45%     1 S              -6.532  1.00    10 H
                                    9.26%     1 P:x            -5.239  0.67     1 C
                                   -9.25%     2 S               2.394  0.00    10 H
                                    8.24%     1 S              -6.532  1.00     6 H
                                    6.82%     1 P:y            -5.239  0.67     3 C
                                    6.07%     1 S              -6.532  1.00     7 H
                                    5.39%     2 S               2.394  0.00     9 H
                                   -5.37%     2 P:x             4.589  0.00     2 C
                                   -5.20%     2 S               2.394  0.00     6 H
                                    5.10%     1 P:x            -5.239  0.67     2 C
                                    4.79%     1 P:x            -7.062  1.00    13 N
                                    4.57%     1 S              -6.532  1.00    11 H
                                    4.22%     2 S               2.394  0.00    11 H
                                    3.87%     3 S               0.624  0.00     4 F
                                   -3.83%     2 P:z             4.589  0.00     1 C
                                    3.64%     1 S              -6.532  1.00     8 H
                                   -2.93%     2 P:x             7.649  0.00    13 N
                                   -2.90%     3 S              10.158  0.00     1 C
                                   -2.73%     2 S               2.394  0.00     7 H
                                    2.40%     2 S               2.394  0.00     8 H
                                   -2.23%     1 P:z            -5.239  0.67     1 C
                                    2.10%     3 S              40.869  0.00     5 H
                                    1.87%     1 P:x            -5.239  0.67     3 C
                                   -1.85%     2 P:z             7.649  0.00    13 N
                                   -1.62%     2 P:z             4.589  0.00     3 C
                                    1.45%     1 P:z            -7.062  1.00    13 N
                                    1.25%     2 S             -18.450  2.00    12 N
                                    1.23%     1 P:z            -5.239  0.67     3 C
                                   -1.17%     3 S              10.158  0.00     2 C
                                    1.13%     3 S              40.869  0.00     9 H
                                    1.12%     3 S              40.869  0.00    11 H

 Energy gradients wrt nuclear displacements
 ==========================================

     Atom      Cartesian (a.u./angstrom)
                 X         Y         Z
 ----------------------------------------
     1 C    -0.000079  0.000046 -0.000039
     2 C     0.000041 -0.000025  0.000048
     3 F    -0.000100  0.000003 -0.000110
     4 H     0.000078 -0.000003  0.000096
     5 C    -0.000099 -0.000026  0.000077
     6 H    -0.000207  0.000030  0.000038
     7 H    -0.000104  0.000021  0.000135
     8 H    -0.000087  0.000016  0.000019
     9 N     0.000086 -0.000003 -0.000038
    10 O     0.000162 -0.000027 -0.000114
    11 O     0.000118 -0.000019  0.000027
    12 N     0.000085  0.000013 -0.000051
    13 H     0.000057 -0.000015 -0.000106
    14 H     0.000157 -0.000020 -0.000021
    15 H    -0.000108  0.000009  0.000039
 ----------------------------------------



 =======================================================================
 Electrostatic potential at the Nuclei due to electrons and other nuclei
 =======================================================================
  
         Atom                  Potential
         ----                  ---------
     1)   C                  14.67791445
     2)   C                  14.68446662
     3)   F                  26.64940991
     4)   H                   1.06101583
     5)   C                  14.77362233
     6)   H                   1.09735140
     7)   H                   1.09025996
     8)   H                   1.10006634
     9)   N                  18.20546339
    10)   O                  22.36251483
    11)   O                  22.36570608
    12)   N                  18.39209446
    13)   H                   1.02336043
    14)   H                   1.01934528
    15)   H                   1.08054540
 Mulliken charges used for AMS results%charges...


    =====================
     CALCULATION RESULTS
    =====================

Energy (hartree)            -2.98299719

Gradients (hartree/bohr)
  Index   Atom            d/dx            d/dy            d/dz
      1      C   -0.0000417369    0.0000241308   -0.0000207145
      2      C    0.0000216586   -0.0000131880    0.0000256131
      3      F   -0.0000528150    0.0000016186   -0.0000581154
      4      H    0.0000411290   -0.0000018226    0.0000505768
      5      C   -0.0000521493   -0.0000140058    0.0000407113
      6      H   -0.0001094690    0.0000161102    0.0000201870
      7      H   -0.0000551690    0.0000110759    0.0000714675
      8      H   -0.0000461811    0.0000084978    0.0000103101
      9      N    0.0000453303   -0.0000017369   -0.0000199386
     10      O    0.0000859162   -0.0000141879   -0.0000601500
     11      O    0.0000626212   -0.0000100183    0.0000142601
     12      N    0.0000448083    0.0000070037   -0.0000271224
     13      H    0.0000302533   -0.0000080909   -0.0000561421
     14      H    0.0000828741   -0.0000103413   -0.0000113710
     15      H   -0.0000570707    0.0000049549    0.0000204280


--------------
Atomic charges
--------------
  Index   Atom    Charge
      1      C    0.6400
      2      C    0.3902
      3      F   -0.4527
      4      H   -0.1318
      5      C    0.6636
      6      H   -0.2121
      7      H   -0.2083
      8      H   -0.1712
      9      N    0.5245
     10      O   -0.3752
     11      O   -0.3981
     12      N   -0.0265
     13      H   -0.0102
     14      H   -0.0477
     15      H   -0.1844


Dipole moment vector    (Debye):    -2.52268125   -2.14532038   -0.77488671
              magnitude (Debye):     3.40099539


-----------------------
Molecular orbitals info
-----------------------
n orbitals:              285
n spin:                    1

Note: only printing virtual orbitals with
      energy smaller than HOMO + 100. eV

HOMO (eV):              -6.4077
LUMO (eV):              -3.1068
HOMO-LUMO gap (eV):      3.3009

   Index   Energy (eV)    Occupation
     178       93.1985         0.000       
     177       92.9519         0.000       
     176       92.0974         0.000       
     175       91.3348         0.000       
     174       90.7650         0.000       
     173       90.3169         0.000       
     172       89.9701         0.000       
     171       87.8923         0.000       
     170       87.2844         0.000       
     169       86.7274         0.000       
     168       85.2012         0.000       
     167       83.9108         0.000       
     166       83.1043         0.000       
     165       82.4076         0.000       
     164       81.3018         0.000       
     163       81.0202         0.000       
     162       80.2303         0.000       
     161       79.7135         0.000       
     160       79.0720         0.000       
     159       77.8454         0.000       
     158       77.3457         0.000       
     157       76.8367         0.000       
     156       76.1634         0.000       
     155       75.6051         0.000       
     154       73.6096         0.000       
     153       71.9031         0.000       
     152       71.6608         0.000       
     151       70.9879         0.000       
     150       69.9194         0.000       
     149       68.3832         0.000       
     148       67.8975         0.000       
     147       66.1397         0.000       
     146       64.9203         0.000       
     145       64.0320         0.000       
     144       63.7797         0.000       
     143       62.4953         0.000       
     142       60.7588         0.000       
     141       60.3100         0.000       
     140       59.4607         0.000       
     139       58.5943         0.000       
     138       58.2320         0.000       
     137       57.9661         0.000       
     136       56.8758         0.000       
     135       56.2584         0.000       
     134       55.8936         0.000       
     133       55.5094         0.000       
     132       54.3036         0.000       
     131       53.8516         0.000       
     130       52.7392         0.000       
     129       51.8962         0.000       
     128       51.7964         0.000       
     127       50.4284         0.000       
     126       50.3162         0.000       
     125       49.1606         0.000       
     124       48.3264         0.000       
     123       47.4884         0.000       
     122       47.0733         0.000       
     121       45.6443         0.000       
     120       45.0280         0.000       
     119       44.7899         0.000       
     118       44.0855         0.000       
     117       42.7323         0.000       
     116       42.2090         0.000       
     115       41.3596         0.000       
     114       40.1158         0.000       
     113       39.4445         0.000       
     112       39.3591         0.000       
     111       38.0592         0.000       
     110       37.5919         0.000       
     109       36.8529         0.000       
     108       36.1447         0.000       
     107       35.8678         0.000       
     106       35.4514         0.000       
     105       34.9046         0.000       
     104       34.3129         0.000       
     103       33.8420         0.000       
     102       33.7012         0.000       
     101       33.5236         0.000       
     100       32.3746         0.000       
      99       31.8777         0.000       
      98       31.5020         0.000       
      97       30.5433         0.000       
      96       30.3325         0.000       
      95       29.4981         0.000       
      94       29.2020         0.000       
      93       28.9848         0.000       
      92       28.1977         0.000       
      91       27.5352         0.000       
      90       27.0535         0.000       
      89       26.4424         0.000       
      88       25.8119         0.000       
      87       25.4002         0.000       
      86       24.5779         0.000       
      85       24.1246         0.000       
      84       22.7429         0.000       
      83       22.6640         0.000       
      82       21.8251         0.000       
      81       20.9234         0.000       
      80       20.6815         0.000       
      79       19.8299         0.000       
      78       19.3254         0.000       
      77       18.7549         0.000       
      76       17.7772         0.000       
      75       17.4729         0.000       
      74       17.0174         0.000       
      73       15.3703         0.000       
      72       14.2884         0.000       
      71       13.8225         0.000       
      70       13.5083         0.000       
      69       12.5886         0.000       
      68       12.4715         0.000       
      67       11.6384         0.000       
      66       11.1341         0.000       
      65       11.0491         0.000       
      64       10.5682         0.000       
      63       10.3312         0.000       
      62       10.2969         0.000       
      61        9.7404         0.000       
      60        9.4215         0.000       
      59        9.2371         0.000       
      58        8.8678         0.000       
      57        8.3997         0.000       
      56        8.1297         0.000       
      55        7.4110         0.000       
      54        7.1971         0.000       
      53        6.4915         0.000       
      52        5.9884         0.000       
      51        5.9663         0.000       
      50        5.6136         0.000       
      49        5.3254         0.000       
      48        4.8619         0.000       
      47        4.3430         0.000       
      46        3.9365         0.000       
      45        3.4166         0.000       
      44        3.1163         0.000       
      43        2.7516         0.000       
      42        2.1240         0.000       
      41        1.8647         0.000       
      40        1.5242         0.000       
      39        1.1464         0.000       
      38        0.7034         0.000       
      37        0.4797         0.000       
      36        0.1792         0.000       
      35       -0.1874         0.000       
      34       -0.6583         0.000       
      33       -3.1068         0.000 < LUMO
      32       -6.4077         2.000 < HOMO
      31       -7.0268         2.000       
      30       -7.7105         2.000       
      29       -7.8348         2.000       
      28       -8.6030         2.000       
      27       -8.6672         2.000       
      26       -9.8857         2.000       
      25       -9.9215         2.000       
      24      -10.6903         2.000       
      23      -11.0720         2.000       
      22      -11.9271         2.000       
      21      -12.3687         2.000       
      20      -12.6548         2.000       
      19      -12.8551         2.000       
      18      -13.3801         2.000       
      17      -13.8006         2.000       
      16      -14.8575         2.000       
      15      -16.3334         2.000       
      14      -18.1227         2.000       
      13      -19.9034         2.000       
      12      -23.3339         2.000       
      11      -26.3165         2.000       
      10      -29.8440         2.000       
       9      -30.4990         2.000       
       8     -270.3365         2.000       
       7     -272.8008         2.000       
       6     -272.9242         2.000       
       5     -382.1645         2.000       
       4     -387.3910         2.000       
       3     -512.5653         2.000       
       2     -512.6545         2.000       
       1     -661.4219         2.000       

AMS application finished. Exiting.
NORMAL TERMINATION
     Total cpu time:    1496.35
  Total system time:       7.62
 Total elapsed time:    1508.71
NORMAL TERMINATION
