16
Coordinates from ORCA-job ts_scan Relaxed Surface Scan Step 1 E -59.866845030773
  C      -0.784005      1.313105      0.218663
  C      -1.280047      0.112161     -0.080332
  N      -2.355980     -0.122385     -0.916852
  O      -0.822799     -1.067321      0.392821
  C       0.473915     -1.077250      0.975032
  C       1.495386     -0.770756     -0.065819
  C       2.047604      0.420031     -0.210766
  H      -0.055544      1.464506      0.989213
  H      -1.227861      2.189631     -0.228800
  H      -2.269737     -0.965444     -1.458697
  H      -2.637646      0.671768     -1.462684
  H       0.519336     -0.379093      1.811139
  H       0.590359     -2.083047      1.370788
  H       1.685002     -1.549172     -0.796510
  H       2.731590      0.618390     -1.026807
  H       1.890427      1.224874      0.489611
>
16
Coordinates from ORCA-job ts_scan Relaxed Surface Scan Step 2 E -59.864076676317
  C      -0.751541      1.309688      0.235118
  C      -1.260435      0.114531     -0.065212
  N      -2.306166     -0.115226     -0.939891
  O      -0.832272     -1.063484      0.437246
  C       0.475898     -1.090798      0.998986
  C       1.472797     -0.777553     -0.062221
  C       1.970905      0.432613     -0.243455
  H      -0.069474      1.457369      1.048014
  H      -1.161522      2.189299     -0.238555
  H      -2.203630     -0.957617     -1.480330
  H      -2.569150      0.681162     -1.491920
  H       0.540682     -0.400901      1.840717
  H       0.589352     -2.101565      1.381876
  H       1.665510     -1.558644     -0.788830
  H       2.620192      0.641577     -1.084996
  H       1.818853      1.239549      0.453452
>
16
Coordinates from ORCA-job ts_scan Relaxed Surface Scan Step 3 E -59.860599887988
  C      -0.716382      1.305208      0.240146
  C      -1.242655      0.116037     -0.053394
  N      -2.262578     -0.112153     -0.957594
  O      -0.840787     -1.058473      0.477694
  C       0.478095     -1.102939      1.020166
  C       1.450187     -0.779851     -0.059304
  C       1.900653      0.446145     -0.262985
  H      -0.075758      1.451711      1.086446
  H      -1.093177      2.186132     -0.258401
  H      -2.149609     -0.956679     -1.492701
  H      -2.510568      0.684320     -1.516389
  H       0.560287     -0.422193      1.867922
  H       0.588829     -2.118788      1.389452
  H       1.633154     -1.555311     -0.794248
  H       2.511046      0.669832     -1.129926
  H       1.769264      1.247000      0.443115
>
16
Coordinates from ORCA-job ts_scan Relaxed Surface Scan Step 4 E -59.856317573523
  C      -0.679888      1.301718      0.237139
  C      -1.225846      0.118106     -0.043658
  N      -2.223088     -0.111633     -0.971730
  O      -0.847546     -1.050397      0.515466
  C       0.481935     -1.114783      1.038915
  C       1.428861     -0.781198     -0.057423
  C       1.834365      0.459752     -0.272395
  H      -0.077811      1.452095      1.110773
  H      -1.028039      2.181227     -0.284705
  H      -2.104165     -0.962402     -1.495692
  H      -2.454624      0.681579     -1.542133
  H       0.581834     -0.443894      1.892746
  H       0.586804     -2.136224      1.393508
  H       1.589659     -1.544815     -0.809592
  H       2.399050      0.704402     -1.164712
  H       1.738500      1.246464      0.453491
>
16
Coordinates from ORCA-job ts_scan Relaxed Surface Scan Step 5 E -59.851222834989
  C      -0.643896      1.300863      0.230625
  C      -1.209435      0.121834     -0.033820
  N      -2.181504     -0.113433     -0.985891
  O      -0.853478     -1.037538      0.555346
  C       0.488715     -1.126863      1.056147
  C       1.407947     -0.784279     -0.057882
  C       1.767788      0.471957     -0.276027
  H      -0.083835      1.459497      1.130692
  H      -0.962845      2.176243     -0.316610
  H      -2.057829     -0.972728     -1.494700
  H      -2.397728      0.674278     -1.569712
  H       0.610056     -0.465948      1.915058
  H       0.583628     -2.153985      1.396036
  H       1.534624     -1.531246     -0.832778
  H       2.278187      0.744493     -1.192935
  H       1.719606      1.236852      0.476449
>
16
Coordinates from ORCA-job ts_scan Relaxed Surface Scan Step 6 E -59.845371029462
  C      -0.608136      1.303668      0.219766
  C      -1.193047      0.127673     -0.024436
  N      -2.138575     -0.116525     -0.999148
  O      -0.857850     -1.018831      0.595612
  C       0.498797     -1.140309      1.070627
  C       1.389712     -0.789779     -0.059855
  C       1.701379      0.483232     -0.273207
  H      -0.092491      1.477396      1.143925
  H      -0.902503      2.171519     -0.353154
  H      -2.015154     -0.988611     -1.485766
  H      -2.338389      0.662060     -1.600676
  H       0.644424     -0.491261      1.934853
  H       0.576969     -2.173832      1.394033
  H       1.471988     -1.515386     -0.860560
  H       2.149785      0.790426     -1.211483
  H       1.713091      1.218559      0.509467
>
16
Coordinates from ORCA-job ts_scan Relaxed Surface Scan Step 7 E -59.838957379176
  C      -0.573215      1.311555      0.206186
  C      -1.177121      0.136449     -0.013943
  N      -2.091481     -0.120257     -1.012168
  O      -0.862645     -0.991980      0.639769
  C       0.512510     -1.156072      1.081185
  C       1.373202     -0.797519     -0.064473
  C       1.633520      0.494162     -0.265185
  H      -0.107091      1.507946      1.152733
  H      -0.846020      2.167867     -0.394679
  H      -1.977687     -1.011404     -1.465137
  H      -2.271991      0.643798     -1.637676
  H       0.687125     -0.523706      1.952254
  H       0.565655     -2.197133      1.383680
  H       1.404091     -1.497509     -0.891286
  H       2.016802      0.840902     -1.218369
  H       1.714345      1.192898      0.547108
>
16
Coordinates from ORCA-job ts_scan Relaxed Surface Scan Step 8 E -59.832351310994
  C      -0.539246      1.324558      0.191711
  C      -1.163353      0.148732     -0.000782
  N      -2.037618     -0.124917     -1.025334
  O      -0.871919     -0.954343      0.692380
  C       0.528648     -1.174860      1.085874
  C       1.356300     -0.804832     -0.072017
  C       1.564172      0.507257     -0.252866
  H      -0.130174      1.551352      1.158672
  H      -0.790248      2.164876     -0.441049
  H      -1.951130     -1.042944     -1.426734
  H      -2.195239      0.616402     -1.682997
  H       0.737422     -0.568886      1.967692
  H       0.547978     -2.224950      1.358274
  H       1.334945     -1.475770     -0.923127
  H       1.889422      0.892201     -1.212746
  H       1.720040      1.166125      0.583047
>
16
Coordinates from ORCA-job ts_scan Relaxed Surface Scan Step 9 E -59.826138436509
  C      -0.505605      1.341674      0.175188
  C      -1.154345      0.163114      0.015827
  N      -1.974163     -0.132844     -1.039356
  O      -0.890521     -0.901219      0.758224
  C       0.549966     -1.198127      1.082734
  C       1.338604     -0.809466     -0.081494
  C       1.495918      0.525844     -0.235092
  H      -0.165504      1.607623      1.160139
  H      -0.734324      2.160933     -0.493423
  H      -1.948293     -1.083074     -1.364867
  H      -2.107811      0.575644     -1.736374
  H       0.792832     -0.630611      1.980130
  H       0.520967     -2.257733      1.311327
  H       1.269136     -1.447518     -0.955437
  H       1.780875      0.943145     -1.194041
  H       1.732269      1.142614      0.616513
>
16
Coordinates from ORCA-job ts_scan Relaxed Surface Scan Step 10 E -59.869896255412
  C      -0.455616      1.520334     -0.373409
  C      -1.457101      0.621820      0.238149
  N      -1.988332     -0.320858     -0.590120
  O      -1.778408      0.698751      1.407276
  C       1.038746     -1.771503      0.492413
  C       1.413171     -0.699024     -0.195614
  C       1.331634      0.664823      0.322176
  H      -0.440840      2.504759      0.075598
  H      -0.388336      1.521909     -1.455069
  H      -2.517582     -1.054046     -0.151771
  H      -1.545513     -0.530357     -1.464084
  H       0.652657     -1.685764      1.500833
  H       1.112483     -2.763688      0.067935
  H       1.789654     -0.820895     -1.205958
  H       2.068749      1.361830     -0.057859
  H       1.164634      0.751910      1.389501
