
 *******************************************************************************
 *                                                                             *
 *  --------------------------------                                           *
 *   Amsterdam Modeling Suite (AMS)              2026.103                      *
 *  --------------------------------                                           *
 *                                               r260501 2026-05-01 873454b5   *
 *                                                                             *
 *                                                                             *
 *                              =================                              *
 *                              |               |                              *
 *                              |     A M S     |                              *
 *                              |               |                              *
 *                              =================                              *
 *                                                                             *
 *                                                                             *
 *   Online information and documentation:  https://www.scm.com/support/       *
 *   E-mail:  support@scm.com   info@scm.com                                   *
 *                                                                             *
 *   Scientific publications using AMS results must be properly referenced     *
 *   See the User Manuals (or the web site) for recommended citations          *
 *   The terms and conditions of the End User License Agreement apply to       *
 *   the use of AMS, https://www.scm.com/license-terms/                        *
 *                                                                             *
 **********************  x86_64_linux_intel / intelmpi  ************************
 
 Licensed to: Jong-June Jeon / University of Seoul 2026-05-13 16:10:32
 SCM User ID: u30731
  
 AMS 2026.103  RunTime: May23-2026 13:36:22  ShM Nodes: 1  Procs: 1

 AMS jobname: frag2_opt
 AMS jobid  : 1428795843

 Start   directory: /gpfs/tmp_cpu2/yeseo1ee_plams/cn_batch/plams_cn/cn_eda/frag2_opt/
 Results directory: /gpfs/tmp_cpu2/yeseo1ee_plams/cn_batch/plams_cn/cn_eda/frag2_opt/
 Scratch directory: /tmp/amstmp_frag2_opt_kid0.1428795843/

 RNG seed: -41579010 -1712827143 379583181 -774756420 -1587616639 625860143 409702596 1313965815



                      ************************************************************************
                      *  ADF 2026.103  RunTime: May23-2026 13:36:22  ShM Nodes: 1  Procs: 1  *
                      ************************************************************************
  

       ****************************
       * SINGLE POINT CALCULATION *
       ****************************

--------
Geometry
--------
Formula: C3H5
Atoms
  Index Symbol   x (angstrom)   y (angstrom)   z (angstrom)
      1      C     1.06416971     0.48459893     1.59117477
      2      C     1.26107747     0.41432059     0.21923028
      3      C     1.28090788    -0.75463487    -0.52868638
      4      H     0.90499905    -0.41619977     2.18141740
      5      H     1.05577743     1.43630267     2.11435010
      6      H     1.40589173     1.35563490    -0.31655427
      7      H     1.43558785    -0.73674756    -1.60347942
      8      H     1.13735782    -1.72487797    -0.05632787

Total System Charge              0.00000


----------------
ADF Engine Input
----------------
 
   basis
     core None
     type TZ2P
   End
   numericalquality Good
   relativity
     level Scalar
   End
   scf
     mixing 0.05
   End
   spinpolarization -1
   symmetry NOSYM
   unrestricted yes
   xc
     dispersion Grimme3 BJDAMP
     gga BLYP
   End
 

 Title: *** (NO TITLE) ***

 *** adf ***



 ===========================
 A T T A C H E D   F I L E S
 ===========================
  



 ===============================
 M O D E L   P A R A M E T E R S
 ===============================
  
 DENSITY FUNCTIONAL POTENTIAL (scf)
    LDA:                               Exchange only                           == Not Default ==
    Gradient Corrections:              Becke88 LYP                             == Not Default ==

 SPIN  (restricted / unrestr.)
    Molecule:                          UNrestricted                            == Not Default ==
    Fragments:                         Restricted                               

 OTHER ASPECTS
    Relativistic Corrections:          scalar (ZORA,MAPA)                       

    Nuclear Charge Density Model:      Point Charge Nuclei                      
    Core Treatment:                    Frozen Orbital(s)                        

    Hyperfine or Zeeman Interaction:   ---                                      

 Settings for Grimme D3 dispersion correction

      damping                        BJ
      s6                          1.000
      s8                          2.700
      a1                          0.430
      a2                          4.236

 Other (technical) parameters

      alpha                      14.000
      version                         4
 


 Fragment File(s)
 ----------------
 C:
         file : /gpfs/tmp_cpu2/yeseo1ee_plams/cn_batch/plams_cn/cn_eda/frag2_opt/t21.7F7683F6.C
         jobid: 0
         title: Carbon (TZ2P)
 H:
         file : /gpfs/tmp_cpu2/yeseo1ee_plams/cn_batch/plams_cn/cn_eda/frag2_opt/t21.5DE63076.H
         jobid: 0
         title: Hydrogen (TZ2P)



 ===============
 G E O M E T R Y  ***  3D  Molecule  ***
 ===============
  

 ATOMS
 =====                            X Y Z                    CHARGE
                                (Angstrom)             Nucl     +Core       At.Mass
                       --------------------------    ----------------       -------
    1  C               1.0642    0.4846    1.5912      6.00      6.00       12.0000
    2  C               1.2611    0.4143    0.2192      6.00      6.00       12.0000
    3  C               1.2809   -0.7546   -0.5287      6.00      6.00       12.0000
    4  H               0.9050   -0.4162    2.1814      1.00      1.00        1.0078
    5  H               1.0558    1.4363    2.1144      1.00      1.00        1.0078
    6  H               1.4059    1.3556   -0.3166      1.00      1.00        1.0078
    7  H               1.4356   -0.7367   -1.6035      1.00      1.00        1.0078
    8  H               1.1374   -1.7249   -0.0563      1.00      1.00        1.0078


 FRAGMENTS
 =========                                     Atoms in this Fragment     Cart. coord.s (Angstrom)
                                               -------------------------------------------------------
    1  C                                                 1  C            1.0642    0.4846    1.5912
    2  C                                                 2  C            1.2611    0.4143    0.2192
    3  C                                                 3  C            1.2809   -0.7546   -0.5287
    4  H                                                 4  H            0.9050   -0.4162    2.1814
    5  H                                                 5  H            1.0558    1.4363    2.1144
    6  H                                                 6  H            1.4059    1.3556   -0.3166
    7  H                                                 7  H            1.4356   -0.7367   -1.6035
    8  H                                                 8  H            1.1374   -1.7249   -0.0563


 Interatomic Distance Matrix (Angstrom)
 --------------------------------------

   1)     0.000
   2)     1.388   0.000
   3)     2.465   1.388   0.000
   4)     1.089   2.160   2.757   0.000
   5)     1.086   2.163   3.440   1.860   0.000
   6)     2.125   1.093   2.125   3.103   2.457   0.000
   7)     3.440   2.163   1.086   3.835   4.323   2.457   0.000
   8)     2.757   2.160   1.089   2.603   3.836   3.103   1.860   0.000

 Min. Distance =    1.0860
 Max. Distance =    4.3230



 =====================================
 S Y M M E T R Y ,   E L E C T R O N S
 =====================================
  
 Symmetry: NOSYM

 Irreducible Representations, including subspecies
 -------------------------------------------------
 A


 Configuration of Valence Electrons
 ==================================
 ( determined in the SCF procedure )

 Total:   11 (Spin-A)  + 12 (Spin-B)

 Net Charge: 0 (Nuclei minus Electrons)
 Spin polar: -1 (Spin_A minus Spin_B electrons)

 Aufbau principle for MO occupations will be applied through SCF cycle no.     150
 Thereafter, the program will assign electrons to MOs that are spatially
 similar to the occupied MOs in a "reference" cycle ("KeepOrbitals").
 The reference cycle is always the PREVIOUS cycle: it will evolve with
 the SCF procedure.
 ***************************************************************************************************



                                      ****************************************
                                      *  B U I L D : (Fragments, Functions)  *
                                      ****************************************
  



 =======
 S F O s  ***  (Symmetrized Fragment Orbitals)  ***
 =======
  
 SFOs are linear combinations of (valence) Fragment Orbitals (FOs), such that the SFOs transform as the
 irreducible representations of the (molecular) symmetry group. Each SFO is therefore characterized by
 an irrep of the molecule and by a few (or only one) generating FOs.
 The SFOs constitute a symmetry-adapted basis for the Fock matrix. The MO eigenvector coefficients in
 this basis provide a direct interpretation of the MOs in terms of Frontier Orbital Theory.

 The SFOs are combined with auxiliary Core Functions (CFs) to ensure orthogonalization on the (frozen)
 Core Orbitals (COs). The Core-orthogonalized SFOs (CSFOs) constitute the true Fock basis.

 The FOs, and hence also the (C)SFOs are combinations of the elementary basis functions (BAS). The basis
 functions that participate in the description of the SFOs depend on the irrep. The indices of the
 involved functions are printed below for each irrep.
 (The complete list of primitive basis functions is printed in another section)

 Total nr. of (C)SFOs (summation over all irreps) :   133

 NOTE: a (C)SFO that is defined as a combination of more than one FO is usually NOT normalized.



                                       === A ===
 Nr. of SFOs :  133
 Cartesian basis functions that participate in this irrep (total number =   150) :
      1     2     3     4     5     6     9    12     7    10
     13     8    11    14    15    16    17    18    19    20
     21    22    23    24    25    26    27    28    29    30
     31    32    33    34    35    36    39    42    37    40
     43    38    41    44    45    46    47    48    49    50
     51    52    53    54    55    56    57    58    59    60
     61    62    63    64    65    66    69    72    67    70
     73    68    71    74    75    76    77    78    79    80
     81    82    83    84    85    86    87    88    89    90
     91    92    93    94    95    96    97    98    99   100
    101   102   103   104   105   106   107   108   109   110
    111   112   113   114   115   116   117   118   119   120
    121   122   123   124   125   126   127   128   129   130
    131   132   133   134   135   136   137   138   139   140
    141   142   143   144   145   146   147   148   149   150

    SFO  (index         Fragment          Generating    Expansion in Fragment Orbitals
  indx  incl.CFs)   Occup   Orb.Energy   FragmentType  Coeff.   Orbital     on Fragment
 --------------------------------------------------------------------------------------
     1       1      2.000     -10.066 au  C             1.00      1 S               1
                        (    -273.921 eV)
     2       2      2.000      -0.501 au  C             1.00      2 S               1
                        (     -13.620 eV)
     3       3       --         0.373 au  C             1.00      3 S               1
                        (      10.158 eV)
     4       4       --         5.405 au  C             1.00      4 S               1
                        (     147.073 eV)
     5       5       --        49.848 au  C             1.00      5 S               1
                        (    1356.422 eV)
     6       6      0.667      -0.193 au  C             1.00      1 P:x             1
                        (      -5.239 eV)
     7       7       --         0.169 au  C             1.00      2 P:x             1
                        (       4.589 eV)
     8       8       --         2.013 au  C             1.00      3 P:x             1
                        (      54.789 eV)
     9       9      0.667      -0.193 au  C             1.00      1 P:y             1
                        (      -5.239 eV)
    10      10       --         0.169 au  C             1.00      2 P:y             1
                        (       4.589 eV)
    11      11       --         2.013 au  C             1.00      3 P:y             1
                        (      54.789 eV)
    12      12      0.667      -0.193 au  C             1.00      1 P:z             1
                        (      -5.239 eV)
    13      13       --         0.169 au  C             1.00      2 P:z             1
                        (       4.589 eV)
    14      14       --         2.013 au  C             1.00      3 P:z             1
                        (      54.789 eV)
    15      15       --         1.243 au  C             1.00      1 D:z2            1
                        (      33.824 eV)
    16      16       --         1.243 au  C             1.00      1 D:x2-y2         1
                        (      33.824 eV)
    17      17       --         1.243 au  C             1.00      1 D:xy            1
                        (      33.824 eV)
    18      18       --         1.243 au  C             1.00      1 D:xz            1
                        (      33.824 eV)
    19      19       --         1.243 au  C             1.00      1 D:yz            1
                        (      33.824 eV)
    20      20       --         4.016 au  C             1.00      1 F:z3            1
                        (     109.271 eV)
    21      21       --         4.016 au  C             1.00      1 F:z             1
                        (     109.271 eV)
    22      22       --         4.016 au  C             1.00      1 F:xyz           1
                        (     109.271 eV)
    23      23       --         4.016 au  C             1.00      1 F:z2x           1
                        (     109.271 eV)
    24      24       --         4.016 au  C             1.00      1 F:z2y           1
                        (     109.271 eV)
    25      25       --         4.016 au  C             1.00      1 F:x             1
                        (     109.271 eV)
    26      26       --         4.016 au  C             1.00      1 F:y             1
                        (     109.271 eV)
    27      27      2.000     -10.066 au  C             1.00      1 S               2
                        (    -273.921 eV)
    28      28      2.000      -0.501 au  C             1.00      2 S               2
                        (     -13.620 eV)
    29      29       --         0.373 au  C             1.00      3 S               2
                        (      10.158 eV)
    30      30       --         5.405 au  C             1.00      4 S               2
                        (     147.073 eV)
    31      31       --        49.848 au  C             1.00      5 S               2
                        (    1356.422 eV)
    32      32      0.667      -0.193 au  C             1.00      1 P:x             2
                        (      -5.239 eV)
    33      33       --         0.169 au  C             1.00      2 P:x             2
                        (       4.589 eV)
    34      34       --         2.013 au  C             1.00      3 P:x             2
                        (      54.789 eV)
    35      35      0.667      -0.193 au  C             1.00      1 P:y             2
                        (      -5.239 eV)
    36      36       --         0.169 au  C             1.00      2 P:y             2
                        (       4.589 eV)
    37      37       --         2.013 au  C             1.00      3 P:y             2
                        (      54.789 eV)
    38      38      0.667      -0.193 au  C             1.00      1 P:z             2
                        (      -5.239 eV)
    39      39       --         0.169 au  C             1.00      2 P:z             2
                        (       4.589 eV)
    40      40       --         2.013 au  C             1.00      3 P:z             2
                        (      54.789 eV)
    41      41       --         1.243 au  C             1.00      1 D:z2            2
                        (      33.824 eV)
    42      42       --         1.243 au  C             1.00      1 D:x2-y2         2
                        (      33.824 eV)
    43      43       --         1.243 au  C             1.00      1 D:xy            2
                        (      33.824 eV)
    44      44       --         1.243 au  C             1.00      1 D:xz            2
                        (      33.824 eV)
    45      45       --         1.243 au  C             1.00      1 D:yz            2
                        (      33.824 eV)
    46      46       --         4.016 au  C             1.00      1 F:z3            2
                        (     109.271 eV)
    47      47       --         4.016 au  C             1.00      1 F:z             2
                        (     109.271 eV)
    48      48       --         4.016 au  C             1.00      1 F:xyz           2
                        (     109.271 eV)
    49      49       --         4.016 au  C             1.00      1 F:z2x           2
                        (     109.271 eV)
    50      50       --         4.016 au  C             1.00      1 F:z2y           2
                        (     109.271 eV)
    51      51       --         4.016 au  C             1.00      1 F:x             2
                        (     109.271 eV)
    52      52       --         4.016 au  C             1.00      1 F:y             2
                        (     109.271 eV)
    53      53      2.000     -10.066 au  C             1.00      1 S               3
                        (    -273.921 eV)
    54      54      2.000      -0.501 au  C             1.00      2 S               3
                        (     -13.620 eV)
    55      55       --         0.373 au  C             1.00      3 S               3
                        (      10.158 eV)
    56      56       --         5.405 au  C             1.00      4 S               3
                        (     147.073 eV)
    57      57       --        49.848 au  C             1.00      5 S               3
                        (    1356.422 eV)
    58      58      0.667      -0.193 au  C             1.00      1 P:x             3
                        (      -5.239 eV)
    59      59       --         0.169 au  C             1.00      2 P:x             3
                        (       4.589 eV)
    60      60       --         2.013 au  C             1.00      3 P:x             3
                        (      54.789 eV)
    61      61      0.667      -0.193 au  C             1.00      1 P:y             3
                        (      -5.239 eV)
    62      62       --         0.169 au  C             1.00      2 P:y             3
                        (       4.589 eV)
    63      63       --         2.013 au  C             1.00      3 P:y             3
                        (      54.789 eV)
    64      64      0.667      -0.193 au  C             1.00      1 P:z             3
                        (      -5.239 eV)
    65      65       --         0.169 au  C             1.00      2 P:z             3
                        (       4.589 eV)
    66      66       --         2.013 au  C             1.00      3 P:z             3
                        (      54.789 eV)
    67      67       --         1.243 au  C             1.00      1 D:z2            3
                        (      33.824 eV)
    68      68       --         1.243 au  C             1.00      1 D:x2-y2         3
                        (      33.824 eV)
    69      69       --         1.243 au  C             1.00      1 D:xy            3
                        (      33.824 eV)
    70      70       --         1.243 au  C             1.00      1 D:xz            3
                        (      33.824 eV)
    71      71       --         1.243 au  C             1.00      1 D:yz            3
                        (      33.824 eV)
    72      72       --         4.016 au  C             1.00      1 F:z3            3
                        (     109.271 eV)
    73      73       --         4.016 au  C             1.00      1 F:z             3
                        (     109.271 eV)
    74      74       --         4.016 au  C             1.00      1 F:xyz           3
                        (     109.271 eV)
    75      75       --         4.016 au  C             1.00      1 F:z2x           3
                        (     109.271 eV)
    76      76       --         4.016 au  C             1.00      1 F:z2y           3
                        (     109.271 eV)
    77      77       --         4.016 au  C             1.00      1 F:x             3
                        (     109.271 eV)
    78      78       --         4.016 au  C             1.00      1 F:y             3
                        (     109.271 eV)
    79      79      1.000      -0.240 au  H             1.00      1 S               4
                        (      -6.532 eV)
    80      80       --         0.088 au  H             1.00      2 S               4
                        (       2.394 eV)
    81      81       --         1.502 au  H             1.00      3 S               4
                        (      40.869 eV)
    82      82       --         0.406 au  H             1.00      1 P:x             4
                        (      11.051 eV)
    83      83       --         0.406 au  H             1.00      1 P:y             4
                        (      11.051 eV)
    84      84       --         0.406 au  H             1.00      1 P:z             4
                        (      11.051 eV)
    85      85       --         2.569 au  H             1.00      1 D:z2            4
                        (      69.917 eV)
    86      86       --         2.569 au  H             1.00      1 D:x2-y2         4
                        (      69.917 eV)
    87      87       --         2.569 au  H             1.00      1 D:xy            4
                        (      69.917 eV)
    88      88       --         2.569 au  H             1.00      1 D:xz            4
                        (      69.917 eV)
    89      89       --         2.569 au  H             1.00      1 D:yz            4
                        (      69.917 eV)
    90      90      1.000      -0.240 au  H             1.00      1 S               5
                        (      -6.532 eV)
    91      91       --         0.088 au  H             1.00      2 S               5
                        (       2.394 eV)
    92      92       --         1.502 au  H             1.00      3 S               5
                        (      40.869 eV)
    93      93       --         0.406 au  H             1.00      1 P:x             5
                        (      11.051 eV)
    94      94       --         0.406 au  H             1.00      1 P:y             5
                        (      11.051 eV)
    95      95       --         0.406 au  H             1.00      1 P:z             5
                        (      11.051 eV)
    96      96       --         2.569 au  H             1.00      1 D:z2            5
                        (      69.917 eV)
    97      97       --         2.569 au  H             1.00      1 D:x2-y2         5
                        (      69.917 eV)
    98      98       --         2.569 au  H             1.00      1 D:xy            5
                        (      69.917 eV)
    99      99       --         2.569 au  H             1.00      1 D:xz            5
                        (      69.917 eV)
   100     100       --         2.569 au  H             1.00      1 D:yz            5
                        (      69.917 eV)
   101     101      1.000      -0.240 au  H             1.00      1 S               6
                        (      -6.532 eV)
   102     102       --         0.088 au  H             1.00      2 S               6
                        (       2.394 eV)
   103     103       --         1.502 au  H             1.00      3 S               6
                        (      40.869 eV)
   104     104       --         0.406 au  H             1.00      1 P:x             6
                        (      11.051 eV)
   105     105       --         0.406 au  H             1.00      1 P:y             6
                        (      11.051 eV)
   106     106       --         0.406 au  H             1.00      1 P:z             6
                        (      11.051 eV)
   107     107       --         2.569 au  H             1.00      1 D:z2            6
                        (      69.917 eV)
   108     108       --         2.569 au  H             1.00      1 D:x2-y2         6
                        (      69.917 eV)
   109     109       --         2.569 au  H             1.00      1 D:xy            6
                        (      69.917 eV)
   110     110       --         2.569 au  H             1.00      1 D:xz            6
                        (      69.917 eV)
   111     111       --         2.569 au  H             1.00      1 D:yz            6
                        (      69.917 eV)
   112     112      1.000      -0.240 au  H             1.00      1 S               7
                        (      -6.532 eV)
   113     113       --         0.088 au  H             1.00      2 S               7
                        (       2.394 eV)
   114     114       --         1.502 au  H             1.00      3 S               7
                        (      40.869 eV)
   115     115       --         0.406 au  H             1.00      1 P:x             7
                        (      11.051 eV)
   116     116       --         0.406 au  H             1.00      1 P:y             7
                        (      11.051 eV)
   117     117       --         0.406 au  H             1.00      1 P:z             7
                        (      11.051 eV)
   118     118       --         2.569 au  H             1.00      1 D:z2            7
                        (      69.917 eV)
   119     119       --         2.569 au  H             1.00      1 D:x2-y2         7
                        (      69.917 eV)
   120     120       --         2.569 au  H             1.00      1 D:xy            7
                        (      69.917 eV)
   121     121       --         2.569 au  H             1.00      1 D:xz            7
                        (      69.917 eV)
   122     122       --         2.569 au  H             1.00      1 D:yz            7
                        (      69.917 eV)
   123     123      1.000      -0.240 au  H             1.00      1 S               8
                        (      -6.532 eV)
   124     124       --         0.088 au  H             1.00      2 S               8
                        (       2.394 eV)
   125     125       --         1.502 au  H             1.00      3 S               8
                        (      40.869 eV)
   126     126       --         0.406 au  H             1.00      1 P:x             8
                        (      11.051 eV)
   127     127       --         0.406 au  H             1.00      1 P:y             8
                        (      11.051 eV)
   128     128       --         0.406 au  H             1.00      1 P:z             8
                        (      11.051 eV)
   129     129       --         2.569 au  H             1.00      1 D:z2            8
                        (      69.917 eV)
   130     130       --         2.569 au  H             1.00      1 D:x2-y2         8
                        (      69.917 eV)
   131     131       --         2.569 au  H             1.00      1 D:xy            8
                        (      69.917 eV)
   132     132       --         2.569 au  H             1.00      1 D:xz            8
                        (      69.917 eV)
   133     133       --         2.569 au  H             1.00      1 D:yz            8
                        (      69.917 eV)



 ================================
 (Slater-type)  F U N C T I O N S  ***  (Basis and Fit)  ***
 ================================
  

 Atom Type    1  (C)
 ==============

 Valence Basis Sets:  10
 -----------------------
   1 S    7.680000
   1 S    5.000000
   2 S    1.280000
   2 S    2.100000
   2 S    4.600000
   2 P    0.820000
   2 P    1.480000
   2 P    2.940000
   3 D    2.200000
   4 F    3.300000

 Atom Type    2  (H)
 ==============

 Valence Basis Sets:   5
 -----------------------
   1 S    0.690000
   1 S    0.920000
   1 S    1.580000
   2 P    1.250000
   3 D    2.500000


 BAS: List of all Elementary Cartesian Basis Functions
 =====================================================

 The numbering in the list below (to the right of the function characteristics) is referred
 to in print-outs of MO eigenvectors and Mulliken populations in the BAS representation
 (as contrasted to the SFO representation).

 Notes:
 1. The functions are characterized by a polynomial prefactor (powers of x,y,z and r) and
    an exponential decay factor alpha.
 2. Since the basis sets are specific for an atom TYPE, the individual functions occur on
    all atoms of that type.
 3. The word 'Core' in the left margin signals that it is a Core Function (CF) : not a
    degree of freedom in the valence set, but only used to ensure orthogonalization of
    the other valence basis functions on the frozen Core Orbitals.


 (power of) X  Y  Z  R     Alpha  on Atom
            ==========     =====     ==========

 C                                    1    2    3
                                  ---------------------------------------------------------------------------
            0  0  0  0     7.680      1   31   61
            0  0  0  0     5.000      2   32   62
            0  0  0  1     1.280      3   33   63
            0  0  0  1     2.100      4   34   64
            0  0  0  1     4.600      5   35   65
            1  0  0  0     0.820      6   36   66
            0  1  0  0     0.820      7   37   67
            0  0  1  0     0.820      8   38   68
            1  0  0  0     1.480      9   39   69
            0  1  0  0     1.480     10   40   70
            0  0  1  0     1.480     11   41   71
            1  0  0  0     2.940     12   42   72
            0  1  0  0     2.940     13   43   73
            0  0  1  0     2.940     14   44   74
            2  0  0  0     2.200     15   45   75
            1  1  0  0     2.200     16   46   76
            1  0  1  0     2.200     17   47   77
            0  2  0  0     2.200     18   48   78
            0  1  1  0     2.200     19   49   79
            0  0  2  0     2.200     20   50   80
            3  0  0  0     3.300     21   51   81
            2  1  0  0     3.300     22   52   82
            2  0  1  0     3.300     23   53   83
            1  2  0  0     3.300     24   54   84
            1  1  1  0     3.300     25   55   85
            1  0  2  0     3.300     26   56   86
            0  3  0  0     3.300     27   57   87
            0  2  1  0     3.300     28   58   88
            0  1  2  0     3.300     29   59   89
            0  0  3  0     3.300     30   60   90

 H                                    4    5    6    7    8
                                  ---------------------------------------------------------------------------
            0  0  0  0     0.690     91  103  115  127  139
            0  0  0  0     0.920     92  104  116  128  140
            0  0  0  0     1.580     93  105  117  129  141
            1  0  0  0     1.250     94  106  118  130  142
            0  1  0  0     1.250     95  107  119  131  143
            0  0  1  0     1.250     96  108  120  132  144
            2  0  0  0     2.500     97  109  121  133  145
            1  1  0  0     2.500     98  110  122  134  146
            1  0  1  0     2.500     99  111  123  135  147
            0  2  0  0     2.500    100  112  124  136  148
            0  1  1  0     2.500    101  113  125  137  149
            0  0  2  0     2.500    102  114  126  138  150

 Total number of charge fitting functions (nprimf)       502
 Total number of Cartesian basis functions (naos)        150
 Total number of Cartesian core functions  (ncos)          0

 ***************************************************************************************************



                                              ***********************
                                              *  T E C H N I C A L  *
                                              ***********************
  



 =============================================================
 P A R A L L E L I Z A T I O N  and  V E C T O R I Z A T I O N
 =============================================================
  
 Nr of parallel processes:                                1
 Maximum vector length in NumInt loops:                 128



 =====================
 S C F   U P D A T E S
 =====================
  
 Max. nr. of cycles:                               300
 Convergence criterion:                              0.0000010000
   secondary criterion:                              0.0010000000

 Mix parameter (when DIIS does not apply):           0.0500000000
 Mixed ADIIS+SDIIS will be used                  
    Max number of expansion vectors:                10
    Pure ADIIS when Max([F,P]) is above              0.1000000000
    Pure SDIIS when Max([F,P]) is below              0.0010000000
 Automatic ElectronSmearing (in case of problematic SCF convergence) disabled



 =================
 P R E C I S I O N  ***  (General: NumInt, NeglectFunctionTails, ...)  ***
 =================
  

 NumInt:           Target precision:                 6.0000000000
 -------           Initial precision:                6.0000000000
                   Min. precision (optimization):    6.0000000000

 Neglect Functions:          Basis functions:        0.1000000000E-07
 ------------------          Fit functions:          0.1000000000E-07



 ===========================
 L I N E A R   S C A L I N G
 ===========================
  

 Cut-off radii density fit:                        0.1000000000E-09
 Overlap cut-off criterion AO matrix elements:     0.1000000000E-07
 Cut-offs for Coulomb potential and fitted density:0.1000000000E-09
 Cut-off criterion for Coulomb multipole terms:    0.1000000000E-09
 Progressive Convergence parameter:                 0.000000000    
 ***************************************************************************************************



                                            ***************************
                                            *  C O M P U T A T I O N  *
                                            ***************************
  

 Number of elements of the density matrix on this node (used, total):     11325     11325



 ===========================================
 Numerical Integration : Fuzzy Cells (Becke)
 ===========================================
  
 Becke grid quality: GOOD           
  
 Lebedev angular grid order:             min:  11 max:  31
 Nr. of radial points:                   min:  54 max:  61

 Total nr. of points:      98329
 Nr. of blocks:              769
 Block length:               128
 Nr. of dummy points:        103


 Test of Precision of the Numerical Integration Grid
 ===================================================

 Integral of the Total Core Density:                   0.00000000000000



 ========================
 Density Fitting (zlmFit)
 ========================
  
 ZlmFit Fit Quality: GOOD           
  
 Max L-expansion:                        min:   8 max:   9
 Nr. of radial interpolation points:     min:  78 max:  96



 =====
 S C F  ***  ScaSCF  ***
 =====
  
 Initial density matrix is calculated as sum of fragments

 CYCLE    1
 SCF Error: norm([F,P])=      4.015281917716, max([F,P])=      0.497740432214
 ***** SPIN 1 *****
 orbitals (Q,E):
 ---------------
 A :2...21           ( 1.00   -10.1839)  ( 1.00   -10.1839)  ( 1.00    -0.9128)  ( 1.00    -0.7939)
                     ( 1.00    -0.6695)  ( 1.00    -0.6035)  ( 1.00    -0.5776)  ( 1.00    -0.5169)
                     ( 1.00    -0.4866)  ( 1.00    -0.4357)  ( 0.00    -0.3016)  ( 0.00    -0.1508)
                     ( 0.00    -0.0507)  ( 0.00    -0.0330)  ( 0.00    -0.0197)  ( 0.00     0.0138)
                     ( 0.00     0.0187)  ( 0.00     0.0840)  ( 0.00     0.0857)  ( 0.00     0.0964)
 ***** SPIN 2 *****
 orbitals (Q,E):
 ---------------
 A :3...22           ( 1.00   -10.1839)  ( 1.00    -0.9128)  ( 1.00    -0.7939)  ( 1.00    -0.6695)
                     ( 1.00    -0.6035)  ( 1.00    -0.5776)  ( 1.00    -0.5169)  ( 1.00    -0.4866)
                     ( 1.00    -0.4357)  ( 1.00    -0.3016)  ( 0.00    -0.1508)  ( 0.00    -0.0507)
                     ( 0.00    -0.0330)  ( 0.00    -0.0197)  ( 0.00     0.0138)  ( 0.00     0.0187)
                     ( 0.00     0.0840)  ( 0.00     0.0857)  ( 0.00     0.0964)  ( 0.00     0.0983)
  
 Spin polar: -1 (Spin_A minus Spin_B electrons)

 CYCLE    2
   MIX coefficients:  0.9500  0.0500
 SCF Error: norm([F,P])=      0.782889869050, max([F,P])=      0.092892563769
 ***** SPIN 1 *****
 orbitals (Q,E):
 ---------------
 A :2...12           ( 1.00   -10.1535)  ( 1.00   -10.1535)  ( 1.00    -0.8921)  ( 1.00    -0.7748)
                     ( 1.00    -0.6535)  ( 1.00    -0.5867)  ( 1.00    -0.5590)  ( 1.00    -0.5008)
                     ( 1.00    -0.4710)  ( 1.00    -0.4180)  ( 0.00    -0.2840)
 ***** SPIN 2 *****
 orbitals (Q,E):
 ---------------
 A :3...13           ( 1.00   -10.1539)  ( 1.00    -0.8926)  ( 1.00    -0.7756)  ( 1.00    -0.6539)
                     ( 1.00    -0.5870)  ( 1.00    -0.5594)  ( 1.00    -0.5011)  ( 1.00    -0.4712)
                     ( 1.00    -0.4192)  ( 1.00    -0.2864)  ( 0.00    -0.1351)
  
 Spin polar: -1 (Spin_A minus Spin_B electrons)

 CYCLE    3
  SDIIS (wt  0.000): -2.0000  3.0000
 A-DIIS (wt  1.000):  0.0000  1.0000
  DIIS coefficients:  0.0000  1.0000
 SCF Error: norm([F,P])=      0.699216944822, max([F,P])=      0.082580561277
 ***** SPIN 1 *****
 orbitals (Q,E):
 ---------------
 A :2...12           ( 1.00    -9.6116)  ( 1.00    -9.6116)  ( 1.00    -0.5433)  ( 1.00    -0.4610)
                     ( 1.00    -0.3803)  ( 1.00    -0.3043)  ( 1.00    -0.2653)  ( 1.00    -0.2044)
                     ( 1.00    -0.1921)  ( 1.00    -0.1287)  ( 0.00    -0.0090)
 ***** SPIN 2 *****
 orbitals (Q,E):
 ---------------
 A :3...13           ( 1.00    -9.6178)  ( 1.00    -0.5541)  ( 1.00    -0.4759)  ( 1.00    -0.3850)
                     ( 1.00    -0.3088)  ( 1.00    -0.2702)  ( 1.00    -0.2075)  ( 1.00    -0.1986)
                     ( 1.00    -0.1497)  ( 1.00    -0.0446)  ( 0.00     0.0375)
  
 Spin polar: -1 (Spin_A minus Spin_B electrons)

 CYCLE    4
  SDIIS (wt  0.000): -2.0000  2.6971  0.3029
 A-DIIS (wt  1.000):  0.0000  0.6719  0.3281
  DIIS coefficients:  0.0000  0.6719  0.3281
 SCF Error: norm([F,P])=      1.042241193585, max([F,P])=      0.130883375463
 ***** SPIN 1 *****
 orbitals (Q,E):
 ---------------
 A :2...12           ( 1.00    -9.8597)  ( 1.00    -9.8597)  ( 1.00    -0.6874)  ( 1.00    -0.5719)
                     ( 1.00    -0.4744)  ( 1.00    -0.4035)  ( 1.00    -0.3625)  ( 1.00    -0.3152)
                     ( 1.00    -0.2983)  ( 1.00    -0.2475)  ( 0.00    -0.1028)
 ***** SPIN 2 *****
 orbitals (Q,E):
 ---------------
 A :3...13           ( 1.00    -9.8664)  ( 1.00    -0.6967)  ( 1.00    -0.5879)  ( 1.00    -0.4806)
                     ( 1.00    -0.4082)  ( 1.00    -0.3679)  ( 1.00    -0.3206)  ( 1.00    -0.3013)
                     ( 1.00    -0.2680)  ( 1.00    -0.1453)  ( 0.00     0.0078)
  
 Spin polar: -1 (Spin_A minus Spin_B electrons)

 CYCLE    5
  SDIIS (wt  0.805): -0.4743  0.7201  0.0225  0.7317
 A-DIIS (wt  0.195):  0.0000  0.0000  0.0000  1.0000
  DIIS coefficients: -0.3818  0.5798  0.0181  0.7840
 SCF Error: norm([F,P])=      0.158551466062, max([F,P])=      0.020290331959
 ***** SPIN 1 *****
 orbitals (Q,E):
 ---------------
 A :2...12           ( 1.00    -9.9364)  ( 1.00    -9.9200)  ( 1.00    -0.7116)  ( 1.00    -0.6001)
                     ( 1.00    -0.4952)  ( 1.00    -0.4270)  ( 1.00    -0.3883)  ( 1.00    -0.3415)
                     ( 1.00    -0.3165)  ( 1.00    -0.2660)  ( 0.00    -0.1263)
 ***** SPIN 2 *****
 orbitals (Q,E):
 ---------------
 A :3...13           ( 1.00    -9.9189)  ( 1.00    -0.7210)  ( 1.00    -0.6172)  ( 1.00    -0.5014)
                     ( 1.00    -0.4312)  ( 1.00    -0.3935)  ( 1.00    -0.3466)  ( 1.00    -0.3190)
                     ( 1.00    -0.2880)  ( 1.00    -0.1736)  ( 0.00    -0.0082)
  
 Spin polar: -1 (Spin_A minus Spin_B electrons)

 CYCLE    6
  SDIIS (wt  0.904):  0.0547 -0.0051 -0.0180  0.5065  0.4620
 A-DIIS (wt  0.096):  0.0000  0.0000  0.0000  0.1375  0.8625
  DIIS coefficients:  0.0494 -0.0046 -0.0163  0.4712  0.5003
 SCF Error: norm([F,P])=      0.076004247377, max([F,P])=      0.010468439876
 ***** SPIN 1 *****
 orbitals (Q,E):
 ---------------
 A :2...12           ( 1.00    -9.9123)  ( 1.00    -9.9123)  ( 1.00    -0.7076)  ( 1.00    -0.5927)
                     ( 1.00    -0.4924)  ( 1.00    -0.4224)  ( 1.00    -0.3826)  ( 1.00    -0.3355)
                     ( 1.00    -0.3145)  ( 1.00    -0.2629)  ( 0.00    -0.1174)
 ***** SPIN 2 *****
 orbitals (Q,E):
 ---------------
 A :3...13           ( 1.00    -9.9195)  ( 1.00    -0.7164)  ( 1.00    -0.6100)  ( 1.00    -0.4983)
                     ( 1.00    -0.4265)  ( 1.00    -0.3877)  ( 1.00    -0.3404)  ( 1.00    -0.3171)
                     ( 1.00    -0.2836)  ( 1.00    -0.1655)  ( 0.00    -0.0057)
  
 Spin polar: -1 (Spin_A minus Spin_B electrons)

 CYCLE    7
  SDIIS (wt  0.984):  0.0313 -0.0349 -0.0058  0.0798  0.2146  0.7151
 A-DIIS (wt  0.016):  0.0000  0.0000  0.0000  0.0000  0.0000  1.0000
  DIIS coefficients:  0.0308 -0.0344 -0.0057  0.0785  0.2112  0.7197
 SCF Error: norm([F,P])=      0.015352132176, max([F,P])=      0.002581355188
 ***** SPIN 1 *****
 orbitals (Q,E):
 ---------------
 A :2...12           ( 1.00    -9.9145)  ( 1.00    -9.9145)  ( 1.00    -0.7079)  ( 1.00    -0.5932)
                     ( 1.00    -0.4923)  ( 1.00    -0.4226)  ( 1.00    -0.3834)  ( 1.00    -0.3360)
                     ( 1.00    -0.3146)  ( 1.00    -0.2631)  ( 0.00    -0.1177)
 ***** SPIN 2 *****
 orbitals (Q,E):
 ---------------
 A :3...13           ( 1.00    -9.9219)  ( 1.00    -0.7167)  ( 1.00    -0.6108)  ( 1.00    -0.4981)
                     ( 1.00    -0.4267)  ( 1.00    -0.3883)  ( 1.00    -0.3409)  ( 1.00    -0.3169)
                     ( 1.00    -0.2838)  ( 1.00    -0.1670)  ( 0.00    -0.0052)
  
 Spin polar: -1 (Spin_A minus Spin_B electrons)

 CYCLE    8
  SDIIS (wt  1.000):  0.0066 -0.0139  0.0010 -0.0472 -0.0293  0.1091  0.9737
  DIIS coefficients:  0.0066 -0.0139  0.0010 -0.0472 -0.0293  0.1091  0.9737
 SCF Error: norm([F,P])=      0.002625104072, max([F,P])=      0.000470620309
 ***** SPIN 1 *****
 orbitals (Q,E):
 ---------------
 A :2...12           ( 1.00    -9.9143)  ( 1.00    -9.9143)  ( 1.00    -0.7080)  ( 1.00    -0.5930)
                     ( 1.00    -0.4923)  ( 1.00    -0.4227)  ( 1.00    -0.3832)  ( 1.00    -0.3360)
                     ( 1.00    -0.3145)  ( 1.00    -0.2633)  ( 0.00    -0.1173)
 ***** SPIN 2 *****
 orbitals (Q,E):
 ---------------
 A :3...13           ( 1.00    -9.9219)  ( 1.00    -0.7167)  ( 1.00    -0.6109)  ( 1.00    -0.4981)
                     ( 1.00    -0.4267)  ( 1.00    -0.3881)  ( 1.00    -0.3409)  ( 1.00    -0.3169)
                     ( 1.00    -0.2837)  ( 1.00    -0.1672)  ( 0.00    -0.0051)
  
 Spin polar: -1 (Spin_A minus Spin_B electrons)

 CYCLE    9
  SDIIS (wt  1.000): -0.0038  0.0020  0.0010 -0.0208 -0.0272 -0.0440  0.2883  0.8044
  DIIS coefficients: -0.0038  0.0020  0.0010 -0.0208 -0.0272 -0.0440  0.2883  0.8044
 SCF Error: norm([F,P])=      0.000980242343, max([F,P])=      0.000138216468
 ***** SPIN 1 *****
 orbitals (Q,E):
 ---------------
 A :2...12           ( 1.00    -9.9142)  ( 1.00    -9.9142)  ( 1.00    -0.7079)  ( 1.00    -0.5930)
                     ( 1.00    -0.4922)  ( 1.00    -0.4226)  ( 1.00    -0.3832)  ( 1.00    -0.3360)
                     ( 1.00    -0.3145)  ( 1.00    -0.2633)  ( 0.00    -0.1172)
 ***** SPIN 2 *****
 orbitals (Q,E):
 ---------------
 A :3...13           ( 1.00    -9.9219)  ( 1.00    -0.7166)  ( 1.00    -0.6108)  ( 1.00    -0.4980)
                     ( 1.00    -0.4266)  ( 1.00    -0.3881)  ( 1.00    -0.3408)  ( 1.00    -0.3168)
                     ( 1.00    -0.2836)  ( 1.00    -0.1672)  ( 0.00    -0.0050)
  
 Spin polar: -1 (Spin_A minus Spin_B electrons)

 CYCLE   10
  SDIIS (wt  1.000): -0.0014  0.0017  0.0001  0.0005 -0.0014 -0.0104 -0.0254  0.0969  0.9394
  DIIS coefficients: -0.0014  0.0017  0.0001  0.0005 -0.0014 -0.0104 -0.0254  0.0969  0.9394
 SCF Error: norm([F,P])=      0.000175461638, max([F,P])=      0.000036267468
 ***** SPIN 1 *****
 orbitals (Q,E):
 ---------------
 A :2...12           ( 1.00    -9.9143)  ( 1.00    -9.9142)  ( 1.00    -0.7079)  ( 1.00    -0.5929)
                     ( 1.00    -0.4922)  ( 1.00    -0.4226)  ( 1.00    -0.3832)  ( 1.00    -0.3360)
                     ( 1.00    -0.3145)  ( 1.00    -0.2633)  ( 0.00    -0.1172)
 ***** SPIN 2 *****
 orbitals (Q,E):
 ---------------
 A :3...13           ( 1.00    -9.9218)  ( 1.00    -0.7165)  ( 1.00    -0.6108)  ( 1.00    -0.4980)
                     ( 1.00    -0.4266)  ( 1.00    -0.3881)  ( 1.00    -0.3408)  ( 1.00    -0.3168)
                     ( 1.00    -0.2836)  ( 1.00    -0.1672)  ( 0.00    -0.0050)
  
 Spin polar: -1 (Spin_A minus Spin_B electrons)

 CYCLE   11
  SDIIS (wt  1.000): -0.0008  0.0010  0.0000  0.0013  0.0003 -0.0050 -0.0306  0.0276  0.6429  0.3632
  DIIS coefficients: -0.0008  0.0010  0.0000  0.0013  0.0003 -0.0050 -0.0306  0.0276  0.6429  0.3632
 SCF Error: norm([F,P])=      0.000170681715, max([F,P])=      0.000026136590
 ***** SPIN 1 *****
 orbitals (Q,E):
 ---------------
 A :2...12           ( 1.00    -9.9142)  ( 1.00    -9.9142)  ( 1.00    -0.7079)  ( 1.00    -0.5929)
                     ( 1.00    -0.4922)  ( 1.00    -0.4226)  ( 1.00    -0.3832)  ( 1.00    -0.3360)
                     ( 1.00    -0.3145)  ( 1.00    -0.2633)  ( 0.00    -0.1172)
 ***** SPIN 2 *****
 orbitals (Q,E):
 ---------------
 A :3...13           ( 1.00    -9.9218)  ( 1.00    -0.7165)  ( 1.00    -0.6108)  ( 1.00    -0.4980)
                     ( 1.00    -0.4266)  ( 1.00    -0.3881)  ( 1.00    -0.3408)  ( 1.00    -0.3168)
                     ( 1.00    -0.2836)  ( 1.00    -0.1672)  ( 0.00    -0.0050)
  
 Spin polar: -1 (Spin_A minus Spin_B electrons)

 CYCLE   12
  SDIIS (wt  1.000):  0.0001 -0.0000  0.0006  0.0006  0.0005 -0.0094 -0.0176  0.0675  0.2394  0.7183
  DIIS coefficients:  0.0001 -0.0000  0.0006  0.0006  0.0005 -0.0094 -0.0176  0.0675  0.2394  0.7183
 SCF Error: norm([F,P])=      0.000053116511, max([F,P])=      0.000007650367
 ***** SPIN 1 *****
 orbitals (Q,E):
 ---------------
 A :2...12           ( 1.00    -9.9142)  ( 1.00    -9.9142)  ( 1.00    -0.7079)  ( 1.00    -0.5930)
                     ( 1.00    -0.4922)  ( 1.00    -0.4226)  ( 1.00    -0.3832)  ( 1.00    -0.3360)
                     ( 1.00    -0.3145)  ( 1.00    -0.2633)  ( 0.00    -0.1172)
 ***** SPIN 2 *****
 orbitals (Q,E):
 ---------------
 A :3...13           ( 1.00    -9.9218)  ( 1.00    -0.7165)  ( 1.00    -0.6108)  ( 1.00    -0.4980)
                     ( 1.00    -0.4266)  ( 1.00    -0.3881)  ( 1.00    -0.3408)  ( 1.00    -0.3168)
                     ( 1.00    -0.2836)  ( 1.00    -0.1672)  ( 0.00    -0.0050)
  
 Spin polar: -1 (Spin_A minus Spin_B electrons)

 CYCLE   13
  SDIIS (wt  1.000): -0.0000 -0.0000  0.0000  0.0002  0.0004 -0.0016 -0.0199 -0.0054  0.0250  1.0013
  DIIS coefficients: -0.0000 -0.0000  0.0000  0.0002  0.0004 -0.0016 -0.0199 -0.0054  0.0250  1.0013
 SCF Error: norm([F,P])=      0.000004477109, max([F,P])=      0.000000570875
 ***** SPIN 1 *****
 orbitals (Q,E):
 ---------------
 A :2...12           ( 1.00    -9.9142)  ( 1.00    -9.9142)  ( 1.00    -0.7079)  ( 1.00    -0.5930)
                     ( 1.00    -0.4922)  ( 1.00    -0.4226)  ( 1.00    -0.3832)  ( 1.00    -0.3360)
                     ( 1.00    -0.3145)  ( 1.00    -0.2633)  ( 0.00    -0.1172)
 ***** SPIN 2 *****
 orbitals (Q,E):
 ---------------
 A :3...13           ( 1.00    -9.9218)  ( 1.00    -0.7165)  ( 1.00    -0.6108)  ( 1.00    -0.4980)
                     ( 1.00    -0.4266)  ( 1.00    -0.3881)  ( 1.00    -0.3408)  ( 1.00    -0.3168)
                     ( 1.00    -0.2836)  ( 1.00    -0.1672)  ( 0.00    -0.0050)
  
 Spin polar: -1 (Spin_A minus Spin_B electrons)

 SCF CONVERGED

 CYCLE   14
 ***************************************************************************************************



                                                *******************
                                                *  R E S U L T S  *
                                                *******************
  
 *** Using FIT density in Focky
  SDIIS (wt  1.000): -0.0000  0.0000  0.0000  0.0001 -0.0001 -0.0053 -0.0090 -0.0207  0.1796  0.8554
  DIIS coefficients: -0.0000  0.0000  0.0000  0.0001 -0.0001 -0.0053 -0.0090 -0.0207  0.1796  0.8554
 SCF Error: norm([F,P])=      0.000001168603, max([F,P])=      0.000000143680


                                   ***** SPIN 1 *****

 Scaled ZORA Orbital Energies, per Irrep and Spin:
 =================================================
                        Occup              E (au)              E (eV)       Diff (eV) with prev. cycle
                        -----      --------------------        ------       --------------------------
 A
               2        1.000     -0.99142275122069E+01      -269.780              -6.28E-07
               3        1.000     -0.99142111985954E+01      -269.779              -4.30E-07
               4        1.000     -0.70791788098707E+00       -19.263               9.04E-07
               5        1.000     -0.59295045888290E+00       -16.135              -2.02E-06
               6        1.000     -0.49221990893243E+00       -13.394               1.71E-06
               7        1.000     -0.42261608661108E+00       -11.500              -2.89E-06
               8        1.000     -0.38317108100568E+00       -10.427              -2.12E-07
               9        1.000     -0.33596091735961E+00        -9.142              -4.38E-06
              10        1.000     -0.31447569977023E+00        -8.557               2.13E-06
              11        1.000     -0.26327550705635E+00        -7.164               2.19E-06
              12        0.000     -0.11722141001803E+00        -3.190
              13        0.000      0.69911815990716E-02         0.190
              14        0.000      0.10862286880660E-01         0.296
              15        0.000      0.22399523236685E-01         0.610
              16        0.000      0.30009603258214E-01         0.817
              17        0.000      0.74392671341217E-01         2.024
              18        0.000      0.82246607306387E-01         2.238
              19        0.000      0.15803782854287E+00         4.300
              20        0.000      0.16163045654201E+00         4.398
              21        0.000      0.17609409778295E+00         4.792
  
 HOMO :       11 A                -0.26327550705635E+00
 LUMO :       12 A                -0.11722141001803E+00
  


                                   ***** SPIN 2 *****

 Scaled ZORA Orbital Energies, per Irrep and Spin:
 =================================================
                        Occup              E (au)              E (eV)       Diff (eV) with prev. cycle
                        -----      --------------------        ------       --------------------------
 A
               3        1.000     -0.99218397137173E+01      -269.987              -6.63E-07
               4        1.000     -0.71654982036579E+00       -19.498               1.03E-06
               5        1.000     -0.61081830660862E+00       -16.621              -1.95E-06
               6        1.000     -0.49801298126341E+00       -13.552               2.02E-06
               7        1.000     -0.42663010850100E+00       -11.609              -2.31E-06
               8        1.000     -0.38810427502997E+00       -10.561               2.61E-07
               9        1.000     -0.34081116103227E+00        -9.274              -3.85E-06
              10        1.000     -0.31684409741502E+00        -8.622               1.71E-06
              11        1.000     -0.28362435456057E+00        -7.718               9.97E-07
              12        1.000     -0.16720485134469E+00        -4.550              -9.00E-07
              13        0.000     -0.49839882068588E-02        -0.136
              14        0.000      0.52047344455607E-02         0.142
              15        0.000      0.21683655754555E-01         0.590
              16        0.000      0.27533621832176E-01         0.749
              17        0.000      0.73671420779242E-01         2.005
              18        0.000      0.81100681323450E-01         2.207
              19        0.000      0.14571939406148E+00         3.965
              20        0.000      0.15682934966459E+00         4.268
              21        0.000      0.17336308660888E+00         4.717
              22        0.000      0.19500478924628E+00         5.306
  
 HOMO :       12 A                -0.16720485134469E+00
 LUMO :       13 A                -0.49839882068588E-02
  


 Orbital Energies, both Spins
 ========================================

 Irrep        no.  (spin)   Occup              E (au)                E (eV)
 ---------------------------------------------------------------------------
 A             1     A       1.00       -0.99253353017047E+01      -270.0821
 A             1      B      1.00       -0.99234032145967E+01      -270.0295
 A             2      B      1.00       -0.99219021054979E+01      -269.9887
 A             3      B      1.00       -0.99218397137173E+01      -269.9870
 A             2     A       1.00       -0.99142275122069E+01      -269.7799
 A             3     A       1.00       -0.99142111985954E+01      -269.7794
 A             4      B      1.00       -0.71654982036579E+00       -19.4983
 A             4     A       1.00       -0.70791788098707E+00       -19.2634
 A             5      B      1.00       -0.61081830660862E+00       -16.6212
 A             5     A       1.00       -0.59295045888290E+00       -16.1350
 A             6      B      1.00       -0.49801298126341E+00       -13.5516
 A             6     A       1.00       -0.49221990893243E+00       -13.3940
 A             7      B      1.00       -0.42663010850100E+00       -11.6092
 A             7     A       1.00       -0.42261608661108E+00       -11.5000
 A             8      B      1.00       -0.38810427502997E+00       -10.5609
 A             8     A       1.00       -0.38317108100568E+00       -10.4266
 A             9      B      1.00       -0.34081116103227E+00        -9.2739
 A             9     A       1.00       -0.33596091735961E+00        -9.1420
 A            10      B      1.00       -0.31684409741502E+00        -8.6218
 A            10     A       1.00       -0.31447569977023E+00        -8.5573
 A            11      B      1.00       -0.28362435456057E+00        -7.7178
 A            11     A       1.00       -0.26327550705635E+00        -7.1641
 A            12      B      1.00       -0.16720485134469E+00        -4.5499
 A            12     A       0.00       -0.11722141001803E+00        -3.1898
 A            13      B      0.00       -0.49839882068588E-02        -0.1356
 A            14      B      0.00        0.52047344455607E-02         0.1416
 A            13     A       0.00        0.69911815990716E-02         0.1902
 A            14     A       0.00        0.10862286880660E-01         0.2956
 A            15      B      0.00        0.21683655754555E-01         0.5900
 A            15     A       0.00        0.22399523236685E-01         0.6095
 A            16      B      0.00        0.27533621832176E-01         0.7492
 A            16     A       0.00        0.30009603258214E-01         0.8166
 A            17      B      0.00        0.73671420779242E-01         2.0047
 A            17     A       0.00        0.74392671341217E-01         2.0243
 A            18      B      0.00        0.81100681323450E-01         2.2069
 A            18     A       0.00        0.82246607306387E-01         2.2380
 A            19      B      0.00        0.14571939406148E+00         3.9652
 A            20      B      0.00        0.15682934966459E+00         4.2675
 A            19     A       0.00        0.15803782854287E+00         4.3004
 A            20     A       0.00        0.16163045654201E+00         4.3982
 A            21      B      0.00        0.17336308660888E+00         4.7174
 A            21     A       0.00        0.17609409778295E+00         4.7918
 A            22      B      0.00        0.19500478924628E+00         5.3064
 A            22     A       0.00        0.19936124068388E+00         5.4249
 A            23      B      0.00        0.22568157297270E+00         6.1411
 A            24      B      0.00        0.23348456217279E+00         6.3534
 A            23     A       0.00        0.23780654446936E+00         6.4710
 A            25      B      0.00        0.24115023405457E+00         6.5620
 A            24     A       0.00        0.24590553564088E+00         6.6914
 A            25     A       0.00        0.25096601301510E+00         6.8291
 A            26      B      0.00        0.30156094061902E+00         8.2059
 A            27      B      0.00        0.31012198139647E+00         8.4388
 A            26     A       0.00        0.31165729892861E+00         8.4806
 A            28      B      0.00        0.31271950486044E+00         8.5095
 A            27     A       0.00        0.31670699117397E+00         8.6180
 A            28     A       0.00        0.31732282096896E+00         8.6348
 A            29      B      0.00        0.37208472234498E+00        10.1249
 A            29     A       0.00        0.37647859771284E+00        10.2445
 A            30      B      0.00        0.38292974810658E+00        10.4200
 A            30     A       0.00        0.38622194121950E+00        10.5096
 A            31      B      0.00        0.46695575869160E+00        12.7065
 A            31     A       0.00        0.47423464216599E+00        12.9046
 A            32      B      0.00        0.48054298403438E+00        13.0762
 A            32     A       0.00        0.48313970740434E+00        13.1469
 A            33      B      0.00        0.48325064197636E+00        13.1499
 A            33     A       0.00        0.49089862019920E+00        13.3580
 A            34      B      0.00        0.51809688351090E+00        14.0981
 A            34     A       0.00        0.52625896158248E+00        14.3202
 A            35      B      0.00        0.54716725332058E+00        14.8892
 A            35     A       0.00        0.55543049014097E+00        15.1140
 A            36      B      0.00        0.61895977488443E+00        16.8428
 A            36     A       0.00        0.62075763612833E+00        16.8917
 A            37      B      0.00        0.67250944123446E+00        18.2999
 A            37     A       0.00        0.67927476083979E+00        18.4840
 A            38      B      0.00        0.73925276420692E+00        20.1161
 A            38     A       0.00        0.74067023375275E+00        20.1547
 A            39      B      0.00        0.75180723348037E+00        20.4577
 A            39     A       0.00        0.76080748964097E+00        20.7026
 A            40      B      0.00        0.84951428053324E+00        23.1165
 A            40     A       0.00        0.85679219839843E+00        23.3145
 A            41      B      0.00        0.86587130858282E+00        23.5616
 A            41     A       0.00        0.86765125150774E+00        23.6100
 A            42      B      0.00        0.88995286595498E+00        24.2168
 A            42     A       0.00        0.89147235729879E+00        24.2582
 A            43      B      0.00        0.91700220852927E+00        24.9529
 A            43     A       0.00        0.91879477334877E+00        25.0017
 A            44      B      0.00        0.95727055769209E+00        26.0487
 A            44     A       0.00        0.96368817881008E+00        26.2233
 A            45      B      0.00        0.98170246596350E+00        26.7135
 A            45     A       0.00        0.98617060676884E+00        26.8351
 A            46      B      0.00        0.10484652699988E+01        28.5302
 A            47      B      0.00        0.10543936541056E+01        28.6915
 A            46     A       0.00        0.10620501781484E+01        28.8999
 A            47     A       0.00        0.10623922330861E+01        28.9092
 A            48      B      0.00        0.10793752239783E+01        29.3713
 A            48     A       0.00        0.10801615482504E+01        29.3927
 A            49      B      0.00        0.11633059758022E+01        31.6552
 A            49     A       0.00        0.11796250055804E+01        32.0992
 A            50      B      0.00        0.12335964400274E+01        33.5679
 A            50     A       0.00        0.12490576639833E+01        33.9886
 A            51      B      0.00        0.12996091285757E+01        35.3642
 A            51     A       0.00        0.13025512049357E+01        35.4442
 A            52      B      0.00        0.13801117922467E+01        37.5548
 A            52     A       0.00        0.13913166091174E+01        37.8597
 A            53      B      0.00        0.14505804152677E+01        39.4723
 A            54      B      0.00        0.14519268750439E+01        39.5089
 A            53     A       0.00        0.14539166611835E+01        39.5631
 A            54     A       0.00        0.14606434596547E+01        39.7461
 A            55      B      0.00        0.15301594309746E+01        41.6378
 A            55     A       0.00        0.15358520784950E+01        41.7927
 A            56      B      0.00        0.15778579061179E+01        42.9357
 A            56     A       0.00        0.16059464135618E+01        43.7000
 A            57      B      0.00        0.16343100849616E+01        44.4718
 A            57     A       0.00        0.16635125001663E+01        45.2665
 A            58      B      0.00        0.17431131602196E+01        47.4325
 A            58     A       0.00        0.17491069187058E+01        47.5956
 A            59      B      0.00        0.18362472296890E+01        49.9668
 A            59     A       0.00        0.18382945380273E+01        50.0225
 A            60      B      0.00        0.19049256398516E+01        51.8357
 A            60     A       0.00        0.19170852211623E+01        52.1665
 A            61      B      0.00        0.19332205758211E+01        52.6056
 A            61     A       0.00        0.19435078549276E+01        52.8855
 A            62      B      0.00        0.19745202553011E+01        53.7294
 A            62     A       0.00        0.19769281422635E+01        53.7950
 A            63      B      0.00        0.19895955824617E+01        54.1397
 A            63     A       0.00        0.20086297927110E+01        54.6576
 A            64      B      0.00        0.20429299374587E+01        55.5910
 A            64     A       0.00        0.20664311873839E+01        56.2305
 A            65      B      0.00        0.21692666722499E+01        59.0287
 A            65     A       0.00        0.21743018201461E+01        59.1658
 A            66     A       0.00        0.22898177826606E+01        62.3091
 A            66      B      0.00        0.22908082941396E+01        62.3361
 A            67      B      0.00        0.23093674489681E+01        62.8411
 A            67     A       0.00        0.23451668130233E+01        63.8152
 A            68      B      0.00        0.23816205694723E+01        64.8072
 A            69      B      0.00        0.23849681856930E+01        64.8983
 A            68     A       0.00        0.23869278912572E+01        64.9516
 A            69     A       0.00        0.23901010674485E+01        65.0380
 A            70      B      0.00        0.24735631433563E+01        67.3091
 A            70     A       0.00        0.24764733662915E+01        67.3883
 A            71      B      0.00        0.24937003123418E+01        67.8570
 A            71     A       0.00        0.25046175575809E+01        68.1541
 A            72      B      0.00        0.25325005931456E+01        68.9128
 A            72     A       0.00        0.25368512124346E+01        69.0312
 A            73      B      0.00        0.26126591724452E+01        71.0941
 A            73     A       0.00        0.26129881369478E+01        71.1030
 A            74      B      0.00        0.26985585030743E+01        73.4315
 A            74     A       0.00        0.27036817770099E+01        73.5709
 A            75      B      0.00        0.27282117023062E+01        74.2384
 A            75     A       0.00        0.27321385959166E+01        74.3453
 A            76      B      0.00        0.27671953202893E+01        75.2992
 A            76     A       0.00        0.27704086216034E+01        75.3867
 A            77      B      0.00        0.28184478218451E+01        76.6939
 A            77     A       0.00        0.28279148014272E+01        76.9515
 A            78      B      0.00        0.28500613218461E+01        77.5541
 A            78     A       0.00        0.28621467021362E+01        77.8830
 A            79     A       0.00        0.29047613804253E+01        79.0426
 A            79      B      0.00        0.29056186653627E+01        79.0659
 A            80      B      0.00        0.29400318948636E+01        80.0023
 A            80     A       0.00        0.29428852882096E+01        80.0800
 A            81      B      0.00        0.29454499349810E+01        80.1498
 A            81     A       0.00        0.29554053337053E+01        80.4207
 A            82      B      0.00        0.29760436242298E+01        80.9823
 A            82     A       0.00        0.29765517604344E+01        80.9961
 A            83      B      0.00        0.30881273837705E+01        84.0322
 A            83     A       0.00        0.31007266620619E+01        84.3751
 A            84      B      0.00        0.31232641210155E+01        84.9883
 A            84     A       0.00        0.31282226348264E+01        85.1233
 A            85      B      0.00        0.32275771412966E+01        87.8268
 A            85     A       0.00        0.32429578349419E+01        88.2454
 A            86      B      0.00        0.32613833969129E+01        88.7468
 A            86     A       0.00        0.32782621335613E+01        89.2061
 A            87      B      0.00        0.33232871776055E+01        90.4312
 A            87     A       0.00        0.33235498703047E+01        90.4384
 A            88      B      0.00        0.33781306503691E+01        91.9236
 A            88     A       0.00        0.33796560784038E+01        91.9651
 A            89      B      0.00        0.34575617914249E+01        94.0850
 A            89     A       0.00        0.34644218450236E+01        94.2717
 A            90      B      0.00        0.34878582023063E+01        94.9095
 A            90     A       0.00        0.35144296729284E+01        95.6325
 A            91      B      0.00        0.35947663945519E+01        97.8186
 A            91     A       0.00        0.36157634958963E+01        98.3899
 A            92      B      0.00        0.37206791163557E+01       101.2448
 A            92     A       0.00        0.37265876923003E+01       101.4056
 A            93      B      0.00        0.37685658807015E+01       102.5479
 A            93     A       0.00        0.37890118511540E+01       103.1043
 A            94      B      0.00        0.38512195467060E+01       104.7970
 A            94     A       0.00        0.38645999887508E+01       105.1611
 A            95      B      0.00        0.39823583219154E+01       108.3655
 A            95     A       0.00        0.40007855683409E+01       108.8669
 A            96      B      0.00        0.40042545299042E+01       108.9613
 A            96     A       0.00        0.40159600494658E+01       109.2798
 A            97      B      0.00        0.40541668339887E+01       110.3195
 A            97     A       0.00        0.40644252476813E+01       110.5986
 A            98      B      0.00        0.42545295493294E+01       115.7716
 A            98     A       0.00        0.42593927305398E+01       115.9040
 A            99      B      0.00        0.43670096629961E+01       118.8324
 A            99     A       0.00        0.43856329902940E+01       119.3391
 A           100      B      0.00        0.44085999760839E+01       119.9641
 A           100     A       0.00        0.44174380276572E+01       120.2046
 A           101      B      0.00        0.44217332154605E+01       120.3215
 A           101     A       0.00        0.44382621425661E+01       120.7713
 A           102      B      0.00        0.45617612868712E+01       124.1318
 A           103      B      0.00        0.45635445731698E+01       124.1804
 A           102     A       0.00        0.45645597174336E+01       124.2080
 A           103     A       0.00        0.45758181599560E+01       124.5143
 A           104      B      0.00        0.45815741682682E+01       124.6710
 A           104     A       0.00        0.46046520736577E+01       125.2990
 A           105      B      0.00        0.47287201789861E+01       128.6750
 A           105     A       0.00        0.47389067643988E+01       128.9522
 A           106      B      0.00        0.48694774929311E+01       132.5052
 A           106     A       0.00        0.48829603250206E+01       132.8721
 A           107      B      0.00        0.50836373451435E+01       138.3328
 A           107     A       0.00        0.50920200433754E+01       138.5609
 A           108      B      0.00        0.52740747225820E+01       143.5149
 A           108     A       0.00        0.52847894341318E+01       143.8064
 A           109      B      0.00        0.53503324397038E+01       145.5900
 A           109     A       0.00        0.53620876243348E+01       145.9098
 A           110      B      0.00        0.53660053034298E+01       146.0164
 A           110     A       0.00        0.53703766354673E+01       146.1354
 A           111      B      0.00        0.55076869573208E+01       149.8718
 A           111     A       0.00        0.55148679965711E+01       150.0672
 A           112      B      0.00        0.55554204769147E+01       151.1707
 A           112     A       0.00        0.55832964021707E+01       151.9292
 A           113      B      0.00        0.57027296221395E+01       155.1792
 A           113     A       0.00        0.57257667455668E+01       155.8060
 A           114      B      0.00        0.59355734647127E+01       161.5152
 A           114     A       0.00        0.59724033333805E+01       162.5174
 A           115      B      0.00        0.60018438661188E+01       163.3185
 A           115     A       0.00        0.60066493557755E+01       163.4492
 A           116      B      0.00        0.60072254158404E+01       163.4649
 A           116     A       0.00        0.60108321455695E+01       163.5631
 A           117      B      0.00        0.61414043712434E+01       167.1161
 A           117     A       0.00        0.61582936109206E+01       167.5757
 A           118      B      0.00        0.62007254485161E+01       168.7303
 A           118     A       0.00        0.62141361806773E+01       169.0952
 A           119      B      0.00        0.62840904865148E+01       170.9988
 A           119     A       0.00        0.62918325776945E+01       171.2095
 A           120      B      0.00        0.63666543337981E+01       173.2455
 A           120     A       0.00        0.63908074003529E+01       173.9027
 A           121      B      0.00        0.64478938398740E+01       175.4561
 A           121     A       0.00        0.64579321294159E+01       175.7293
 A           122      B      0.00        0.67390731940861E+01       183.3795
 A           122     A       0.00        0.67403999371586E+01       183.4156
 A           123      B      0.00        0.68721353921226E+01       187.0003
 A           123     A       0.00        0.68799020170555E+01       187.2117
 A           124      B      0.00        0.73310257137184E+01       199.4874
 A           124     A       0.00        0.73363917938184E+01       199.6334
 A           125      B      0.00        0.74435769302835E+01       202.5500
 A           125     A       0.00        0.74489319435164E+01       202.6958
 A           126      B      0.00        0.76272442415235E+01       207.5479
 A           126     A       0.00        0.76299944536709E+01       207.6227
 A           127      B      0.00        0.80030254578683E+01       217.7734
 A           127     A       0.00        0.80081984071995E+01       217.9142
 A           128      B      0.00        0.81478380231975E+01       221.7140
 A           128     A       0.00        0.81518533387758E+01       221.8232
 A           129      B      0.00        0.91940707854343E+01       250.1834
 A           129     A       0.00        0.92137071589581E+01       250.7177
 A           130      B      0.00        0.98257400615824E+01       267.3720
 A           130     A       0.00        0.98317417093803E+01       267.5353
 A           131      B      0.00        0.53021242254716E+02      1442.7814
 A           131     A       0.00        0.53026743484314E+02      1442.9311
 A           132      B      0.00        0.57307166249204E+02      1559.4073
 A           132     A       0.00        0.57319236932638E+02      1559.7358
 A           133      B      0.00        0.58606627770286E+02      1594.7675
 A           133     A       0.00        0.58609889994126E+02      1594.8563
  
 Spin polar: -1 (Spin_A minus Spin_B electrons)


 All Electron Calculation, thus no Orbital Energies of the Core Orbitals are calculated


 Fit test: (difference of exact and fit density, squared integrated, result summed over spins)
         Sum-of-Fragments:                             0.00000000036394
         Orthogonalized Fragments:                     0.00000511221608
         SCF:                                          0.00000653664645



 ==========================
 Electron Density at Nuclei
 ==========================
  
 The electron density is calculated at points on a small sphere around the center of a nucleus.
 The printed electron density is the average electron density on these points.
 The radius of the sphere is the printed approximate finite nuclear radius.
 Note: ZORA-4 density is used, which includes small component density

         Atom        Nuclear Radius (Angstrom)             Electron Density (a.u.)
         ----        -------------------------             -----------------------
     1)   C                 0.0000320678                              127.12412
     2)   C                 0.0000320678                              127.11832
     3)   C                 0.0000320678                              127.12446
     4)   H                 0.0000181514                                0.50636
     5)   H                 0.0000181514                                0.50669
     6)   H                 0.0000181514                                0.51006
     7)   H                 0.0000181514                                0.50664
     8)   H                 0.0000181514                                0.50638



 =======================================
 M U L L I K E N   P O P U L A T I O N S
 =======================================
  
 The survey below gives for each atom:
 a) the total charge (Z minus electrons)
 b) the net spin polarization (nr of electrons spin-A minus spin-B)
 c) for each spin the atomic electron valence density (integrated) per L-value.

 Atom              Charge    Spin density          S         P         D         F
 ----              ------    ------------       ------    ------    ------    ------
 1 C               0.4033         -0.6146   A:  1.4900    0.9786    0.0203    0.0021
                                            B:  1.5303    1.5567    0.0175    0.0012
 2 C               0.1886          0.1672   A:  1.5412    1.4223    0.0236    0.0022
                                            B:  1.5223    1.2574    0.0394    0.0029
 3 C               0.4033         -0.6148   A:  1.4900    0.9786    0.0203    0.0021
                                            B:  1.5302    1.5568    0.0175    0.0012
 4 H              -0.2008          0.0165   A:  0.5725    0.0338    0.0024    0.0000
                                            B:  0.5447    0.0443    0.0032    0.0000
 5 H              -0.2010          0.0169   A:  0.5740    0.0326    0.0023    0.0000
                                            B:  0.5421    0.0468    0.0032    0.0000
 6 H              -0.1916         -0.0045   A:  0.5549    0.0360    0.0027    0.0000
                                            B:  0.5620    0.0334    0.0026    0.0000
 7 H              -0.2011          0.0169   A:  0.5740    0.0326    0.0023    0.0000
                                            B:  0.5421    0.0468    0.0032    0.0000
 8 H              -0.2008          0.0165   A:  0.5725    0.0338    0.0024    0.0000
                                            B:  0.5446    0.0443    0.0032    0.0000

 Populations of individual BAS functions
 ----------------------------------------
 1 C            0.2526  0.7417  0.0809  0.4314 -0.0165  0.0278 -0.1353 -0.0797  0.1507  0.4056
                0.3720  0.0331  0.1001  0.1043 -0.0113  0.0003  0.0041  0.0064  0.0080  0.0127
               -0.0020 -0.0025 -0.0030  0.0003  0.0001  0.0022  0.0012 -0.0002  0.0019  0.0040
         B:     0.2535  0.7395  0.1033  0.4512 -0.0172  0.1624 -0.1098 -0.0729  0.4463  0.4130
                0.3917  0.1158  0.1027  0.1075 -0.0028  0.0003  0.0032  0.0011  0.0079  0.0076
               -0.0007 -0.0004 -0.0010 -0.0007  0.0000  0.0017 -0.0006 -0.0008  0.0014  0.0023
 2 C            0.2531  0.7406  0.1237  0.4409 -0.0171  0.1024 -0.0643 -0.0559  0.3555  0.3998
                0.3926  0.0795  0.1050  0.1078 -0.0079  0.0013  0.0007  0.0075  0.0106  0.0115
               -0.0030 -0.0020 -0.0024  0.0012  0.0001  0.0023  0.0012  0.0003  0.0017  0.0028
         B:     0.2528  0.7411  0.1120  0.4331 -0.0168  0.0634 -0.0794 -0.0677  0.2933  0.3938
                0.3816  0.0640  0.1033  0.1050 -0.0091  0.0053  0.0111  0.0085  0.0108  0.0128
               -0.0031 -0.0024 -0.0026  0.0014  0.0003  0.0026  0.0015  0.0004  0.0017  0.0030
[...]
                                   -4.87%     2 P:y             4.589  0.00     2 C
                                   -4.86%     1 P:z            -5.239  0.67     2 C
                                   -3.12%     3 S              10.158  0.00     3 C
                                   -3.12%     3 S              10.158  0.00     1 C
                                   -1.66%     1 P:y            -5.239  0.67     2 C
                                    1.54%     2 S             -13.620  2.00     3 C
                                    1.54%     2 S             -13.620  2.00     1 C
                                   -1.11%     1 P:z            -5.239  0.67     1 C
                                    1.03%     3 P:z            54.789  0.00     2 C
                                   -1.00%     1 P:z            -5.239  0.67     3 C
       2.005  0.00    17 A         30.54%     2 S               2.394  0.00     6 H
                                   25.38%     1 S              -6.532  1.00     6 H
                                   19.41%     1 S              -6.532  1.00     5 H
                                   19.37%     1 S              -6.532  1.00     7 H
                                  -18.73%     2 P:z             4.589  0.00     3 C
                                  -17.83%     2 P:y             4.589  0.00     1 C
                                  -10.46%     2 P:y             4.589  0.00     2 C
                                   -9.02%     3 S              10.158  0.00     2 C
                                    6.64%     1 P:y            -5.239  0.67     3 C
                                    6.51%     2 S               2.394  0.00     5 H
                                    6.51%     2 S               2.394  0.00     7 H
                                    5.31%     2 S             -13.620  2.00     2 C
                                    5.22%     2 S               2.394  0.00     4 H
                                    5.19%     2 S               2.394  0.00     8 H
                                    4.52%     1 S              -6.532  1.00     4 H
                                    4.48%     1 S              -6.532  1.00     8 H
                                    3.77%     1 P:y            -5.239  0.67     1 C
                                   -3.38%     2 P:z             4.589  0.00     2 C
                                    3.27%     2 P:y             4.589  0.00     3 C
                                    2.99%     3 S              40.869  0.00     6 H
                                    2.53%     3 S              40.869  0.00     5 H
                                    2.53%     3 S              40.869  0.00     7 H
                                    1.73%     2 P:z             4.589  0.00     1 C
                                   -1.62%     1 P:z            -5.239  0.67     3 C
                                    1.18%     1 P:z            -5.239  0.67     1 C
       2.207  0.00    18 A         30.22%     1 S              -6.532  1.00     8 H
                                   30.19%     1 S              -6.532  1.00     4 H
                                  -25.46%     2 P:y             4.589  0.00     1 C
                                  -15.16%     2 P:z             4.589  0.00     3 C
                                   14.39%     2 S               2.394  0.00     8 H
                                   14.37%     2 S               2.394  0.00     4 H
                                   13.13%     1 S              -6.532  1.00     7 H
                                   13.09%     1 S              -6.532  1.00     5 H
                                   -8.95%     2 P:y             4.589  0.00     3 C
                                    7.14%     1 P:z            -5.239  0.67     3 C
                                    6.58%     1 P:y            -5.239  0.67     1 C
                                    3.61%     2 S               2.394  0.00     7 H
                                    3.60%     2 S               2.394  0.00     5 H
                                    3.19%     3 S              40.869  0.00     8 H
                                    3.19%     3 S              40.869  0.00     4 H
                                    1.93%     2 P:z             4.589  0.00     2 C
                                    1.50%     3 S              40.869  0.00     7 H
                                    1.49%     3 S              40.869  0.00     5 H
       3.965  0.00    19 A         39.88%     2 P:x             4.589  0.00     1 C
                                   39.59%     2 P:x             4.589  0.00     3 C
                                   19.43%     2 P:x             4.589  0.00     2 C
                                    1.50%     1 P:x            11.051  0.00     6 H
                                   -1.45%     1 P:x            -5.239  0.67     2 C
                                    1.12%     2 P:z             4.589  0.00     3 C
       4.268  0.00    20 A         22.89%     2 P:z             4.589  0.00     1 C
                                   22.37%     1 P:z            -5.239  0.67     1 C
                                  -18.25%     2 P:y             4.589  0.00     2 C
                                   16.84%     1 P:z            -5.239  0.67     3 C
                                   15.47%     2 P:z             4.589  0.00     3 C
                                  -14.90%     3 S              10.158  0.00     2 C
                                   13.93%     1 S              -6.532  1.00     7 H
                                   13.92%     1 S              -6.532  1.00     5 H
                                  -11.20%     2 S               2.394  0.00     7 H
                                  -11.19%     2 S               2.394  0.00     5 H
                                   10.21%     2 P:y             4.589  0.00     3 C
                                    9.59%     1 P:y            -5.239  0.67     3 C
                                    8.18%     2 S               2.394  0.00     6 H
                                   -5.84%     2 P:z             4.589  0.00     2 C
                                    4.12%     2 S             -13.620  2.00     2 C
                                    3.87%     1 P:y            -5.239  0.67     1 C
                                    2.90%     2 P:y             4.589  0.00     1 C
                                    2.64%     1 P:z            11.051  0.00     8 H
                                    2.54%     1 S              -6.532  1.00     6 H
                                    2.22%     1 P:y            -5.239  0.67     2 C
                                    2.12%     2 S               2.394  0.00     4 H
                                    2.12%     2 S               2.394  0.00     8 H
                                    1.62%     1 P:y            11.051  0.00     4 H
                                    1.01%     1 P:z            11.051  0.00     4 H
       4.717  0.00    21 A         20.75%     2 P:y             4.589  0.00     3 C
                                   17.73%     2 P:z             4.589  0.00     1 C
                                   14.78%     1 S              -6.532  1.00     4 H
                                   14.78%     1 S              -6.532  1.00     8 H
                                   10.63%     1 P:y            -5.239  0.67     3 C
                                   -6.56%     2 S               2.394  0.00     8 H
                                   -6.56%     2 S               2.394  0.00     4 H
                                    5.78%     1 P:z            -5.239  0.67     1 C
                                    5.18%     1 P:y            -5.239  0.67     1 C
                                    5.12%     2 P:z             4.589  0.00     2 C
                                    4.01%     2 S             -13.620  2.00     3 C
                                    3.99%     2 S             -13.620  2.00     1 C
                                    3.84%     1 P:z            11.051  0.00     6 H
                                   -2.76%     3 S              10.158  0.00     3 C
                                   -2.76%     3 S              10.158  0.00     1 C
                                   -2.69%     3 S              40.869  0.00     4 H
                                   -2.68%     3 S              40.869  0.00     8 H
                                    2.65%     2 P:y             4.589  0.00     1 C
                                    2.63%     1 P:y            11.051  0.00     7 H
                                    2.23%     1 P:z            11.051  0.00     5 H
                                    1.75%     2 P:y             4.589  0.00     2 C
                                    1.31%     1 P:y            11.051  0.00     6 H
                                    1.29%     2 S               2.394  0.00     7 H
                                    1.27%     2 S               2.394  0.00     5 H
       5.306  0.00    22 A         17.43%     1 S              -6.532  1.00     6 H
                                   16.23%     2 S               2.394  0.00     5 H
                                   16.19%     2 S               2.394  0.00     7 H
                                   10.98%     2 P:y             4.589  0.00     3 C
                                   -9.93%     2 S               2.394  0.00     6 H
                                    8.83%     2 P:z             4.589  0.00     1 C
                                    6.89%     1 P:y            -5.239  0.67     2 C
                                    4.58%     2 S             -13.620  2.00     1 C
                                    4.55%     2 S             -13.620  2.00     3 C
                                    3.87%     1 S              -6.532  1.00     5 H
                                    3.87%     1 S              -6.532  1.00     7 H
                                   -3.85%     3 S              10.158  0.00     2 C
                                    3.84%     1 P:y            -5.239  0.67     3 C
                                    3.37%     1 P:y            -5.239  0.67     1 C
                                   -3.12%     2 S             -13.620  2.00     2 C
                                    2.51%     1 P:y            11.051  0.00     6 H
                                    2.23%     1 P:z            -5.239  0.67     2 C
                                    1.91%     2 P:y             4.589  0.00     1 C
                                    1.38%     1 P:z            11.051  0.00     8 H
                                    1.33%     1 D:z2           33.824  0.00     3 C
                                    1.32%     1 P:y            11.051  0.00     4 H
                                    1.18%     1 P:z            -5.239  0.67     1 C
                                    1.04%     1 D:x2-y2        33.824  0.00     2 C



 =======================================================================
 Electrostatic potential at the Nuclei due to electrons and other nuclei
 =======================================================================
  
         Atom                  Potential
         ----                  ---------
     1)   C                  14.79371389
     2)   C                  14.78764861
     3)   C                  14.79373496
     4)   H                   1.10898043
     5)   H                   1.10930386
     6)   H                   1.11225312
     7)   H                   1.10927860
     8)   H                   1.10902584
 Mulliken charges used for AMS results%charges...


    =====================
     CALCULATION RESULTS
    =====================

Energy (hartree)            -1.54394834


--------------
Atomic charges
--------------
  Index   Atom    Charge
      1      C    0.4033
      2      C    0.1886
      3      C    0.4033
      4      H   -0.2008
      5      H   -0.2010
      6      H   -0.1916
      7      H   -0.2011
      8      H   -0.2008


Dipole moment vector    (Debye):    -0.00357841    0.05018546   -0.03005113
              magnitude (Debye):     0.05860423


-----------------------
Molecular orbitals info
-----------------------
n orbitals:              133
n spin:                    2

Note: only printing virtual orbitals with
      energy smaller than HOMO + 100. eV

                     spin-alpha   spin-beta
HOMO (eV):              -7.1641     -4.5499
LUMO (eV):              -3.1898     -0.1356
HOMO-LUMO gap (eV):      3.9743      4.4143

Smallest gap (eV):       1.3601

          |======= spin-alpha =======|       |======= spin-beta ========|

   Index   Energy (eV)    Occupation          Energy (eV)    Occupation
      90       95.6325         0.000              94.9095         0.000       
      89       94.2717         0.000              94.0850         0.000       
      88       91.9651         0.000              91.9236         0.000       
      87       90.4384         0.000              90.4312         0.000       
      86       89.2061         0.000              88.7468         0.000       
      85       88.2454         0.000              87.8268         0.000       
      84       85.1233         0.000              84.9883         0.000       
      83       84.3751         0.000              84.0322         0.000       
      82       80.9961         0.000              80.9823         0.000       
      81       80.4207         0.000              80.1498         0.000       
      80       80.0800         0.000              80.0023         0.000       
      79       79.0426         0.000              79.0659         0.000       
      78       77.8830         0.000              77.5541         0.000       
      77       76.9515         0.000              76.6939         0.000       
      76       75.3867         0.000              75.2992         0.000       
      75       74.3453         0.000              74.2384         0.000       
      74       73.5709         0.000              73.4315         0.000       
      73       71.1030         0.000              71.0941         0.000       
      72       69.0312         0.000              68.9128         0.000       
      71       68.1541         0.000              67.8570         0.000       
      70       67.3883         0.000              67.3091         0.000       
      69       65.0380         0.000              64.8983         0.000       
      68       64.9516         0.000              64.8072         0.000       
      67       63.8152         0.000              62.8411         0.000       
      66       62.3091         0.000              62.3361         0.000       
      65       59.1658         0.000              59.0287         0.000       
      64       56.2305         0.000              55.5910         0.000       
      63       54.6576         0.000              54.1397         0.000       
      62       53.7950         0.000              53.7294         0.000       
      61       52.8855         0.000              52.6056         0.000       
      60       52.1665         0.000              51.8357         0.000       
      59       50.0225         0.000              49.9668         0.000       
      58       47.5956         0.000              47.4325         0.000       
      57       45.2665         0.000              44.4718         0.000       
      56       43.7000         0.000              42.9357         0.000       
      55       41.7927         0.000              41.6378         0.000       
      54       39.7461         0.000              39.5089         0.000       
      53       39.5631         0.000              39.4723         0.000       
      52       37.8597         0.000              37.5548         0.000       
      51       35.4442         0.000              35.3642         0.000       
      50       33.9886         0.000              33.5679         0.000       
      49       32.0992         0.000              31.6552         0.000       
      48       29.3927         0.000              29.3713         0.000       
      47       28.9092         0.000              28.6915         0.000       
      46       28.8999         0.000              28.5302         0.000       
      45       26.8351         0.000              26.7135         0.000       
      44       26.2233         0.000              26.0487         0.000       
      43       25.0017         0.000              24.9529         0.000       
      42       24.2582         0.000              24.2168         0.000       
      41       23.6100         0.000              23.5616         0.000       
      40       23.3145         0.000              23.1165         0.000       
      39       20.7026         0.000              20.4577         0.000       
      38       20.1547         0.000              20.1161         0.000       
      37       18.4840         0.000              18.2999         0.000       
      36       16.8917         0.000              16.8428         0.000       
      35       15.1140         0.000              14.8892         0.000       
      34       14.3202         0.000              14.0981         0.000       
      33       13.3580         0.000              13.1499         0.000       
      32       13.1469         0.000              13.0762         0.000       
      31       12.9046         0.000              12.7065         0.000       
      30       10.5096         0.000              10.4200         0.000       
      29       10.2445         0.000              10.1249         0.000       
      28        8.6348         0.000               8.5095         0.000       
      27        8.6180         0.000               8.4388         0.000       
      26        8.4806         0.000               8.2059         0.000       
      25        6.8291         0.000               6.5620         0.000       
      24        6.6914         0.000               6.3534         0.000       
      23        6.4710         0.000               6.1411         0.000       
      22        5.4249         0.000               5.3064         0.000       
      21        4.7918         0.000               4.7174         0.000       
      20        4.3982         0.000               4.2675         0.000       
      19        4.3004         0.000               3.9652         0.000       
      18        2.2380         0.000               2.2069         0.000       
      17        2.0243         0.000               2.0047         0.000       
      16        0.8166         0.000               0.7492         0.000       
      15        0.6095         0.000               0.5900         0.000       
      14        0.2956         0.000               0.1416         0.000       
      13        0.1902         0.000              -0.1356         0.000 < LUMO
      12       -3.1898         0.000 < LUMO       -4.5499         1.000 < HOMO
      11       -7.1641         1.000 < HOMO       -7.7178         1.000       
      10       -8.5573         1.000              -8.6218         1.000       
       9       -9.1420         1.000              -9.2739         1.000       
       8      -10.4266         1.000             -10.5609         1.000       
       7      -11.5000         1.000             -11.6092         1.000       
       6      -13.3940         1.000             -13.5516         1.000       
       5      -16.1350         1.000             -16.6212         1.000       
       4      -19.2634         1.000             -19.4983         1.000       
       3     -269.7794         1.000            -269.9870         1.000       
       2     -269.7799         1.000            -269.9887         1.000       
       1     -270.0821         1.000            -270.0295         1.000       

AMS application finished. Exiting.
NORMAL TERMINATION
     Total cpu time:      52.60
  Total system time:       0.40
 Total elapsed time:      53.32
