srun: Job 663090 step creation temporarily disabled, retrying (Requested nodes are busy)
srun: Job 663090 step creation still disabled, retrying (Requested nodes are busy)
srun: Job 663090 step creation still disabled, retrying (Requested nodes are busy)
srun: Job 663090 step creation still disabled, retrying (Requested nodes are busy)
srun: Job 663090 step creation still disabled, retrying (Requested nodes are busy)
srun: Step created for StepId=663090.38

 *******************************************************************************
 *                                                                             *
 *  --------------------------------                                           *
 *   Amsterdam Modeling Suite (AMS)              2026.103                      *
 *  --------------------------------                                           *
 *                                               r260501 2026-05-01 873454b5   *
 *                                                                             *
 *                                                                             *
 *                              =================                              *
 *                              |               |                              *
 *                              |     A M S     |                              *
 *                              |               |                              *
 *                              =================                              *
 *                                                                             *
 *                                                                             *
 *   Online information and documentation:  https://www.scm.com/support/       *
 *   E-mail:  support@scm.com   info@scm.com                                   *
 *                                                                             *
 *   Scientific publications using AMS results must be properly referenced     *
 *   See the User Manuals (or the web site) for recommended citations          *
 *   The terms and conditions of the End User License Agreement apply to       *
 *   the use of AMS, https://www.scm.com/license-terms/                        *
 *                                                                             *
 **********************  x86_64_linux_intel / intelmpi  ************************
 
 Licensed to: Jong-June Jeon / University of Seoul 2026-06-02 13:44:15
 SCM User ID: u30731
  
 AMS 2026.103  RunTime: Jun03-2026 23:33:29  ShM Nodes: 1  Procs: 1

 AMS jobname: c2_fragB_ts
 AMS jobid  : 1355179156

 Start   directory: /gpfs/home1/yeseo1ee/projects/eda-asm-prediction/ADF_800/adf_outputs/batch_006/qmrxn20_sn2_A_D_C_D_A_A/
 Results directory: /gpfs/home1/yeseo1ee/projects/eda-asm-prediction/ADF_800/adf_outputs/batch_006/qmrxn20_sn2_A_D_C_D_A_A/c2_fragB_ts.results/
 Scratch directory: /tmp/amstmp_c2_fragB_ts_kid0.1355179156/

 RNG seed: 1140783999 1971499803 -1037823935 1859162622 -1382941809 -704995266 -2024955094 -2070596656



                      ************************************************************************
                      *  ADF 2026.103  RunTime: Jun03-2026 23:33:29  ShM Nodes: 1  Procs: 1  *
                      ************************************************************************
  

       ****************************
       * SINGLE POINT CALCULATION *
       ****************************

--------
Geometry
--------
Formula: C5H8FN
Atoms
  Index Symbol   x (angstrom)   y (angstrom)   z (angstrom)
      1      C     0.29085734    -0.04659668     0.11538247
      2      H     1.70742647     1.55901171     0.19908115
      3      F    -1.34866940     0.18208973     0.49647165
      4      C     0.63189951     1.44098219     0.07166884
      5      H     0.03378236    -0.53667126    -0.80330436
      6      C     0.71440425    -0.84851190     1.32517579
      7      H     1.64119943    -0.46486970     1.75196383
      8      H    -0.08099367    -0.80095833     2.07475203
      9      H     0.89218786    -1.88708649     1.04478132
     10      C    -0.00796668     2.17892560     1.17432453
     11      N    -0.40089784     2.85201277     2.05404449
     12      C     0.21640861     2.02650809    -1.27308128
     13      H     0.78609640     1.49840957    -2.04245090
     14      H    -0.85149296     1.85635673    -1.41559575
     15      H     0.42530544     3.09837818    -1.33626942

Total System Charge              0.00000


----------------
ADF Engine Input
----------------
 
   Basis
     Type TZ2P
     Core None
   End
   XC
     GGA BLYP
     Dispersion GRIMME3 BJDAMP
   End
   Symmetry NOSYM
   NumericalQuality Normal
   Unrestricted No
   SCF
     Iterations 200
     Converge 1.0e-6
   End
   Save TAPE21
 

 Title: *** (NO TITLE) ***

 *** adf ***



 ===========================
 A T T A C H E D   F I L E S
 ===========================
  



 ===============================
 M O D E L   P A R A M E T E R S
 ===============================
  
 DENSITY FUNCTIONAL POTENTIAL (scf)
    LDA:                               Exchange only                           == Not Default ==
    Gradient Corrections:              Becke88 LYP                             == Not Default ==

 SPIN  (restricted / unrestr.)
    Molecule:                          Restricted                               
    Fragments:                         Restricted                               

 OTHER ASPECTS
    Relativistic Corrections:          scalar (ZORA,MAPA)                       

    Nuclear Charge Density Model:      Point Charge Nuclei                      
    Core Treatment:                    Frozen Orbital(s)                        

    Hyperfine or Zeeman Interaction:   ---                                      

 Settings for Grimme D3 dispersion correction

      damping                        BJ
      s6                          1.000
      s8                          2.700
      a1                          0.430
      a2                          4.236

 Other (technical) parameters

      alpha                      14.000
      version                         4
 


 Fragment File(s)
 ----------------
 C:
         file : /gpfs/home1/yeseo1ee/projects/eda-asm-prediction/ADF_800/adf_outputs/batch_006/qmrxn20_sn2_A_D_C_D_A_A/c2_fragB_ts.results/t21.50BA88D5.C
         jobid: 0
         title: Carbon (TZ2P)
 H:
         file : /gpfs/home1/yeseo1ee/projects/eda-asm-prediction/ADF_800/adf_outputs/batch_006/qmrxn20_sn2_A_D_C_D_A_A/c2_fragB_ts.results/t21.6F35CCAB.H
         jobid: 0
         title: Hydrogen (TZ2P)
 F:
         file : /gpfs/home1/yeseo1ee/projects/eda-asm-prediction/ADF_800/adf_outputs/batch_006/qmrxn20_sn2_A_D_C_D_A_A/c2_fragB_ts.results/t21.CCE1280.F
         jobid: 0
         title: Fluorine (TZ2P)
 N:
         file : /gpfs/home1/yeseo1ee/projects/eda-asm-prediction/ADF_800/adf_outputs/batch_006/qmrxn20_sn2_A_D_C_D_A_A/c2_fragB_ts.results/t21.44EAA48D.N
         jobid: 0
         title: Nitrogen (TZ2P)



 ===============
 G E O M E T R Y  ***  3D  Molecule  ***
 ===============
  

 ATOMS
 =====                            X Y Z                    CHARGE
                                (Angstrom)             Nucl     +Core       At.Mass
                       --------------------------    ----------------       -------
    1  C               0.2909   -0.0466    0.1154      6.00      6.00       12.0000
    2  H               1.7074    1.5590    0.1991      1.00      1.00        1.0078
    3  F              -1.3487    0.1821    0.4965      9.00      9.00       18.9984
    4  C               0.6319    1.4410    0.0717      6.00      6.00       12.0000
    5  H               0.0338   -0.5367   -0.8033      1.00      1.00        1.0078
    6  C               0.7144   -0.8485    1.3252      6.00      6.00       12.0000
    7  H               1.6412   -0.4649    1.7520      1.00      1.00        1.0078
    8  H              -0.0810   -0.8010    2.0748      1.00      1.00        1.0078
    9  H               0.8922   -1.8871    1.0448      1.00      1.00        1.0078
   10  C              -0.0080    2.1789    1.1743      6.00      6.00       12.0000
   11  N              -0.4009    2.8520    2.0540      7.00      7.00       14.0031
   12  C               0.2164    2.0265   -1.2731      6.00      6.00       12.0000
   13  H               0.7861    1.4984   -2.0425      1.00      1.00        1.0078
   14  H              -0.8515    1.8564   -1.4156      1.00      1.00        1.0078
   15  H               0.4253    3.0984   -1.3363      1.00      1.00        1.0078


 FRAGMENTS
 =========                                     Atoms in this Fragment     Cart. coord.s (Angstrom)
                                               -------------------------------------------------------
    1  C                                                 1  C            0.2909   -0.0466    0.1154
    2  C                                                 4  C            0.6319    1.4410    0.0717
    3  C                                                 6  C            0.7144   -0.8485    1.3252
    4  C                                                10  C           -0.0080    2.1789    1.1743
    5  C                                                12  C            0.2164    2.0265   -1.2731
    6  H                                                 2  H            1.7074    1.5590    0.1991
    7  H                                                 5  H            0.0338   -0.5367   -0.8033
    8  H                                                 7  H            1.6412   -0.4649    1.7520
    9  H                                                 8  H           -0.0810   -0.8010    2.0748
   10  H                                                 9  H            0.8922   -1.8871    1.0448
   11  H                                                13  H            0.7861    1.4984   -2.0425
   12  H                                                14  H           -0.8515    1.8564   -1.4156
   13  H                                                15  H            0.4253    3.0984   -1.3363
   14  F                                                 3  F           -1.3487    0.1821    0.4965
   15  N                                                11  N           -0.4009    2.8520    2.0540


 Interatomic Distance Matrix (Angstrom)
 --------------------------------------

   1)     0.000
   2)     2.143   0.000
   3)     1.699   3.365   0.000
   4)     1.527   1.089   2.385   0.000
   5)     1.072   2.863   2.029   2.244   0.000
   6)     1.512   2.837   2.451   2.611   2.256   0.000
   7)     2.163   2.552   3.307   2.734   3.020   1.090   0.000
   8)     2.132   3.505   2.250   3.090   2.892   1.094   1.784   0.000
   9)     2.148   3.641   3.099   3.477   2.445   1.090   1.756   1.785   0.000
  10)     2.483   2.068   2.499   1.473   3.360   3.116   3.169   3.114   4.166   0.000
  11)     3.555   3.092   3.233   2.643   4.454   3.933   3.907   3.667   5.015   1.175
          0.000
  12)     2.496   2.147   2.997   1.524   2.612   3.907   4.170   4.392   4.598   2.462
          3.483   0.000
  13)     2.700   2.424   3.569   2.121   2.499   4.105   4.357   4.795   4.583   3.382
          4.475   1.093   0.000
  14)     2.696   3.040   2.590   2.141   2.624   4.157   4.651   4.454   4.807   2.743
          3.638   1.091   1.790   0.000
  15)     3.466   2.524   3.874   2.184   3.695   4.769   4.870   5.205   5.545   2.709
          3.498   1.094   1.786   1.783   0.000

 Min. Distance =    1.0725
 Max. Distance =    5.5446



 =====================================
 S Y M M E T R Y ,   E L E C T R O N S
 =====================================
  
 Symmetry: NOSYM

 Irreducible Representations, including subspecies
 -------------------------------------------------
 A


 Configuration of Valence Electrons
 ==================================
 ( determined in the SCF procedure )

 Total:   54

 Net Charge: 0 (Nuclei minus Electrons)

 Aufbau principle for MO occupations will be applied through SCF cycle no.     100
 Thereafter, the program will assign electrons to MOs that are spatially
 similar to the occupied MOs in a "reference" cycle ("KeepOrbitals").
 The reference cycle is always the PREVIOUS cycle: it will evolve with
 the SCF procedure.
 ***************************************************************************************************



                                      ****************************************
                                      *  B U I L D : (Fragments, Functions)  *
                                      ****************************************
  



 =======
 S F O s  ***  (Symmetrized Fragment Orbitals)  ***
 =======
  
 SFOs are linear combinations of (valence) Fragment Orbitals (FOs), such that the SFOs transform as the
 irreducible representations of the (molecular) symmetry group. Each SFO is therefore characterized by
 an irrep of the molecule and by a few (or only one) generating FOs.
 The SFOs constitute a symmetry-adapted basis for the Fock matrix. The MO eigenvector coefficients in
 this basis provide a direct interpretation of the MOs in terms of Frontier Orbital Theory.

 The SFOs are combined with auxiliary Core Functions (CFs) to ensure orthogonalization on the (frozen)
 Core Orbitals (COs). The Core-orthogonalized SFOs (CSFOs) constitute the true Fock basis.

 The FOs, and hence also the (C)SFOs are combinations of the elementary basis functions (BAS). The basis
 functions that participate in the description of the SFOs depend on the irrep. The indices of the
 involved functions are printed below for each irrep.
 (The complete list of primitive basis functions is printed in another section)

 Total nr. of (C)SFOs (summation over all irreps) :   270

 NOTE: a (C)SFO that is defined as a combination of more than one FO is usually NOT normalized.



                                       === A ===
 Nr. of SFOs :  270
 Cartesian basis functions that participate in this irrep (total number =   306) :
      1     2     3     4     5     6     9    12     7    10
     13     8    11    14    15    16    17    18    19    20
     21    22    23    24    25    26    27    28    29    30
     31    32    33    34    35    36    39    42    37    40
     43    38    41    44    45    46    47    48    49    50
     51    52    53    54    55    56    57    58    59    60
     61    62    63    64    65    66    69    72    67    70
     73    68    71    74    75    76    77    78    79    80
     81    82    83    84    85    86    87    88    89    90
     91    92    93    94    95    96    99   102    97   100
    103    98   101   104   105   106   107   108   109   110
    111   112   113   114   115   116   117   118   119   120
    121   122   123   124   125   126   129   132   127   130
    133   128   131   134   135   136   137   138   139   140
    141   142   143   144   145   146   147   148   149   150
    151   152   153   154   155   156   157   158   159   160
    161   162   163   164   165   166   167   168   169   170
    171   172   173   174   175   176   177   178   179   180
    181   182   183   184   185   186   187   188   189   190
    191   192   193   194   195   196   197   198   199   200
    201   202   203   204   205   206   207   208   209   210
    211   212   213   214   215   216   217   218   219   220
    221   222   223   224   225   226   227   228   229   230
    231   232   233   234   235   236   237   238   239   240
    241   242   243   244   245   246   247   248   249   250
    251   252   255   258   253   256   259   254   257   260
    261   262   263   264   265   266   267   268   269   270
    271   272   273   274   275   276   277   278   279   280
    281   282   285   288   283   286   289   284   287   290
    291   292   293   294   295   296   297   298   299   300
    301   302   303   304   305   306

    SFO  (index         Fragment          Generating    Expansion in Fragment Orbitals
  indx  incl.CFs)   Occup   Orb.Energy   FragmentType  Coeff.   Orbital     on Fragment
 --------------------------------------------------------------------------------------
     1       1      2.000     -10.066 au  C             1.00      1 S               1
                        (    -273.921 eV)
     2       2      2.000      -0.501 au  C             1.00      2 S               1
                        (     -13.620 eV)
     3       3       --         0.373 au  C             1.00      3 S               1
                        (      10.158 eV)
     4       4       --         5.405 au  C             1.00      4 S               1
                        (     147.073 eV)
     5       5       --        49.848 au  C             1.00      5 S               1
                        (    1356.422 eV)
     6       6      0.667      -0.193 au  C             1.00      1 P:x             1
                        (      -5.239 eV)
     7       7       --         0.169 au  C             1.00      2 P:x             1
                        (       4.589 eV)
     8       8       --         2.013 au  C             1.00      3 P:x             1
                        (      54.789 eV)
     9       9      0.667      -0.193 au  C             1.00      1 P:y             1
                        (      -5.239 eV)
    10      10       --         0.169 au  C             1.00      2 P:y             1
                        (       4.589 eV)
    11      11       --         2.013 au  C             1.00      3 P:y             1
                        (      54.789 eV)
    12      12      0.667      -0.193 au  C             1.00      1 P:z             1
                        (      -5.239 eV)
    13      13       --         0.169 au  C             1.00      2 P:z             1
                        (       4.589 eV)
    14      14       --         2.013 au  C             1.00      3 P:z             1
                        (      54.789 eV)
    15      15       --         1.243 au  C             1.00      1 D:z2            1
                        (      33.824 eV)
    16      16       --         1.243 au  C             1.00      1 D:x2-y2         1
                        (      33.824 eV)
    17      17       --         1.243 au  C             1.00      1 D:xy            1
                        (      33.824 eV)
    18      18       --         1.243 au  C             1.00      1 D:xz            1
                        (      33.824 eV)
    19      19       --         1.243 au  C             1.00      1 D:yz            1
                        (      33.824 eV)
    20      20       --         4.016 au  C             1.00      1 F:z3            1
                        (     109.271 eV)
    21      21       --         4.016 au  C             1.00      1 F:z             1
                        (     109.271 eV)
    22      22       --         4.016 au  C             1.00      1 F:xyz           1
                        (     109.271 eV)
    23      23       --         4.016 au  C             1.00      1 F:z2x           1
                        (     109.271 eV)
    24      24       --         4.016 au  C             1.00      1 F:z2y           1
                        (     109.271 eV)
    25      25       --         4.016 au  C             1.00      1 F:x             1
                        (     109.271 eV)
    26      26       --         4.016 au  C             1.00      1 F:y             1
                        (     109.271 eV)
    27      27      2.000     -10.066 au  C             1.00      1 S               2
                        (    -273.921 eV)
    28      28      2.000      -0.501 au  C             1.00      2 S               2
                        (     -13.620 eV)
    29      29       --         0.373 au  C             1.00      3 S               2
                        (      10.158 eV)
    30      30       --         5.405 au  C             1.00      4 S               2
                        (     147.073 eV)
    31      31       --        49.848 au  C             1.00      5 S               2
                        (    1356.422 eV)
    32      32      0.667      -0.193 au  C             1.00      1 P:x             2
                        (      -5.239 eV)
    33      33       --         0.169 au  C             1.00      2 P:x             2
                        (       4.589 eV)
    34      34       --         2.013 au  C             1.00      3 P:x             2
                        (      54.789 eV)
    35      35      0.667      -0.193 au  C             1.00      1 P:y             2
                        (      -5.239 eV)
    36      36       --         0.169 au  C             1.00      2 P:y             2
                        (       4.589 eV)
    37      37       --         2.013 au  C             1.00      3 P:y             2
                        (      54.789 eV)
    38      38      0.667      -0.193 au  C             1.00      1 P:z             2
                        (      -5.239 eV)
    39      39       --         0.169 au  C             1.00      2 P:z             2
                        (       4.589 eV)
    40      40       --         2.013 au  C             1.00      3 P:z             2
                        (      54.789 eV)
    41      41       --         1.243 au  C             1.00      1 D:z2            2
                        (      33.824 eV)
    42      42       --         1.243 au  C             1.00      1 D:x2-y2         2
                        (      33.824 eV)
    43      43       --         1.243 au  C             1.00      1 D:xy            2
                        (      33.824 eV)
    44      44       --         1.243 au  C             1.00      1 D:xz            2
                        (      33.824 eV)
    45      45       --         1.243 au  C             1.00      1 D:yz            2
                        (      33.824 eV)
    46      46       --         4.016 au  C             1.00      1 F:z3            2
                        (     109.271 eV)
    47      47       --         4.016 au  C             1.00      1 F:z             2
                        (     109.271 eV)
    48      48       --         4.016 au  C             1.00      1 F:xyz           2
                        (     109.271 eV)
    49      49       --         4.016 au  C             1.00      1 F:z2x           2
                        (     109.271 eV)
    50      50       --         4.016 au  C             1.00      1 F:z2y           2
                        (     109.271 eV)
    51      51       --         4.016 au  C             1.00      1 F:x             2
                        (     109.271 eV)
    52      52       --         4.016 au  C             1.00      1 F:y             2
                        (     109.271 eV)
    53      53      2.000     -10.066 au  C             1.00      1 S               3
                        (    -273.921 eV)
    54      54      2.000      -0.501 au  C             1.00      2 S               3
                        (     -13.620 eV)
    55      55       --         0.373 au  C             1.00      3 S               3
                        (      10.158 eV)
    56      56       --         5.405 au  C             1.00      4 S               3
                        (     147.073 eV)
    57      57       --        49.848 au  C             1.00      5 S               3
                        (    1356.422 eV)
    58      58      0.667      -0.193 au  C             1.00      1 P:x             3
                        (      -5.239 eV)
    59      59       --         0.169 au  C             1.00      2 P:x             3
                        (       4.589 eV)
    60      60       --         2.013 au  C             1.00      3 P:x             3
                        (      54.789 eV)
    61      61      0.667      -0.193 au  C             1.00      1 P:y             3
                        (      -5.239 eV)
    62      62       --         0.169 au  C             1.00      2 P:y             3
                        (       4.589 eV)
    63      63       --         2.013 au  C             1.00      3 P:y             3
                        (      54.789 eV)
    64      64      0.667      -0.193 au  C             1.00      1 P:z             3
                        (      -5.239 eV)
    65      65       --         0.169 au  C             1.00      2 P:z             3
                        (       4.589 eV)
    66      66       --         2.013 au  C             1.00      3 P:z             3
                        (      54.789 eV)
    67      67       --         1.243 au  C             1.00      1 D:z2            3
                        (      33.824 eV)
    68      68       --         1.243 au  C             1.00      1 D:x2-y2         3
                        (      33.824 eV)
    69      69       --         1.243 au  C             1.00      1 D:xy            3
                        (      33.824 eV)
    70      70       --         1.243 au  C             1.00      1 D:xz            3
                        (      33.824 eV)
    71      71       --         1.243 au  C             1.00      1 D:yz            3
                        (      33.824 eV)
    72      72       --         4.016 au  C             1.00      1 F:z3            3
                        (     109.271 eV)
    73      73       --         4.016 au  C             1.00      1 F:z             3
                        (     109.271 eV)
    74      74       --         4.016 au  C             1.00      1 F:xyz           3
                        (     109.271 eV)
    75      75       --         4.016 au  C             1.00      1 F:z2x           3
                        (     109.271 eV)
    76      76       --         4.016 au  C             1.00      1 F:z2y           3
                        (     109.271 eV)
    77      77       --         4.016 au  C             1.00      1 F:x             3
                        (     109.271 eV)
    78      78       --         4.016 au  C             1.00      1 F:y             3
                        (     109.271 eV)
    79      79      2.000     -10.066 au  C             1.00      1 S               4
                        (    -273.921 eV)
    80      80      2.000      -0.501 au  C             1.00      2 S               4
                        (     -13.620 eV)
    81      81       --         0.373 au  C             1.00      3 S               4
                        (      10.158 eV)
    82      82       --         5.405 au  C             1.00      4 S               4
                        (     147.073 eV)
    83      83       --        49.848 au  C             1.00      5 S               4
                        (    1356.422 eV)
    84      84      0.667      -0.193 au  C             1.00      1 P:x             4
                        (      -5.239 eV)
    85      85       --         0.169 au  C             1.00      2 P:x             4
                        (       4.589 eV)
    86      86       --         2.013 au  C             1.00      3 P:x             4
                        (      54.789 eV)
    87      87      0.667      -0.193 au  C             1.00      1 P:y             4
                        (      -5.239 eV)
    88      88       --         0.169 au  C             1.00      2 P:y             4
                        (       4.589 eV)
    89      89       --         2.013 au  C             1.00      3 P:y             4
                        (      54.789 eV)
    90      90      0.667      -0.193 au  C             1.00      1 P:z             4
                        (      -5.239 eV)
    91      91       --         0.169 au  C             1.00      2 P:z             4
                        (       4.589 eV)
    92      92       --         2.013 au  C             1.00      3 P:z             4
                        (      54.789 eV)
    93      93       --         1.243 au  C             1.00      1 D:z2            4
                        (      33.824 eV)
    94      94       --         1.243 au  C             1.00      1 D:x2-y2         4
                        (      33.824 eV)
    95      95       --         1.243 au  C             1.00      1 D:xy            4
                        (      33.824 eV)
    96      96       --         1.243 au  C             1.00      1 D:xz            4
                        (      33.824 eV)
    97      97       --         1.243 au  C             1.00      1 D:yz            4
                        (      33.824 eV)
    98      98       --         4.016 au  C             1.00      1 F:z3            4
                        (     109.271 eV)
    99      99       --         4.016 au  C             1.00      1 F:z             4
                        (     109.271 eV)
   100     100       --         4.016 au  C             1.00      1 F:xyz           4
                        (     109.271 eV)
   101     101       --         4.016 au  C             1.00      1 F:z2x           4
                        (     109.271 eV)
   102     102       --         4.016 au  C             1.00      1 F:z2y           4
                        (     109.271 eV)
   103     103       --         4.016 au  C             1.00      1 F:x             4
                        (     109.271 eV)
   104     104       --         4.016 au  C             1.00      1 F:y             4
                        (     109.271 eV)
   105     105      2.000     -10.066 au  C             1.00      1 S               5
                        (    -273.921 eV)
   106     106      2.000      -0.501 au  C             1.00      2 S               5
                        (     -13.620 eV)
   107     107       --         0.373 au  C             1.00      3 S               5
                        (      10.158 eV)
   108     108       --         5.405 au  C             1.00      4 S               5
                        (     147.073 eV)
   109     109       --        49.848 au  C             1.00      5 S               5
                        (    1356.422 eV)
   110     110      0.667      -0.193 au  C             1.00      1 P:x             5
                        (      -5.239 eV)
   111     111       --         0.169 au  C             1.00      2 P:x             5
                        (       4.589 eV)
   112     112       --         2.013 au  C             1.00      3 P:x             5
                        (      54.789 eV)
   113     113      0.667      -0.193 au  C             1.00      1 P:y             5
                        (      -5.239 eV)
   114     114       --         0.169 au  C             1.00      2 P:y             5
                        (       4.589 eV)
   115     115       --         2.013 au  C             1.00      3 P:y             5
                        (      54.789 eV)
   116     116      0.667      -0.193 au  C             1.00      1 P:z             5
                        (      -5.239 eV)
   117     117       --         0.169 au  C             1.00      2 P:z             5
                        (       4.589 eV)
   118     118       --         2.013 au  C             1.00      3 P:z             5
                        (      54.789 eV)
   119     119       --         1.243 au  C             1.00      1 D:z2            5
                        (      33.824 eV)
   120     120       --         1.243 au  C             1.00      1 D:x2-y2         5
                        (      33.824 eV)
   121     121       --         1.243 au  C             1.00      1 D:xy            5
                        (      33.824 eV)
   122     122       --         1.243 au  C             1.00      1 D:xz            5
                        (      33.824 eV)
   123     123       --         1.243 au  C             1.00      1 D:yz            5
                        (      33.824 eV)
   124     124       --         4.016 au  C             1.00      1 F:z3            5
                        (     109.271 eV)
   125     125       --         4.016 au  C             1.00      1 F:z             5
                        (     109.271 eV)
   126     126       --         4.016 au  C             1.00      1 F:xyz           5
                        (     109.271 eV)
   127     127       --         4.016 au  C             1.00      1 F:z2x           5
                        (     109.271 eV)
   128     128       --         4.016 au  C             1.00      1 F:z2y           5
                        (     109.271 eV)
   129     129       --         4.016 au  C             1.00      1 F:x             5
                        (     109.271 eV)
   130     130       --         4.016 au  C             1.00      1 F:y             5
                        (     109.271 eV)
   131     131      1.000      -0.240 au  H             1.00      1 S               6
                        (      -6.532 eV)
   132     132       --         0.088 au  H             1.00      2 S               6
                        (       2.394 eV)
   133     133       --         1.502 au  H             1.00      3 S               6
                        (      40.869 eV)
   134     134       --         0.406 au  H             1.00      1 P:x             6
                        (      11.051 eV)
   135     135       --         0.406 au  H             1.00      1 P:y             6
                        (      11.051 eV)
   136     136       --         0.406 au  H             1.00      1 P:z             6
                        (      11.051 eV)
   137     137       --         2.569 au  H             1.00      1 D:z2            6
                        (      69.917 eV)
   138     138       --         2.569 au  H             1.00      1 D:x2-y2         6
                        (      69.917 eV)
   139     139       --         2.569 au  H             1.00      1 D:xy            6
                        (      69.917 eV)
   140     140       --         2.569 au  H             1.00      1 D:xz            6
                        (      69.917 eV)
   141     141       --         2.569 au  H             1.00      1 D:yz            6
                        (      69.917 eV)
   142     142      1.000      -0.240 au  H             1.00      1 S               7
                        (      -6.532 eV)
   143     143       --         0.088 au  H             1.00      2 S               7
                        (       2.394 eV)
   144     144       --         1.502 au  H             1.00      3 S               7
                        (      40.869 eV)
   145     145       --         0.406 au  H             1.00      1 P:x             7
                        (      11.051 eV)
   146     146       --         0.406 au  H             1.00      1 P:y             7
                        (      11.051 eV)
   147     147       --         0.406 au  H             1.00      1 P:z             7
                        (      11.051 eV)
   148     148       --         2.569 au  H             1.00      1 D:z2            7
                        (      69.917 eV)
   149     149       --         2.569 au  H             1.00      1 D:x2-y2         7
                        (      69.917 eV)
   150     150       --         2.569 au  H             1.00      1 D:xy            7
                        (      69.917 eV)
   151     151       --         2.569 au  H             1.00      1 D:xz            7
                        (      69.917 eV)
   152     152       --         2.569 au  H             1.00      1 D:yz            7
                        (      69.917 eV)
   153     153      1.000      -0.240 au  H             1.00      1 S               8
                        (      -6.532 eV)
   154     154       --         0.088 au  H             1.00      2 S               8
                        (       2.394 eV)
   155     155       --         1.502 au  H             1.00      3 S               8
                        (      40.869 eV)
   156     156       --         0.406 au  H             1.00      1 P:x             8
                        (      11.051 eV)
   157     157       --         0.406 au  H             1.00      1 P:y             8
                        (      11.051 eV)
   158     158       --         0.406 au  H             1.00      1 P:z             8
                        (      11.051 eV)
   159     159       --         2.569 au  H             1.00      1 D:z2            8
                        (      69.917 eV)
   160     160       --         2.569 au  H             1.00      1 D:x2-y2         8
                        (      69.917 eV)
   161     161       --         2.569 au  H             1.00      1 D:xy            8
                        (      69.917 eV)
   162     162       --         2.569 au  H             1.00      1 D:xz            8
                        (      69.917 eV)
   163     163       --         2.569 au  H             1.00      1 D:yz            8
                        (      69.917 eV)
   164     164      1.000      -0.240 au  H             1.00      1 S               9
                        (      -6.532 eV)
   165     165       --         0.088 au  H             1.00      2 S               9
                        (       2.394 eV)
   166     166       --         1.502 au  H             1.00      3 S               9
                        (      40.869 eV)
   167     167       --         0.406 au  H             1.00      1 P:x             9
                        (      11.051 eV)
   168     168       --         0.406 au  H             1.00      1 P:y             9
                        (      11.051 eV)
   169     169       --         0.406 au  H             1.00      1 P:z             9
                        (      11.051 eV)
   170     170       --         2.569 au  H             1.00      1 D:z2            9
                        (      69.917 eV)
   171     171       --         2.569 au  H             1.00      1 D:x2-y2         9
                        (      69.917 eV)
   172     172       --         2.569 au  H             1.00      1 D:xy            9
                        (      69.917 eV)
   173     173       --         2.569 au  H             1.00      1 D:xz            9
                        (      69.917 eV)
   174     174       --         2.569 au  H             1.00      1 D:yz            9
                        (      69.917 eV)
   175     175      1.000      -0.240 au  H             1.00      1 S              10
                        (      -6.532 eV)
   176     176       --         0.088 au  H             1.00      2 S              10
                        (       2.394 eV)
   177     177       --         1.502 au  H             1.00      3 S              10
                        (      40.869 eV)
   178     178       --         0.406 au  H             1.00      1 P:x            10
                        (      11.051 eV)
   179     179       --         0.406 au  H             1.00      1 P:y            10
                        (      11.051 eV)
   180     180       --         0.406 au  H             1.00      1 P:z            10
                        (      11.051 eV)
   181     181       --         2.569 au  H             1.00      1 D:z2           10
                        (      69.917 eV)
   182     182       --         2.569 au  H             1.00      1 D:x2-y2        10
                        (      69.917 eV)
   183     183       --         2.569 au  H             1.00      1 D:xy           10
                        (      69.917 eV)
   184     184       --         2.569 au  H             1.00      1 D:xz           10
                        (      69.917 eV)
   185     185       --         2.569 au  H             1.00      1 D:yz           10
                        (      69.917 eV)
   186     186      1.000      -0.240 au  H             1.00      1 S              11
                        (      -6.532 eV)
   187     187       --         0.088 au  H             1.00      2 S              11
                        (       2.394 eV)
   188     188       --         1.502 au  H             1.00      3 S              11
                        (      40.869 eV)
   189     189       --         0.406 au  H             1.00      1 P:x            11
                        (      11.051 eV)
   190     190       --         0.406 au  H             1.00      1 P:y            11
                        (      11.051 eV)
   191     191       --         0.406 au  H             1.00      1 P:z            11
                        (      11.051 eV)
   192     192       --         2.569 au  H             1.00      1 D:z2           11
                        (      69.917 eV)
   193     193       --         2.569 au  H             1.00      1 D:x2-y2        11
                        (      69.917 eV)
   194     194       --         2.569 au  H             1.00      1 D:xy           11
                        (      69.917 eV)
   195     195       --         2.569 au  H             1.00      1 D:xz           11
                        (      69.917 eV)
   196     196       --         2.569 au  H             1.00      1 D:yz           11
                        (      69.917 eV)
   197     197      1.000      -0.240 au  H             1.00      1 S              12
                        (      -6.532 eV)
   198     198       --         0.088 au  H             1.00      2 S              12
                        (       2.394 eV)
   199     199       --         1.502 au  H             1.00      3 S              12
                        (      40.869 eV)
   200     200       --         0.406 au  H             1.00      1 P:x            12
                        (      11.051 eV)
   201     201       --         0.406 au  H             1.00      1 P:y            12
                        (      11.051 eV)
   202     202       --         0.406 au  H             1.00      1 P:z            12
                        (      11.051 eV)
   203     203       --         2.569 au  H             1.00      1 D:z2           12
                        (      69.917 eV)
   204     204       --         2.569 au  H             1.00      1 D:x2-y2        12
                        (      69.917 eV)
   205     205       --         2.569 au  H             1.00      1 D:xy           12
                        (      69.917 eV)
   206     206       --         2.569 au  H             1.00      1 D:xz           12
                        (      69.917 eV)
   207     207       --         2.569 au  H             1.00      1 D:yz           12
                        (      69.917 eV)
   208     208      1.000      -0.240 au  H             1.00      1 S              13
                        (      -6.532 eV)
   209     209       --         0.088 au  H             1.00      2 S              13
                        (       2.394 eV)
   210     210       --         1.502 au  H             1.00      3 S              13
                        (      40.869 eV)
   211     211       --         0.406 au  H             1.00      1 P:x            13
                        (      11.051 eV)
   212     212       --         0.406 au  H             1.00      1 P:y            13
                        (      11.051 eV)
   213     213       --         0.406 au  H             1.00      1 P:z            13
                        (      11.051 eV)
   214     214       --         2.569 au  H             1.00      1 D:z2           13
                        (      69.917 eV)
   215     215       --         2.569 au  H             1.00      1 D:x2-y2        13
                        (      69.917 eV)
   216     216       --         2.569 au  H             1.00      1 D:xy           13
                        (      69.917 eV)
   217     217       --         2.569 au  H             1.00      1 D:xz           13
                        (      69.917 eV)
   218     218       --         2.569 au  H             1.00      1 D:yz           13
                        (      69.917 eV)
   219     219      2.000     -24.402 au  F             1.00      1 S              14
                        (    -664.014 eV)
   220     220      2.000      -1.095 au  F             1.00      2 S              14
                        (     -29.785 eV)
   221     221       --         0.023 au  F             1.00      3 S              14
                        (       0.624 eV)
   222     222       --         1.576 au  F             1.00      4 S              14
                        (      42.880 eV)
   223     223       --        47.803 au  F             1.00      5 S              14
                        (    1300.785 eV)
   224     224      1.667      -0.409 au  F             1.00      1 P:x            14
                        (     -11.127 eV)
   225     225       --         0.428 au  F             1.00      2 P:x            14
                        (      11.654 eV)
   226     226       --         4.556 au  F             1.00      3 P:x            14
                        (     123.977 eV)
   227     227      1.667      -0.409 au  F             1.00      1 P:y            14
                        (     -11.127 eV)
   228     228       --         0.428 au  F             1.00      2 P:y            14
                        (      11.654 eV)
   229     229       --         4.556 au  F             1.00      3 P:y            14
                        (     123.977 eV)
   230     230      1.667      -0.409 au  F             1.00      1 P:z            14
                        (     -11.127 eV)
   231     231       --         0.428 au  F             1.00      2 P:z            14
                        (      11.654 eV)
   232     232       --         4.556 au  F             1.00      3 P:z            14
                        (     123.977 eV)
   233     233       --         1.117 au  F             1.00      1 D:z2           14
                        (      30.390 eV)
   234     234       --         1.117 au  F             1.00      1 D:x2-y2        14
                        (      30.390 eV)
   235     235       --         1.117 au  F             1.00      1 D:xy           14
                        (      30.390 eV)
   236     236       --         1.117 au  F             1.00      1 D:xz           14
                        (      30.390 eV)
   237     237       --         1.117 au  F             1.00      1 D:yz           14
                        (      30.390 eV)
   238     238       --         3.416 au  F             1.00      1 F:z3           14
                        (      92.949 eV)
   239     239       --         3.416 au  F             1.00      1 F:z            14
                        (      92.949 eV)
   240     240       --         3.416 au  F             1.00      1 F:xyz          14
                        (      92.949 eV)
   241     241       --         3.416 au  F             1.00      1 F:z2x          14
                        (      92.949 eV)
   242     242       --         3.416 au  F             1.00      1 F:z2y          14
                        (      92.949 eV)
   243     243       --         3.416 au  F             1.00      1 F:x            14
                        (      92.949 eV)
   244     244       --         3.416 au  F             1.00      1 F:y            14
                        (      92.949 eV)
   245     245      2.000     -14.160 au  N             1.00      1 S              15
                        (    -385.319 eV)
   246     246      2.000      -0.678 au  N             1.00      2 S              15
                        (     -18.450 eV)
   247     247       --         0.517 au  N             1.00      3 S              15
                        (      14.073 eV)
   248     248       --         6.872 au  N             1.00      4 S              15
                        (     186.990 eV)
   249     249       --        63.432 au  N             1.00      5 S              15
                        (    1726.082 eV)
   250     250      1.000      -0.260 au  N             1.00      1 P:x            15
                        (      -7.062 eV)
   251     251       --         0.281 au  N             1.00      2 P:x            15
                        (       7.649 eV)
   252     252       --         3.275 au  N             1.00      3 P:x            15
                        (      89.105 eV)
   253     253      1.000      -0.260 au  N             1.00      1 P:y            15
                        (      -7.062 eV)
   254     254       --         0.281 au  N             1.00      2 P:y            15
                        (       7.649 eV)
   255     255       --         3.275 au  N             1.00      3 P:y            15
                        (      89.105 eV)
   256     256      1.000      -0.260 au  N             1.00      1 P:z            15
                        (      -7.062 eV)
   257     257       --         0.281 au  N             1.00      2 P:z            15
                        (       7.649 eV)
   258     258       --         3.275 au  N             1.00      3 P:z            15
                        (      89.105 eV)
   259     259       --         1.250 au  N             1.00      1 D:z2           15
                        (      34.005 eV)
   260     260       --         1.250 au  N             1.00      1 D:x2-y2        15
                        (      34.005 eV)
   261     261       --         1.250 au  N             1.00      1 D:xy           15
                        (      34.005 eV)
   262     262       --         1.250 au  N             1.00      1 D:xz           15
                        (      34.005 eV)
   263     263       --         1.250 au  N             1.00      1 D:yz           15
                        (      34.005 eV)
   264     264       --         4.013 au  N             1.00      1 F:z3           15
                        (     109.190 eV)
   265     265       --         4.013 au  N             1.00      1 F:z            15
                        (     109.190 eV)
   266     266       --         4.013 au  N             1.00      1 F:xyz          15
                        (     109.190 eV)
   267     267       --         4.013 au  N             1.00      1 F:z2x          15
                        (     109.190 eV)
   268     268       --         4.013 au  N             1.00      1 F:z2y          15
                        (     109.190 eV)
   269     269       --         4.013 au  N             1.00      1 F:x            15
                        (     109.190 eV)
   270     270       --         4.013 au  N             1.00      1 F:y            15
                        (     109.190 eV)



 ================================
 (Slater-type)  F U N C T I O N S  ***  (Basis and Fit)  ***
 ================================
  

 Atom Type    1  (C)
 ==============

 Valence Basis Sets:  10
 -----------------------
   1 S    7.680000
   1 S    5.000000
   2 S    1.280000
   2 S    2.100000
   2 S    4.600000
   2 P    0.820000
   2 P    1.480000
   2 P    2.940000
   3 D    2.200000
   4 F    3.300000

 Atom Type    2  (H)
 ==============

 Valence Basis Sets:   5
 -----------------------
   1 S    0.690000
   1 S    0.920000
   1 S    1.580000
   2 P    1.250000
   3 D    2.500000

 Atom Type    3  (F)
 ==============

 Valence Basis Sets:  10
 -----------------------
   1 S   10.880000
   1 S    7.700000
   2 S    3.240000
   2 S    1.940000
   2 S    0.740000
   2 P    4.540000
   2 P    2.300000
   2 P    1.240000
   3 D    2.000000
   4 F    3.000000

 Atom Type    4  (N)
 ==============

 Valence Basis Sets:  10
 -----------------------
   1 S    8.740000
   1 S    5.900000
   2 S    5.150000
   2 S    2.500000
   2 S    1.500000
   2 P    3.680000
   2 P    1.880000
   2 P    1.000000
   3 D    2.200000
   4 F    3.300000


 BAS: List of all Elementary Cartesian Basis Functions
 =====================================================

 The numbering in the list below (to the right of the function characteristics) is referred
 to in print-outs of MO eigenvectors and Mulliken populations in the BAS representation
 (as contrasted to the SFO representation).

 Notes:
 1. The functions are characterized by a polynomial prefactor (powers of x,y,z and r) and
    an exponential decay factor alpha.
 2. Since the basis sets are specific for an atom TYPE, the individual functions occur on
    all atoms of that type.
 3. The word 'Core' in the left margin signals that it is a Core Function (CF) : not a
    degree of freedom in the valence set, but only used to ensure orthogonalization of
    the other valence basis functions on the frozen Core Orbitals.


 (power of) X  Y  Z  R     Alpha  on Atom
            ==========     =====     ==========

 C                                    1    2    3    4    5
                                  ---------------------------------------------------------------------------
            0  0  0  0     7.680      1   31   61   91  121
            0  0  0  0     5.000      2   32   62   92  122
            0  0  0  1     1.280      3   33   63   93  123
            0  0  0  1     2.100      4   34   64   94  124
            0  0  0  1     4.600      5   35   65   95  125
            1  0  0  0     0.820      6   36   66   96  126
            0  1  0  0     0.820      7   37   67   97  127
            0  0  1  0     0.820      8   38   68   98  128
            1  0  0  0     1.480      9   39   69   99  129
            0  1  0  0     1.480     10   40   70  100  130
            0  0  1  0     1.480     11   41   71  101  131
            1  0  0  0     2.940     12   42   72  102  132
            0  1  0  0     2.940     13   43   73  103  133
            0  0  1  0     2.940     14   44   74  104  134
            2  0  0  0     2.200     15   45   75  105  135
            1  1  0  0     2.200     16   46   76  106  136
            1  0  1  0     2.200     17   47   77  107  137
            0  2  0  0     2.200     18   48   78  108  138
            0  1  1  0     2.200     19   49   79  109  139
            0  0  2  0     2.200     20   50   80  110  140
            3  0  0  0     3.300     21   51   81  111  141
            2  1  0  0     3.300     22   52   82  112  142
            2  0  1  0     3.300     23   53   83  113  143
            1  2  0  0     3.300     24   54   84  114  144
            1  1  1  0     3.300     25   55   85  115  145
            1  0  2  0     3.300     26   56   86  116  146
            0  3  0  0     3.300     27   57   87  117  147
            0  2  1  0     3.300     28   58   88  118  148
            0  1  2  0     3.300     29   59   89  119  149
            0  0  3  0     3.300     30   60   90  120  150

 H                                    6    7    8    9   10   11   12   13
                                  ---------------------------------------------------------------------------
            0  0  0  0     0.690    151  163  175  187  199  211  223  235
            0  0  0  0     0.920    152  164  176  188  200  212  224  236
            0  0  0  0     1.580    153  165  177  189  201  213  225  237
            1  0  0  0     1.250    154  166  178  190  202  214  226  238
            0  1  0  0     1.250    155  167  179  191  203  215  227  239
            0  0  1  0     1.250    156  168  180  192  204  216  228  240
            2  0  0  0     2.500    157  169  181  193  205  217  229  241
            1  1  0  0     2.500    158  170  182  194  206  218  230  242
            1  0  1  0     2.500    159  171  183  195  207  219  231  243
            0  2  0  0     2.500    160  172  184  196  208  220  232  244
            0  1  1  0     2.500    161  173  185  197  209  221  233  245
            0  0  2  0     2.500    162  174  186  198  210  222  234  246

 F                                   14
                                  ---------------------------------------------------------------------------
            0  0  0  0    10.880    247
            0  0  0  0     7.700    248
            0  0  0  1     3.240    249
            0  0  0  1     1.940    250
            0  0  0  1     0.740    251
            1  0  0  0     4.540    252
            0  1  0  0     4.540    253
            0  0  1  0     4.540    254
            1  0  0  0     2.300    255
            0  1  0  0     2.300    256
            0  0  1  0     2.300    257
            1  0  0  0     1.240    258
            0  1  0  0     1.240    259
            0  0  1  0     1.240    260
            2  0  0  0     2.000    261
            1  1  0  0     2.000    262
            1  0  1  0     2.000    263
            0  2  0  0     2.000    264
            0  1  1  0     2.000    265
            0  0  2  0     2.000    266
            3  0  0  0     3.000    267
            2  1  0  0     3.000    268
            2  0  1  0     3.000    269
            1  2  0  0     3.000    270
            1  1  1  0     3.000    271
            1  0  2  0     3.000    272
            0  3  0  0     3.000    273
            0  2  1  0     3.000    274
            0  1  2  0     3.000    275
            0  0  3  0     3.000    276

 N                                   15
                                  ---------------------------------------------------------------------------
            0  0  0  0     8.740    277
            0  0  0  0     5.900    278
            0  0  0  1     5.150    279
            0  0  0  1     2.500    280
            0  0  0  1     1.500    281
            1  0  0  0     3.680    282
            0  1  0  0     3.680    283
            0  0  1  0     3.680    284
            1  0  0  0     1.880    285
            0  1  0  0     1.880    286
            0  0  1  0     1.880    287
            1  0  0  0     1.000    288
            0  1  0  0     1.000    289
            0  0  1  0     1.000    290
            2  0  0  0     2.200    291
            1  1  0  0     2.200    292
            1  0  1  0     2.200    293
            0  2  0  0     2.200    294
            0  1  1  0     2.200    295
            0  0  2  0     2.200    296
            3  0  0  0     3.300    297
            2  1  0  0     3.300    298
            2  0  1  0     3.300    299
            1  2  0  0     3.300    300
            1  1  1  0     3.300    301
            1  0  2  0     3.300    302
            0  3  0  0     3.300    303
            0  2  1  0     3.300    304
            0  1  2  0     3.300    305
            0  0  3  0     3.300    306

 Total number of charge fitting functions (nprimf)       989
 Total number of Cartesian basis functions (naos)        306
 Total number of Cartesian core functions  (ncos)          0

 ***************************************************************************************************



                                              ***********************
                                              *  T E C H N I C A L  *
                                              ***********************
  



 =============================================================
 P A R A L L E L I Z A T I O N  and  V E C T O R I Z A T I O N
 =============================================================
  
 Nr of parallel processes:                                1
 Maximum vector length in NumInt loops:                 128



 =====================
 S C F   U P D A T E S
 =====================
  
 Max. nr. of cycles:                               200
 Convergence criterion:                              0.0000010000
   secondary criterion:                              0.0010000000

 Mix parameter (when DIIS does not apply):           0.2000000000
 Mixed ADIIS+SDIIS will be used                  
    Max number of expansion vectors:                10
    Pure ADIIS when Max([F,P]) is above              0.1000000000
    Pure SDIIS when Max([F,P]) is below              0.0010000000
 Automatic ElectronSmearing (in case of problematic SCF convergence) disabled



 =================
 P R E C I S I O N  ***  (General: NumInt, NeglectFunctionTails, ...)  ***
 =================
  

 NumInt:           Target precision:                 4.0000000000
 -------           Initial precision:                4.0000000000
                   Min. precision (optimization):    4.0000000000

 Neglect Functions:          Basis functions:        0.1000000000E-05
 ------------------          Fit functions:          0.1000000000E-05



 ===========================
 L I N E A R   S C A L I N G
 ===========================
  

 Cut-off radii density fit:                        0.1000000000E-07
 Overlap cut-off criterion AO matrix elements:     0.1000000000E-05
 Cut-offs for Coulomb potential and fitted density:0.1000000000E-07
 Cut-off criterion for Coulomb multipole terms:    0.1000000000E-07
 Progressive Convergence parameter:                 0.000000000    
 ***************************************************************************************************



                                            ***************************
                                            *  C O M P U T A T I O N  *
                                            ***************************
  

 Number of elements of the density matrix on this node (used, total):     46971     46971



 ===========================================
 Numerical Integration : Fuzzy Cells (Becke)
 ===========================================
  
 Becke grid quality: NORMAL         
  
 Lebedev angular grid order:             min:  11 max:  23
 Nr. of radial points:                   min:  46 max:  55

 Total nr. of points:      97325
 Nr. of blocks:              761
 Block length:               128
 Nr. of dummy points:         83


 Test of Precision of the Numerical Integration Grid
 ===================================================

 Integral of the Total Core Density:                   0.00000000000000



 ========================
 Density Fitting (zlmFit)
 ========================
  
 ZlmFit Fit Quality: NORMAL         
  
 Max L-expansion:                        min:   6 max:   7
 Nr. of radial interpolation points:     min:  39 max:  51



 =====
 S C F  ***  ScaSCF  ***
 =====
  
 Initial density matrix is calculated as sum of fragments

 CYCLE    1
 SCF Error: norm([F,P])=      6.039020595259, max([F,P])=      1.434798479307
 orbitals (Q,E):
 ---------------
 A :18...37          ( 2.00    -0.5351)  ( 2.00    -0.5220)  ( 2.00    -0.5135)  ( 2.00    -0.5051)
                     ( 2.00    -0.4867)  ( 2.00    -0.4708)  ( 2.00    -0.4478)  ( 2.00    -0.4430)
                     ( 2.00    -0.4317)  ( 2.00    -0.4278)  ( 0.00    -0.1902)  ( 0.00    -0.1480)
                     ( 0.00    -0.1439)  ( 0.00    -0.0646)  ( 0.00    -0.0442)  ( 0.00    -0.0418)
                     ( 0.00    -0.0268)  ( 0.00    -0.0119)  ( 0.00    -0.0096)  ( 0.00     0.0033)

 CYCLE    2
   MIX coefficients:  0.8000  0.2000
 SCF Error: norm([F,P])=      1.154074037440, max([F,P])=      0.202772079362
 orbitals (Q,E):
 ---------------
 A :18...28          ( 2.00    -0.4773)  ( 2.00    -0.4672)  ( 2.00    -0.4582)  ( 2.00    -0.4490)
                     ( 2.00    -0.4230)  ( 2.00    -0.4109)  ( 2.00    -0.3868)  ( 2.00    -0.3845)
                     ( 2.00    -0.3728)  ( 2.00    -0.3689)  ( 0.00    -0.1522)

 CYCLE    3
  SDIIS (wt  0.000): -0.6615  1.6615
 A-DIIS (wt  1.000):  0.0000  1.0000
  DIIS coefficients:  0.0000  1.0000
 SCF Error: norm([F,P])=      0.581775156297, max([F,P])=      0.106005741124
 orbitals (Q,E):
 ---------------
 A :18...28          ( 2.00    -0.3039)  ( 2.00    -0.3035)  ( 2.00    -0.2871)  ( 2.00    -0.2808)
                     ( 2.00    -0.2683)  ( 2.00    -0.2376)  ( 2.00    -0.2308)  ( 2.00    -0.2234)
                     ( 2.00    -0.2109)  ( 2.00    -0.2079)  ( 0.00    -0.0294)

 CYCLE    4
  SDIIS (wt  0.000):  0.1110  0.4315  0.4575
 A-DIIS (wt  1.000): -0.0000  0.6303  0.3697
  DIIS coefficients: -0.0000  0.6303  0.3697
 SCF Error: norm([F,P])=      0.810888507202, max([F,P])=      0.173810146730
 orbitals (Q,E):
 ---------------
 A :18...28          ( 2.00    -0.3698)  ( 2.00    -0.3634)  ( 2.00    -0.3512)  ( 2.00    -0.3439)
                     ( 2.00    -0.3349)  ( 2.00    -0.3010)  ( 2.00    -0.2945)  ( 2.00    -0.2930)
                     ( 2.00    -0.2780)  ( 2.00    -0.2729)  ( 0.00    -0.0766)

 CYCLE    5
  SDIIS (wt  0.628): -0.0358  0.3134  0.1343  0.5881
 A-DIIS (wt  0.372):  0.0000  0.0000  0.0000  1.0000
  DIIS coefficients: -0.0225  0.1969  0.0844  0.7412
 SCF Error: norm([F,P])=      0.120754520266, max([F,P])=      0.037788165410
 orbitals (Q,E):
 ---------------
 A :18...28          ( 2.00    -0.3843)  ( 2.00    -0.3767)  ( 2.00    -0.3622)  ( 2.00    -0.3557)
                     ( 2.00    -0.3368)  ( 2.00    -0.3138)  ( 2.00    -0.2972)  ( 2.00    -0.2941)
                     ( 2.00    -0.2756)  ( 2.00    -0.2726)  ( 0.00    -0.0828)

 CYCLE    6
  SDIIS (wt  0.000): -0.0120  0.1276  0.0360  0.5754  0.2730
 A-DIIS (wt  1.000):  0.0000  0.0000  0.0000  0.6225  0.3775
  DIIS coefficients:  0.0000  0.0000  0.0000  0.6225  0.3775
 SCF Error: norm([F,P])=      0.184638831105, max([F,P])=      0.075299020480
 orbitals (Q,E):
 ---------------
 A :18...28          ( 2.00    -0.3827)  ( 2.00    -0.3753)  ( 2.00    -0.3625)  ( 2.00    -0.3554)
                     ( 2.00    -0.3447)  ( 2.00    -0.3144)  ( 2.00    -0.3014)  ( 2.00    -0.2989)
                     ( 2.00    -0.2912)  ( 2.00    -0.2860)  ( 0.00    -0.0845)

 CYCLE    7
  SDIIS (wt  0.851):  0.0130  0.0175  0.0349  0.2834  0.2217  0.4295
 A-DIIS (wt  0.149):  0.0000  0.0000  0.0000  0.0094  0.0675  0.9231
  DIIS coefficients:  0.0110  0.0149  0.0297  0.2427  0.1988  0.5028
 SCF Error: norm([F,P])=      0.059736338004, max([F,P])=      0.015714878925
 orbitals (Q,E):
 ---------------
 A :18...28          ( 2.00    -0.3784)  ( 2.00    -0.3712)  ( 2.00    -0.3586)  ( 2.00    -0.3509)
                     ( 2.00    -0.3396)  ( 2.00    -0.3100)  ( 2.00    -0.2954)  ( 2.00    -0.2922)
                     ( 2.00    -0.2847)  ( 2.00    -0.2792)  ( 0.00    -0.0813)

 CYCLE    8
  SDIIS (wt  0.957): -0.0043  0.0158  0.0085  0.1375  0.0960  0.3117  0.4348
 A-DIIS (wt  0.043):  0.0000  0.0000  0.0000  0.0000  0.0000  0.1031  0.8969
  DIIS coefficients: -0.0041  0.0151  0.0081  0.1316  0.0919  0.3028  0.4547
 SCF Error: norm([F,P])=      0.020101003154, max([F,P])=      0.005257360344
 orbitals (Q,E):
 ---------------
 A :18...28          ( 2.00    -0.3789)  ( 2.00    -0.3718)  ( 2.00    -0.3590)  ( 2.00    -0.3515)
                     ( 2.00    -0.3404)  ( 2.00    -0.3100)  ( 2.00    -0.2962)  ( 2.00    -0.2932)
                     ( 2.00    -0.2857)  ( 2.00    -0.2801)  ( 0.00    -0.0814)

 CYCLE    9
  SDIIS (wt  1.000): -0.0021  0.0054  0.0023  0.0497  0.0351  0.1370  0.2712  0.5015
  DIIS coefficients: -0.0021  0.0054  0.0023  0.0497  0.0351  0.1370  0.2712  0.5015
 SCF Error: norm([F,P])=      0.002861432054, max([F,P])=      0.000793167157
 orbitals (Q,E):
 ---------------
 A :18...28          ( 2.00    -0.3789)  ( 2.00    -0.3717)  ( 2.00    -0.3590)  ( 2.00    -0.3515)
                     ( 2.00    -0.3403)  ( 2.00    -0.3102)  ( 2.00    -0.2963)  ( 2.00    -0.2933)
                     ( 2.00    -0.2857)  ( 2.00    -0.2802)  ( 0.00    -0.0816)

 CYCLE   10
  SDIIS (wt  1.000): -0.0006  0.0011  0.0002  0.0088  0.0059  0.0269  0.0683  0.1989  0.6906
  DIIS coefficients: -0.0006  0.0011  0.0002  0.0088  0.0059  0.0269  0.0683  0.1989  0.6906
 SCF Error: norm([F,P])=      0.000339389658, max([F,P])=      0.000057705317
 orbitals (Q,E):
 ---------------
 A :18...28          ( 2.00    -0.3789)  ( 2.00    -0.3717)  ( 2.00    -0.3590)  ( 2.00    -0.3515)
                     ( 2.00    -0.3403)  ( 2.00    -0.3102)  ( 2.00    -0.2963)  ( 2.00    -0.2932)
                     ( 2.00    -0.2857)  ( 2.00    -0.2802)  ( 0.00    -0.0816)

 CYCLE   11
  SDIIS (wt  1.000):  0.0000  0.0000  0.0000  0.0012  0.0008  0.0055  0.0175  0.0746  0.3725  0.5279
  DIIS coefficients:  0.0000  0.0000  0.0000  0.0012  0.0008  0.0055  0.0175  0.0746  0.3725  0.5279
 SCF Error: norm([F,P])=      0.000171729994, max([F,P])=      0.000037160786
 orbitals (Q,E):
 ---------------
 A :18...28          ( 2.00    -0.3789)  ( 2.00    -0.3718)  ( 2.00    -0.3590)  ( 2.00    -0.3515)
                     ( 2.00    -0.3403)  ( 2.00    -0.3102)  ( 2.00    -0.2963)  ( 2.00    -0.2933)
                     ( 2.00    -0.2857)  ( 2.00    -0.2802)  ( 0.00    -0.0816)

 CYCLE   12
  SDIIS (wt  1.000):  0.0000  0.0000  0.0004  0.0002  0.0018  0.0058  0.0248  0.1290  0.2242  0.6140
  DIIS coefficients:  0.0000  0.0000  0.0004  0.0002  0.0018  0.0058  0.0248  0.1290  0.2242  0.6140
 SCF Error: norm([F,P])=      0.000028264564, max([F,P])=      0.000007303702
 orbitals (Q,E):
 ---------------
 A :18...28          ( 2.00    -0.3789)  ( 2.00    -0.3718)  ( 2.00    -0.3590)  ( 2.00    -0.3515)
                     ( 2.00    -0.3403)  ( 2.00    -0.3102)  ( 2.00    -0.2963)  ( 2.00    -0.2933)
                     ( 2.00    -0.2857)  ( 2.00    -0.2802)  ( 0.00    -0.0816)

 CYCLE   13
  SDIIS (wt  1.000): -0.0000  0.0000 -0.0000  0.0002  0.0010  0.0055  0.0349  0.0775  0.3422  0.5387
  DIIS coefficients: -0.0000  0.0000 -0.0000  0.0002  0.0010  0.0055  0.0349  0.0775  0.3422  0.5387
 SCF Error: norm([F,P])=      0.000010547897, max([F,P])=      0.000001640224
 orbitals (Q,E):
 ---------------
 A :18...28          ( 2.00    -0.3789)  ( 2.00    -0.3718)  ( 2.00    -0.3590)  ( 2.00    -0.3515)
                     ( 2.00    -0.3403)  ( 2.00    -0.3102)  ( 2.00    -0.2963)  ( 2.00    -0.2933)
                     ( 2.00    -0.2857)  ( 2.00    -0.2802)  ( 0.00    -0.0816)

 CYCLE   14
  SDIIS (wt  1.000):  0.0000  0.0000  0.0001  0.0002  0.0008  0.0043  0.0114  0.0804  0.2078  0.6950
  DIIS coefficients:  0.0000  0.0000  0.0001  0.0002  0.0008  0.0043  0.0114  0.0804  0.2078  0.6950
 SCF Error: norm([F,P])=      0.000002190218, max([F,P])=      0.000000551697
 orbitals (Q,E):
 ---------------
 A :18...28          ( 2.00    -0.3789)  ( 2.00    -0.3718)  ( 2.00    -0.3590)  ( 2.00    -0.3515)
                     ( 2.00    -0.3403)  ( 2.00    -0.3102)  ( 2.00    -0.2963)  ( 2.00    -0.2933)
                     ( 2.00    -0.2857)  ( 2.00    -0.2802)  ( 0.00    -0.0816)

 SCF CONVERGED

 CYCLE   15
 ***************************************************************************************************



                                                *******************
                                                *  R E S U L T S  *
                                                *******************
  
 *** Using FIT density in Focky
  SDIIS (wt  1.000): -0.0000  0.0000  0.0000  0.0001  0.0005  0.0020  0.0214  0.0686  0.2718  0.6354
  DIIS coefficients: -0.0000  0.0000  0.0000  0.0001  0.0005  0.0020  0.0214  0.0686  0.2718  0.6354
 SCF Error: norm([F,P])=      0.000000582918, max([F,P])=      0.000000144799

 Scaled ZORA Orbital Energies, per Irrep and Spin:
 =================================================
                        Occup              E (au)              E (eV)       Diff (eV) with prev. cycle
                        -----      --------------------        ------       --------------------------
 A
              18        2.000     -0.37893940477005E+00       -10.311               6.07E-07
              19        2.000     -0.37175701882554E+00       -10.116               3.29E-07
              20        2.000     -0.35900728132638E+00        -9.769               6.28E-07
              21        2.000     -0.35151932858009E+00        -9.565               5.87E-07
              22        2.000     -0.34034432872356E+00        -9.261               8.32E-07
              23        2.000     -0.31020396657200E+00        -8.441               5.66E-07
              24        2.000     -0.29629021400305E+00        -8.062               9.37E-07
              25        2.000     -0.29325317007268E+00        -7.980               1.00E-06
              26        2.000     -0.28572406503858E+00        -7.775               8.91E-07
              27        2.000     -0.28020939900498E+00        -7.625               7.68E-07
              28        0.000     -0.81553287695405E-01        -2.219
              29        0.000     -0.29412338455593E-01        -0.800
              30        0.000     -0.18032832228757E-01        -0.491
              31        0.000     -0.21869164719355E-02        -0.060
              32        0.000      0.16635608074618E-02         0.045
              33        0.000      0.10418531696487E-01         0.284
              34        0.000      0.30734102124979E-01         0.836
              35        0.000      0.49104149249226E-01         1.336
              36        0.000      0.57557812775338E-01         1.566
              37        0.000      0.65285816426857E-01         1.777
  
 HOMO :       27 A                -0.28020939900498E+00
 LUMO :       28 A                -0.81553287695405E-01
  


 All Electron Calculation, thus no Orbital Energies of the Core Orbitals are calculated


 Fit test: (difference of exact and fit density, squared integrated, result summed over spins)
         Sum-of-Fragments:                             0.00000000116765
         Orthogonalized Fragments:                     0.00006900695250
         SCF:                                          0.00017086685398



 ==========================
 Electron Density at Nuclei
 ==========================
  
 The electron density is calculated at points on a small sphere around the center of a nucleus.
 The printed electron density is the average electron density on these points.
 The radius of the sphere is the printed approximate finite nuclear radius.
 Note: ZORA-4 density is used, which includes small component density

         Atom        Nuclear Radius (Angstrom)             Electron Density (a.u.)
         ----        -------------------------             -----------------------
     1)   C                 0.0000320678                              127.29961
     2)   H                 0.0000181514                                0.51383
     3)   F                 0.0000361580                              450.88214
     4)   C                 0.0000320678                              126.98684
     5)   H                 0.0000181514                                0.51913
     6)   C                 0.0000320678                              126.99749
     7)   H                 0.0000181514                                0.51015
     8)   H                 0.0000181514                                0.49919
     9)   H                 0.0000181514                                0.51015
    10)   C                 0.0000320678                              127.41490
    11)   N                 0.0000333706                              206.93964
    12)   C                 0.0000320678                              126.99897
    13)   H                 0.0000181514                                0.51168
    14)   H                 0.0000181514                                0.50975
    15)   H                 0.0000181514                                0.50762



 =======================================
 M U L L I K E N   P O P U L A T I O N S
 =======================================
  
 The survey below gives for each atom:
 a) the total charge (Z minus electrons)
 b) the net spin polarization (nr of electrons spin-A minus spin-B)
 c) for each spin the atomic electron valence density (integrated) per L-value.

 Atom              Charge    Spin density          S         P         D         F
 ----              ------    ------------       ------    ------    ------    ------
 1 C               0.5382                       3.1130    2.2678    0.0758    0.0052
 2 H              -0.1404                       1.0619    0.0725    0.0059    0.0000
 3 F              -0.4572                       3.9870    5.4506    0.0180    0.0016
 4 C               0.1872                       3.0656    2.6633    0.0795    0.0044
 5 H              -0.1676                       1.0844    0.0773    0.0059    0.0000
 6 C               0.6431                       2.8354    2.4814    0.0379    0.0023
 7 H              -0.2072                       1.1169    0.0842    0.0061    0.0000
 8 H              -0.1331                       1.0398    0.0869    0.0065    0.0000
 9 H              -0.2142                       1.1253    0.0829    0.0059    0.0000
 10 C              0.1282                       3.0909    2.7084    0.0638    0.0087
 11 N             -0.2660                       3.7263    3.4800    0.0553    0.0044
 12 C              0.6932                       2.8273    2.4363    0.0409    0.0023
 13 H             -0.2200                       1.1309    0.0830    0.0061    0.0000
 14 H             -0.1660                       1.0774    0.0825    0.0061    0.0000
 15 H             -0.2181                       1.1293    0.0829    0.0059    0.0000

 Populations of individual BAS functions
 ----------------------------------------
 1 C            0.5060  1.4842  0.2295  0.9339 -0.0407 -0.0285 -0.1740 -0.1791  0.4838  0.8298
                0.8407  0.1020  0.1919  0.2011 -0.0027  0.0140  0.0108  0.0207  0.0166  0.0163
               -0.0010 -0.0026 -0.0018  0.0014  0.0005  0.0010  0.0039  0.0021  0.0005  0.0013
 4 C            0.5073  1.4815  0.2432  0.8682 -0.0346 -0.0846 -0.0942 -0.0789  0.8046  0.7760
                0.7945  0.1940  0.1747  0.1771  0.0060  0.0092  0.0137  0.0166  0.0190  0.0149
               -0.0016 -0.0021 -0.0017  0.0012  0.0005  0.0015  0.0027  0.0010  0.0006  0.0023
 6 C            0.5076  1.4812 -0.0256  0.9126 -0.0403 -0.1399 -0.1900 -0.1281  0.7986  0.8010
                0.7557  0.2018  0.1950  0.1874  0.0034  0.0044  0.0084  0.0055  0.0089  0.0074
               -0.0011 -0.0009  0.0001 -0.0007  0.0002  0.0023  0.0004  0.0002  0.0012  0.0005
 10 C           0.5051  1.4814  0.2809  0.8552 -0.0316  0.0433  0.0561  0.0268  0.6699  0.6710
                0.6827  0.1674  0.1842  0.2069 -0.0062  0.0095  0.0125  0.0074  0.0126  0.0281
               -0.0044 -0.0017 -0.0023  0.0013  0.0015  0.0048 -0.0008  0.0006  0.0047  0.0050
 12 C           0.5071  1.4819 -0.0343  0.9136 -0.0409 -0.1610 -0.1905 -0.1407  0.7985  0.8065
                0.7424  0.2029  0.1977  0.1804  0.0053  0.0038  0.0081  0.0062  0.0083  0.0092
                0.0003 -0.0010 -0.0011 -0.0007  0.0003  0.0010  0.0005 -0.0006  0.0011  0.0024
 2 H            0.1232  0.6203  0.3184  0.0306  0.0203  0.0216  0.0141  0.0017  0.0018 -0.0057
                0.0002 -0.0062
 5 H            0.1616  0.5975  0.3253  0.0220  0.0235  0.0319 -0.0055  0.0007  0.0013 -0.0016
                0.0016  0.0093
 7 H            0.1433  0.6615  0.3120  0.0332  0.0273  0.0237  0.0089  0.0015  0.0015 -0.0037
                0.0006 -0.0026
 8 H            0.0816  0.6361  0.3221  0.0368  0.0247  0.0253  0.0046  0.0012  0.0017 -0.0058
                0.0010  0.0038
 9 H            0.1610  0.6543  0.3100  0.0253  0.0333  0.0243 -0.0061  0.0020  0.0002  0.0125
                0.0018 -0.0045
 13 H           0.1611  0.6609  0.3089  0.0282  0.0291  0.0258 -0.0007  0.0008  0.0012 -0.0011
                0.0012  0.0047
 14 H           0.1096  0.6474  0.3204  0.0364  0.0247  0.0214  0.0135  0.0020  0.0019 -0.0058
                0.0001 -0.0056
 15 H           0.1517  0.6704  0.3072  0.0242  0.0369  0.0218 -0.0058  0.0020  0.0001  0.0134
                0.0019 -0.0056
 3 F            0.5913  1.3849  1.0981  0.9000  0.0127  0.3216  0.4131  0.4091  0.8284  0.9825
                0.9717  0.4135  0.5547  0.5560  0.0169  0.0040  0.0042 -0.0040  0.0012 -0.0042
                0.0094  0.0057  0.0058 -0.0042  0.0001 -0.0044 -0.0040 -0.0014 -0.0014 -0.0040
[...]
                                    4.28%     2 P:x             4.589  0.00     5 C
                                    3.44%     1 S              -6.532  1.00     6 H
                                    3.04%     2 S             -13.620  2.00     1 C
                                    3.03%     1 S              -6.532  1.00    10 H
                                    2.80%     2 S               2.394  0.00    12 H
                                   -2.80%     2 P:y             4.589  0.00     3 C
                                    2.67%     2 S               2.394  0.00     7 H
                                    2.63%     3 S              40.869  0.00     8 H
                                    2.58%     2 S               2.394  0.00     8 H
                                   -2.25%     2 P:y             4.589  0.00     5 C
                                    2.20%     1 P:z            -5.239  0.67     5 C
                                    1.97%     2 S               2.394  0.00    11 H
                                    1.97%     2 P:z             4.589  0.00     3 C
                                   -1.84%     2 P:z             4.589  0.00     1 C
                                   -1.77%     3 S              10.158  0.00     1 C
                                    1.56%     3 S               0.624  0.00    14 F
                                    1.36%     1 P:y            -5.239  0.67     5 C
                                    1.32%     2 S             -13.620  2.00     2 C
                                    1.20%     3 S              40.869  0.00     9 H
                                   -1.12%     3 S              10.158  0.00     2 C
                                    1.03%     1 P:z            -5.239  0.67     3 C
       2.018  0.00    38 A         29.28%     1 S              -6.532  1.00    12 H
                                   21.48%     1 S              -6.532  1.00     9 H
                                   18.07%     2 S               2.394  0.00     9 H
                                   11.35%     1 S              -6.532  1.00    10 H
                                   10.48%     1 S              -6.532  1.00    13 H
                                  -10.13%     2 P:x             4.589  0.00     5 C
                                    8.48%     1 S              -6.532  1.00     7 H
                                   -7.68%     2 P:z             4.589  0.00     3 C
                                    6.53%     1 P:x            -5.239  0.67     5 C
                                    5.59%     1 P:z            -5.239  0.67     3 C
                                    4.98%     2 S               2.394  0.00    12 H
                                   -4.52%     2 P:y             4.589  0.00     3 C
                                   -4.21%     2 S               2.394  0.00    13 H
                                   -3.52%     2 P:x             4.589  0.00     3 C
                                   -3.30%     2 P:y             4.589  0.00     5 C
                                    3.01%     1 P:y            -5.239  0.67     5 C
                                   -2.93%     2 S               2.394  0.00    10 H
                                    2.63%     2 S             -13.620  2.00     1 C
                                    2.50%     2 S               2.394  0.00     6 H
                                    2.21%     2 S               2.394  0.00     7 H
                                   -1.99%     3 S              10.158  0.00     1 C
                                    1.82%     2 S             -13.620  2.00     2 C
                                   -1.53%     3 S               0.624  0.00    14 F
                                    1.49%     3 S              40.869  0.00    10 H
                                   -1.45%     3 S              10.158  0.00     2 C
                                    1.38%     2 S             -13.620  2.00     4 C
                                   -1.22%     2 P:y             4.589  0.00     1 C
                                    1.13%     1 P:y            -5.239  0.67     3 C
                                    1.05%     1 S              -6.532  1.00     8 H
                                    1.01%     3 S              40.869  0.00     9 H
       2.384  0.00    39 A         20.41%     1 P:z            -5.239  0.67     5 C
                                   15.73%     1 S              -6.532  1.00    11 H
                                  -12.61%     2 S               2.394  0.00    11 H
                                   10.01%     1 S              -6.532  1.00     9 H
                                    9.97%     2 P:z             4.589  0.00     2 C
                                   -9.89%     2 P:x             4.589  0.00     2 C
                                   -8.04%     3 S              14.073  0.00    15 N
                                    7.11%     1 P:x            -5.239  0.67     2 C
                                    7.11%     2 P:z             4.589  0.00     5 C
                                    7.07%     1 S              -6.532  1.00     6 H
                                    6.08%     1 P:z            -5.239  0.67     3 C
                                    5.91%     2 P:z             4.589  0.00     4 C
                                    5.51%     2 P:y             4.589  0.00     4 C
                                    5.39%     2 P:z             4.589  0.00     3 C
                                    4.81%     1 S              -6.532  1.00    12 H
                                    4.66%     1 P:x            -5.239  0.67     4 C
                                    4.07%     1 P:x            -5.239  0.67     5 C
                                   -3.94%     2 P:x             4.589  0.00     3 C
                                    3.48%     1 P:z            -5.239  0.67     2 C
                                   -2.94%     2 S               2.394  0.00     9 H
                                    2.74%     2 P:y             4.589  0.00     3 C
                                   -2.62%     2 P:x             4.589  0.00     5 C
                                    2.56%     2 S             -13.620  2.00     4 C
                                   -2.47%     2 S               2.394  0.00    10 H
                                    1.93%     3 S               0.624  0.00    14 F
                                    1.93%     2 S               2.394  0.00     7 H
                                    1.82%     2 S               2.394  0.00    12 H
                                   -1.75%     3 S              10.158  0.00     1 C
                                    1.72%     2 P:y             4.589  0.00     1 C
                                    1.53%     2 S               2.394  0.00     8 H
                                    1.50%     1 S              -6.532  1.00    10 H
                                    1.39%     3 S              40.869  0.00     6 H
                                    1.37%     1 P:x            -5.239  0.67     3 C
                                    1.35%     1 P:y            -5.239  0.67     4 C
                                    1.14%     3 S              10.158  0.00     4 C
                                    1.13%     2 S             -13.620  2.00     2 C
                                   -1.01%     1 P:z            -5.239  0.67     1 C
       2.990  0.00    40 A         19.47%     2 P:z             4.589  0.00     3 C
                                   19.19%     3 S               0.624  0.00    14 F
                                  -16.76%     2 P:z             4.589  0.00     1 C
                                   15.86%     1 P:z            -5.239  0.67     3 C
                                   11.74%     1 S              -6.532  1.00     7 H
                                  -10.30%     2 S               2.394  0.00     7 H
                                    9.05%     1 P:y            -5.239  0.67     3 C
                                    8.77%     1 P:z            -5.239  0.67     1 C
                                   -7.37%     3 S              10.158  0.00     1 C
                                    5.38%     1 P:x            -5.239  0.67     5 C
                                    5.29%     1 P:y            -5.239  0.67     2 C
                                    4.40%     1 S              -6.532  1.00    11 H
                                    4.12%     1 S              -6.532  1.00    12 H
                                    3.89%     1 P:x            -5.239  0.67     3 C
                                    3.69%     1 S              -6.532  1.00    10 H
                                    3.17%     2 S             -13.620  2.00     1 C
                                    3.03%     1 P:y            -5.239  0.67     5 C
                                   -2.96%     2 S               2.394  0.00    12 H
                                    2.66%     1 P:x            -5.239  0.67     1 C
                                    2.53%     2 P:y             4.589  0.00     2 C
                                   -2.22%     2 P:x             4.589  0.00     2 C
                                    2.03%     2 S             -13.620  2.00     4 C
                                    2.00%     2 P:x             4.589  0.00     3 C
                                   -1.95%     2 S               2.394  0.00    11 H
                                    1.83%     2 P:x             4.589  0.00     4 C
                                    1.81%     2 P:z             4.589  0.00     2 C
                                   -1.67%     3 S              14.073  0.00    15 N
                                    1.57%     1 S              -6.532  1.00     8 H
                                   -1.41%     2 P:y             4.589  0.00     4 C
                                    1.40%     2 S             -13.620  2.00     2 C
                                    1.38%     3 S              40.869  0.00     7 H
                                    1.31%     1 S              -6.532  1.00     6 H
                                   -1.27%     2 P:x            11.654  0.00    14 F
                                    1.09%     2 P:x             7.649  0.00    15 N
                                    1.06%     2 S               2.394  0.00     6 H



 =======================================================================
 Electrostatic potential at the Nuclei due to electrons and other nuclei
 =======================================================================
  
         Atom                  Potential
         ----                  ---------
     1)   C                  14.68053367
     2)   H                   1.06280727
     3)   F                  26.70194083
     4)   C                  14.71391034
     5)   H                   1.05770559
     6)   C                  14.76544537
     7)   H                   1.08504648
     8)   H                   1.08234962
     9)   H                   1.08965949
    10)   C                  14.76237984
    11)   N                  18.44074838
    12)   C                  14.76921693
    13)   H                   1.09279025
    14)   H                   1.09928804
    15)   H                   1.09531623
 Mulliken charges used for AMS results%charges...


    =====================
     CALCULATION RESULTS
    =====================

Energy (hartree)            -3.02244879


--------------
Atomic charges
--------------
  Index   Atom    Charge
      1      C    0.5382
      2      H   -0.1404
      3      F   -0.4572
      4      C    0.1872
      5      H   -0.1676
      6      C    0.6431
      7      H   -0.2072
      8      H   -0.1331
      9      H   -0.2142
     10      C    0.1282
     11      N   -0.2660
     12      C    0.6932
     13      H   -0.2200
     14      H   -0.1660
     15      H   -0.2181


Dipole moment vector    (Debye):     3.90342095   -2.59617680   -3.19934988
              magnitude (Debye):     5.67562057


-----------------------
Molecular orbitals info
-----------------------
n orbitals:              270
n spin:                    1

Note: only printing virtual orbitals with
      energy smaller than HOMO + 100. eV

HOMO (eV):              -7.6249
LUMO (eV):              -2.2192
HOMO-LUMO gap (eV):      5.4057

   Index   Energy (eV)    Occupation
     170       92.2361         0.000       
     169       91.9424         0.000       
     168       91.0634         0.000       
     167       90.6098         0.000       
     166       87.8613         0.000       
     165       87.3705         0.000       
     164       86.0271         0.000       
     163       85.3771         0.000       
     162       84.8174         0.000       
     161       82.4269         0.000       
     160       81.3126         0.000       
     159       81.2231         0.000       
     158       80.8971         0.000       
     157       80.1618         0.000       
     156       79.4221         0.000       
     155       78.5338         0.000       
     154       78.0178         0.000       
     153       77.3872         0.000       
     152       77.3144         0.000       
     151       76.8913         0.000       
     150       76.2587         0.000       
     149       74.7927         0.000       
     148       74.5670         0.000       
     147       73.6305         0.000       
     146       71.8534         0.000       
     145       71.3105         0.000       
     144       70.6639         0.000       
     143       70.2387         0.000       
     142       68.2205         0.000       
     141       67.6254         0.000       
     140       65.7383         0.000       
     139       64.9431         0.000       
     138       63.8207         0.000       
     137       63.5386         0.000       
     136       62.5844         0.000       
     135       61.6034         0.000       
     134       61.0847         0.000       
     133       59.4469         0.000       
     132       58.6438         0.000       
     131       57.3783         0.000       
     130       57.0284         0.000       
     129       55.8808         0.000       
     128       55.4196         0.000       
     127       54.6030         0.000       
     126       53.4162         0.000       
     125       52.6015         0.000       
     124       51.7819         0.000       
     123       50.6391         0.000       
     122       50.3902         0.000       
     121       49.6392         0.000       
     120       48.5966         0.000       
     119       48.1970         0.000       
     118       47.6372         0.000       
     117       47.3452         0.000       
     116       46.0015         0.000       
     115       45.4244         0.000       
     114       44.5657         0.000       
     113       44.2717         0.000       
     112       43.3432         0.000       
     111       42.8428         0.000       
     110       42.0360         0.000       
     109       40.6419         0.000       
     108       40.2943         0.000       
     107       39.3611         0.000       
     106       39.0547         0.000       
     105       38.6586         0.000       
     104       37.4473         0.000       
     103       36.8961         0.000       
     102       36.5961         0.000       
     101       36.2568         0.000       
     100       35.4307         0.000       
      99       34.3018         0.000       
      98       33.9434         0.000       
      97       33.3393         0.000       
      96       33.0856         0.000       
      95       32.0793         0.000       
      94       31.4678         0.000       
      93       31.1275         0.000       
      92       30.2271         0.000       
      91       29.8586         0.000       
      90       29.6650         0.000       
      89       29.0284         0.000       
      88       28.7248         0.000       
      87       27.8283         0.000       
      86       27.7993         0.000       
      85       27.0564         0.000       
      84       26.5389         0.000       
      83       26.1383         0.000       
      82       25.8165         0.000       
      81       25.2140         0.000       
      80       23.2858         0.000       
      79       22.9164         0.000       
      78       22.5253         0.000       
      77       22.2864         0.000       
      76       21.8918         0.000       
      75       21.2976         0.000       
      74       20.9422         0.000       
      73       20.2352         0.000       
      72       19.3518         0.000       
      71       18.4677         0.000       
      70       17.1946         0.000       
      69       16.4481         0.000       
      68       14.1558         0.000       
      67       13.9412         0.000       
      66       13.2011         0.000       
      65       12.1543         0.000       
      64       11.9294         0.000       
      63       11.3142         0.000       
      62       11.2370         0.000       
      61       11.0950         0.000       
      60       10.7994         0.000       
      59       10.4315         0.000       
      58        9.8679         0.000       
      57        9.4497         0.000       
      56        9.2809         0.000       
      55        8.7860         0.000       
      54        8.4919         0.000       
      53        8.2787         0.000       
      52        7.8153         0.000       
      51        6.9163         0.000       
      50        6.6831         0.000       
      49        6.4249         0.000       
      48        5.9235         0.000       
      47        5.3021         0.000       
      46        4.6170         0.000       
      45        4.4936         0.000       
      44        4.3583         0.000       
      43        4.0707         0.000       
      42        3.7270         0.000       
      41        3.2332         0.000       
      40        2.9900         0.000       
      39        2.3836         0.000       
      38        2.0183         0.000       
      37        1.7765         0.000       
      36        1.5662         0.000       
      35        1.3362         0.000       
      34        0.8363         0.000       
      33        0.2835         0.000       
      32        0.0453         0.000       
      31       -0.0595         0.000       
      30       -0.4907         0.000       
      29       -0.8004         0.000       
      28       -2.2192         0.000 < LUMO
      27       -7.6249         2.000 < HOMO
      26       -7.7749         2.000       
      25       -7.9798         2.000       
      24       -8.0625         2.000       
      23       -8.4411         2.000       
      22       -9.2612         2.000       
      21       -9.5653         2.000       
      20       -9.7691         2.000       
      19      -10.1160         2.000       
      18      -10.3115         2.000       
      17      -11.1182         2.000       
      16      -11.8122         2.000       
      15      -12.3795         2.000       
      14      -13.2318         2.000       
      13      -15.8492         2.000       
      12      -16.7738         2.000       
      11      -19.1076         2.000       
      10      -21.0242         2.000       
       9      -22.2896         2.000       
       8      -27.5121         2.000       
       7     -270.4639         2.000       
       6     -270.5650         2.000       
       5     -271.0651         2.000       
       4     -271.9177         2.000       
       3     -273.0219         2.000       
       2     -381.4621         2.000       
       1     -660.0531         2.000       

AMS application finished. Exiting.
NORMAL TERMINATION
     Total cpu time:      48.37
  Total system time:       0.37
 Total elapsed time:      48.91
NORMAL TERMINATION
