24
Coordinates from ORCA-job ts_scan Relaxed Surface Scan Step 1 E -85.877712475079
  C       0.916617     -0.828399     -1.449896
  C       0.346803     -0.538184     -0.285479
  C      -1.051300     -0.078385     -0.141370
  C      -1.396170      0.796195      0.881110
  C      -2.694100      1.257951      1.001315
  C      -3.667074      0.845371      0.108325
  C      -3.333884     -0.038993     -0.903433
  C      -2.036770     -0.499854     -1.024803
  O       0.984430     -0.559030      0.910127
  C       2.300571     -1.048907      0.964907
  C       3.324432     -0.159971      0.342433
  C       3.060307      0.945402     -0.328191
  H       0.330973     -0.748054     -2.352067
  H       1.939678     -1.141847     -1.551213
  H      -0.639508      1.114729      1.582442
  H      -2.946154      1.943886      1.798346
  H      -4.682611      1.203677      0.205036
  H      -4.090759     -0.381305     -1.595617
  H      -1.791105     -1.212021     -1.799281
  H       2.339545     -2.040625      0.502101
  H       2.516990     -1.178323      2.024694
  H       4.347628     -0.506179      0.445177
  H       2.057653      1.322691     -0.452827
  H       3.863812      1.530175     -0.756144
>
24
Coordinates from ORCA-job ts_scan Relaxed Surface Scan Step 2 E -85.875156311213
  C       0.938312     -0.803558     -1.429887
  C       0.353632     -0.536538     -0.267453
  C      -1.044987     -0.076699     -0.131823
  C      -1.400093      0.782907      0.899889
  C      -2.698701      1.244705      1.012474
  C      -3.662130      0.847304      0.102435
  C      -3.318900     -0.022249     -0.918809
  C      -2.021225     -0.483467     -1.032328
  O       0.980573     -0.572482      0.933574
  C       2.302420     -1.047170      0.986901
  C       3.309396     -0.164636      0.329967
  C       3.022112      0.914353     -0.373213
  H       0.359153     -0.709063     -2.335201
  H       1.956446     -1.129146     -1.530029
  H      -0.650780      1.089732      1.614196
  H      -2.958892      1.918894      1.816883
  H      -4.678161      1.205753      0.193271
  H      -4.068440     -0.352931     -1.624500
  H      -1.767845     -1.184728     -1.814232
  H       2.346393     -2.048229      0.544432
  H       2.530525     -1.151714      2.046823
  H       4.336931     -0.500792      0.421100
  H       2.018811      1.289483     -0.486820
  H       3.815456      1.490272     -0.831956
>
24
Coordinates from ORCA-job ts_scan Relaxed Surface Scan Step 3 E -85.871654687059
  C       0.960478     -0.786283     -1.408821
  C       0.360761     -0.543205     -0.248895
  C      -1.036965     -0.079020     -0.122576
  C      -1.400961      0.765975      0.918198
  C      -2.698758      1.232060      1.022161
  C      -3.652636      0.853877      0.094044
  C      -3.300821     -0.001155     -0.936523
  C      -2.004115     -0.467142     -1.041078
  O       0.976159     -0.595314      0.957712
  C       2.306964     -1.044672      1.010513
  C       3.289837     -0.164955      0.315291
  C       2.971325      0.888434     -0.412918
  H       0.387924     -0.674381     -2.316805
  H       1.970881     -1.131153     -1.508938
  H      -0.659090      1.057994      1.646329
  H      -2.965803      1.894647      1.833934
  H      -4.668040      1.215770      0.178014
  H      -4.043101     -0.317034     -1.656529
  H      -1.744290     -1.157799     -1.830273
  H       2.363976     -2.055461      0.591685
  H       2.547002     -1.119441      2.070198
  H       4.321788     -0.493132      0.380657
  H       1.968064      1.266302     -0.500849
  H       3.749423      1.455089     -0.908839
>
24
Coordinates from ORCA-job ts_scan Relaxed Surface Scan Step 4 E -85.867039159725
  C       0.983187     -0.773785     -1.388318
  C       0.368144     -0.557070     -0.231081
  C      -1.027265     -0.084793     -0.114228
  C      -1.398604      0.746685      0.934974
  C      -2.694290      1.220512      1.029823
  C      -3.638905      0.863960      0.083817
  C      -3.280128      0.022371     -0.955403
  C      -1.985706     -0.451873     -1.050514
  O       0.971324     -0.627040      0.981086
  C       2.313596     -1.041272      1.035739
  C       3.266503     -0.162025      0.299984
  C       2.909698      0.866541     -0.446043
  H       0.417445     -0.640681     -2.298241
  H       1.982767     -1.144468     -1.490597
  H      -0.663984      1.021954      1.676841
  H      -2.966973      1.872310      1.848434
  H      -4.652679      1.231974      0.160597
  H      -4.015446     -0.276899     -1.689514
  H      -1.720721     -1.132879     -1.846363
  H       2.391876     -2.061595      0.643936
  H       2.563690     -1.081323      2.094904
  H       4.301344     -0.486160      0.325716
  H       1.908615      1.253199     -0.493651
  H       3.666517      1.422356     -0.986204
>
24
Coordinates from ORCA-job ts_scan Relaxed Surface Scan Step 5 E -85.861222257694
  C       1.006613     -0.768400     -1.368823
  C       0.375800     -0.580646     -0.214488
  C      -1.015406     -0.095547     -0.107077
  C      -1.392247      0.722634      0.950823
  C      -2.683923      1.209029      1.036112
  C      -3.619315      0.878791      0.071539
  C      -3.255565      0.050409     -0.976563
  C      -1.965358     -0.436952     -1.061800
  O       0.966206     -0.669979      1.002974
  C       2.322877     -1.035169      1.064044
  C       3.238547     -0.154396      0.284138
  C       2.834131      0.849157     -0.472339
  H       0.448447     -0.610335     -2.280000
  H       1.991904     -1.171508     -1.475193
  H      -0.664905      0.977425      1.707026
  H      -2.960730      1.850142      1.861753
  H      -4.629992      1.256687      0.140786
  H      -3.984069     -0.228666     -1.725287
  H      -1.696915     -1.108586     -1.864442
  H       2.433745     -2.064628      0.705411
  H       2.578601     -1.032171      2.122579
  H       4.272757     -0.479583      0.253340
  H       1.839019      1.250655     -0.461882
  H       3.559780      1.391635     -1.066938
>
24
Coordinates from ORCA-job ts_scan Relaxed Surface Scan Step 6 E -85.854199095459
  C       1.030173     -0.770740     -1.351795
  C       0.383854     -0.614057     -0.200045
  C      -1.001152     -0.111512     -0.101443
  C      -1.382378      0.690851      0.967253
  C      -2.667969      1.194609      1.043101
  C      -3.593254      0.898132      0.058009
  C      -3.225808      0.085446     -1.001090
  C      -1.941994     -0.419903     -1.076582
  O       0.961749     -0.723562      1.021683
  C       2.335211     -1.022531      1.097399
  C       3.206866     -0.141947      0.267809
  C       2.744854      0.833651     -0.494008
  H       0.480251     -0.585130     -2.263353
  H       1.997207     -1.212847     -1.464164
  H      -0.663106      0.919247      1.739411
  H      -2.948001      1.822916      1.877458
  H      -4.599228      1.289622      0.119859
  H      -3.946920     -0.167718     -1.766017
  H      -1.671405     -1.080365     -1.887733
  H       2.491849     -2.060528      0.784177
  H       2.587413     -0.962256      2.155073
  H       4.233443     -0.475291      0.163508
  H       1.762712      1.256312     -0.407744
  H       3.425636      1.357599     -1.155075
>
24
Coordinates from ORCA-job ts_scan Relaxed Surface Scan Step 7 E -85.846144402431
  C       1.053202     -0.772608     -1.341905
  C       0.392201     -0.652627     -0.191299
  C      -0.985509     -0.131041     -0.098759
  C      -1.370148      0.652172      0.983217
  C      -2.648261      1.175497      1.051980
  C      -3.563202      0.918166      0.046386
  C      -3.193186      0.124422     -1.026145
  C      -1.917095     -0.400951     -1.094418
  O       0.957938     -0.786201      1.032455
  C       2.348690     -1.001007      1.136516
  C       3.175649     -0.129110      0.253038
  C       2.651418      0.814297     -0.512785
  H       0.510763     -0.556238     -2.251732
  H       1.998906     -1.256409     -1.464157
  H      -0.659247      0.849691      1.771445
  H      -2.930677      1.788412      1.896923
  H      -4.563446      1.324865      0.102734
  H      -3.906795     -0.098665     -1.807308
  H      -1.645503     -1.047769     -1.916172
  H       2.563653     -2.045386      0.888363
  H       2.579403     -0.864591      2.192070
  H       4.183666     -0.481247      0.065343
  H       1.692731      1.265928     -0.342245
  H       3.274852      1.310400     -1.247854
>
24
Coordinates from ORCA-job ts_scan Relaxed Surface Scan Step 8 E -85.837493595397
  C       1.074442     -0.768817     -1.346477
  C       0.400481     -0.697598     -0.194306
  C      -0.969052     -0.155965     -0.101780
  C      -1.354694      0.600917      0.998835
  C      -2.623515      1.146170      1.066495
  C      -3.529154      0.936695      0.041380
  C      -3.159264      0.168621     -1.049699
  C      -1.892270     -0.378479     -1.117128
  O       0.952625     -0.871493      1.026712
  C       2.359834     -0.964229      1.185658
  C       3.145359     -0.122016      0.239535
  C       2.561887      0.785799     -0.533656
  H       0.537886     -0.510813     -2.249504
  H       1.995335     -1.294882     -1.487457
  H      -0.651593      0.759887      1.802641
  H      -2.906350      1.738388      1.925942
  H      -4.522473      1.360108      0.097047
  H      -3.866328     -0.017671     -1.846305
  H      -1.621742     -1.006186     -1.953952
  H       2.654305     -2.008316      1.049494
  H       2.532587     -0.710759      2.230776
  H       4.121023     -0.507913     -0.032146
  H       1.639244      1.277908     -0.283634
  H       3.121432      1.240641     -1.342779
>
24
Coordinates from ORCA-job ts_scan Relaxed Surface Scan Step 9 E -85.839038813542
  C       1.086195     -1.263093     -1.385783
  C       0.447412     -1.067789     -0.220976
  C      -0.840562     -0.366560     -0.066733
  C      -1.415731     -0.272426      1.196163
  C      -2.614931      0.391021      1.381467
  C      -3.261921      0.974452      0.307455
  C      -2.698750      0.887682     -0.955274
  C      -1.501904      0.224480     -1.140800
  O       1.147084     -1.264445      0.914611
  C       1.996255     -0.076563      1.242460
  C       2.920677      0.106850      0.120987
  C       2.410338      0.464927     -1.068624
  H       0.585704     -1.100700     -2.329625
  H       1.975455     -1.867522     -1.413401
  H      -0.915432     -0.737528      2.032603
  H      -3.047541      0.448258      2.370863
  H      -4.199686      1.493012      0.450745
  H      -3.194750      1.342737     -1.801557
  H      -1.081643      0.173692     -2.134645
  H       2.471559     -0.340076      2.180753
  H       1.319946      0.765121      1.393044
  H       3.870374     -0.412549      0.160915
  H       1.529157      1.086686     -1.141287
  H       3.012699      0.410331     -1.967671
>
24
Coordinates from ORCA-job ts_scan Relaxed Surface Scan Step 10 E -85.833103783150
  C       1.124057     -1.205353     -1.397323
  C       0.449135     -1.079526     -0.230077
  C      -0.836559     -0.375795     -0.078091
  C      -1.387704     -0.235955      1.191846
  C      -2.580435      0.438753      1.377346
  C      -3.247108      0.985973      0.296362
  C      -2.711421      0.848987     -0.974001
  C      -1.521267      0.174371     -1.159878
  O       1.132378     -1.309425      0.894796
  C       2.008769     -0.105966      1.264750
  C       2.905072      0.108312      0.143407
  C       2.351576      0.461042     -1.041902
  H       0.637760     -1.012237     -2.343081
  H       1.985540     -1.849787     -1.435631
  H      -0.874156     -0.676110      2.033662
  H      -2.992952      0.532647      2.372502
  H      -4.180556      1.512265      0.439599
  H      -3.225622      1.270877     -1.826565
  H      -1.128489      0.077870     -2.161295
  H       2.485707     -0.416051      2.187021
  H       1.313022      0.710793      1.451025
  H       3.852883     -0.415824      0.149558
  H       1.494002      1.119851     -1.080760
  H       2.946371      0.440287     -1.947579
>
24
Coordinates from ORCA-job ts_scan Relaxed Surface Scan Step 11 E -85.870875330455
  C       1.100672     -1.369851     -1.467455
  C       0.260009     -1.493217     -0.259542
  C      -0.908021     -0.576419     -0.078879
  C      -1.563826     -0.592069      1.145820
  C      -2.639531      0.241915      1.375410
  C      -3.075432      1.101429      0.379810
  C      -2.430134      1.122951     -0.843796
  C      -1.349699      0.288900     -1.070762
  O       0.555401     -2.279154      0.614155
  C       2.327095      0.790576      1.296048
  C       2.773180      0.135478      0.233227
  C       2.190787      0.267515     -1.105953
  H       0.594221     -1.158629     -2.401203
  H       1.814015     -2.181703     -1.542180
  H      -1.209394     -1.270476      1.908096
  H      -3.142164      0.223000      2.332502
  H      -3.919139      1.754032      0.558031
  H      -2.768351      1.790475     -1.624065
  H      -0.856204      0.321073     -2.030675
  H       2.771482      0.648093      2.271449
  H       1.499652      1.486344      1.223625
  H       3.589917     -0.568371      0.345683
  H       1.483133      1.083196     -1.209450
  H       2.902335      0.234910     -1.924203
>
24
Coordinates from ORCA-job ts_scan Relaxed Surface Scan Step 12 E -85.883432909805
  C       1.132711     -1.335730     -1.452676
  C       0.251413     -1.506310     -0.270418
  C      -0.908900     -0.583042     -0.080651
  C      -1.568834     -0.608558      1.141702
  C      -2.640032      0.229435      1.376741
  C      -3.068257      1.101168      0.388303
  C      -2.419520      1.131574     -0.833214
  C      -1.342035      0.295000     -1.064962
  O       0.506979     -2.341917      0.567310
  C       2.340845      0.836075      1.278421
  C       2.746783      0.121143      0.239788
  C       2.158417      0.225736     -1.106628
  H       0.626800     -1.147899     -2.393160
  H       1.837045     -2.156742     -1.524356
  H      -1.221535     -1.297422      1.897853
  H      -3.145411      0.204092      2.332209
  H      -3.908978      1.756486      0.570591
  H      -2.752710      1.807984     -1.607944
  H      -0.846068      0.332664     -2.023468
  H       2.786940      0.711905      2.255658
  H       1.544688      1.565084      1.184337
  H       3.533284     -0.613295      0.373634
  H       1.468209      1.057001     -1.212326
  H       2.888171      0.215566     -1.911055
