
 *******************************************************************************
 *                                                                             *
 *  --------------------------------                                           *
 *   Amsterdam Modeling Suite (AMS)              2026.103                      *
 *  --------------------------------                                           *
 *                                               r260501 2026-05-01 873454b5   *
 *                                                                             *
 *                                                                             *
 *                              =================                              *
 *                              |               |                              *
 *                              |     A M S     |                              *
 *                              |               |                              *
 *                              =================                              *
 *                                                                             *
 *                                                                             *
 *   Online information and documentation:  https://www.scm.com/support/       *
 *   E-mail:  support@scm.com   info@scm.com                                   *
 *                                                                             *
 *   Scientific publications using AMS results must be properly referenced     *
 *   See the User Manuals (or the web site) for recommended citations          *
 *   The terms and conditions of the End User License Agreement apply to       *
 *   the use of AMS, https://www.scm.com/license-terms/                        *
 *                                                                             *
 **********************  x86_64_linux_intel / intelmpi  ************************
 
 Licensed to: Jong-June Jeon / University of Seoul 2026-05-13 16:10:32
 SCM User ID: u30731
  
 AMS 2026.103  RunTime: May31-2026 23:27:35  ShM Nodes: 1  Procs: 1

 AMS jobname: c4_fragA_opt
 AMS jobid  : 1881322630

 Start   directory: /gpfs/home1/yeseo1ee/projects/eda-asm-prediction/adf_outputs/batch_001/dipolar_002702/
 Results directory: /gpfs/home1/yeseo1ee/projects/eda-asm-prediction/adf_outputs/batch_001/dipolar_002702/c4_fragA_opt.results/
 Scratch directory: /tmp/amstmp_c4_fragA_opt_kid0.1881322630/

 RNG seed: -182359288 2057213167 39891817 1968024229 -816122202 -271469427 2015365220 -1001699856



                      ************************************************************************
                      *  ADF 2026.103  RunTime: May31-2026 23:27:35  ShM Nodes: 1  Procs: 1  *
                      ************************************************************************
  

       ***************************
       *  GEOMETRY OPTIMIZATION  *
       ***************************

Optimization Method                    Quasi Newton
Optimization Coordinates               Delocalized Coordinates
Optimize lattice                       F
 
 ------------------------------------------------------
 Convergence criteria (Hartree,Angstrom)
 ------------------------------------------------------
 Maximum gradient               0.000100000000
 Maximum rms gradient           0.000066666667
 Maximum step allowed           0.010000000000
 Maximum rms step allowed       0.006666666667
 Maximum energy change allowe   0.000200000000
 Maximum stress energy allowe   0.000500000000
 
Initial model Hessian                  Automatic Hessian
 
------------------------------------
Quasi-Newton Optimizer Parameters
------------------------------------
Hessian Update Method                  BFGS
Maximum number of steps                  200
First GDIIS cycle                          0
Maximum GDIIS vectors                      0
Trust radius (bohr)                        0.200000
Trust radius varies                        T
Constraints converged at all steps         T
Use projector                              T
 
 Rigid motions settings for: old optimizer
 Atomic rotations (x,y,z):     T T T
 Atomic translations (x,y,z):  T T T
 Tolerance:                  1.000000000000000E-006

--------
Geometry
--------
Formula: C8H8N4
Atoms
  Index Symbol   x (angstrom)   y (angstrom)   z (angstrom)
      1      C    -0.47300000    -1.36583000    -2.95240000
      2      N     0.23780000    -1.75619000    -1.72412000
      3      N    -0.39757000    -2.55188000    -0.84845000
      4      C    -1.17153000    -3.50778000    -1.34153000
      5      N    -1.79716000    -4.42051000    -1.72197000
      6      N     1.13895000    -1.05821000    -1.10057000
      7      C     1.84524000    -0.02251000    -1.76070000
      8      C     3.23112000    -0.02138000    -1.52414000
      9      C     4.04149000     0.97790000    -2.05909000
     10      C     3.47279000     2.01088000    -2.81113000
     11      C     2.09292000     2.02602000    -3.03667000
     12      C     1.28053000     1.01473000    -2.52472000
     13      H     0.24622000    -0.99948000    -3.69035000
     14      H    -0.97199000    -2.25583000    -3.35136000
     15      H    -1.22130000    -0.59374000    -2.71789000
     16      H     3.65360000    -0.81646000    -0.91002000
     17      H     5.11765000     0.95965000    -1.87350000
     18      H     4.10246000     2.80715000    -3.21455000
     19      H     1.63742000     2.83764000    -3.60761000
     20      H     0.20971000     1.06644000    -2.68865000

Total System Charge              0.00000


----------------
ADF Engine Input
----------------
 
   Basis
     Type TZ2P
     Core None
   End
   XC
     GGA BLYP
     Dispersion GRIMME3 BJDAMP
   End
   Symmetry NOSYM
   NumericalQuality Normal
   Unrestricted No
   SCF
     Iterations 200
     Converge 1.0e-6
   End
   Save TAPE21
 

 Title: *** (NO TITLE) ***

Challenging geometry: could not add a dihedral for atom    5
 Using automatic Hessian for delocalized coordinates.
 *** GO1_GOStep1 ***

 Energy gradients wrt nuclear displacements
 ==========================================

     Atom      Cartesian (a.u./angstrom)
                 X         Y         Z
 ----------------------------------------
     1 C    -0.001807  0.012422  0.047922
     2 N     0.030206 -0.042265 -0.089108
     3 N     0.012434  0.040000  0.001958
     4 C    -0.020220 -0.019436  0.008121
     5 N     0.021438  0.018709  0.003491
     6 N    -0.040493 -0.008370  0.038809
     7 C     0.011631  0.013208 -0.001165
     8 C    -0.011565  0.001085 -0.008453
     9 C    -0.004914  0.001434 -0.002743
    10 C    -0.005480 -0.008198  0.006295
    11 C     0.001878 -0.006294  0.003254
    12 C     0.005827 -0.008032  0.002576
    13 H     0.002928 -0.001795 -0.002398
    14 H    -0.000181 -0.003161 -0.003474
    15 H    -0.008095  0.007882 -0.002154
    16 H     0.001989 -0.002101  0.001842
    17 H     0.005026  0.000088  0.001137
    18 H     0.003277  0.003904 -0.001815
    19 H    -0.002637  0.002930 -0.002112
    20 H    -0.001240 -0.002010 -0.001983
 ----------------------------------------
 
----------------------------------------------------------------------
Geometry Convergence after Step   1       (Hartree/Angstrom,Angstrom)
----------------------------------------------------------------------
current energy                               -4.59388237 Hartree
energy change                      -4.59388237     0.00020000    F
constrained gradient max            0.08913584     0.00010000    F
constrained gradient rms            0.01864471     0.00006667    F
gradient max                        0.08912967
gradient rms                        0.01864472
cart. step max                      0.09509308     0.01000000    F
cart. step rms                      0.02984282     0.00666667    F
 

--------
Geometry
--------
Formula: C8H8N4
Atoms
  Index Symbol   x (angstrom)   y (angstrom)   z (angstrom)
      1      C    -0.45541691    -1.40853023    -2.93033025
      2      N     0.22440015    -1.75132884    -1.65763816
      3      N    -0.43568799    -2.58302065    -0.82134492
      4      C    -1.18885476    -3.51534368    -1.39068086
      5      N    -1.85461679    -4.39159574    -1.81706308
      6      N     1.14062619    -1.02926099    -1.07217610
      7      C     1.84009696    -0.00118122    -1.75087221
      8      C     3.23303936    -0.00952372    -1.53036399
      9      C     4.04614784     0.98012806    -2.08107058
     10      C     3.48077597     2.01837578    -2.83150111
     11      C     2.09712349     2.05020876    -3.03526592
     12      C     1.27758151     1.04907154    -2.50870111
     13      H     0.27689493    -1.05271971    -3.65854128
     14      H    -0.93465504    -2.31489146    -3.31145697
     15      H    -1.21365145    -0.64274770    -2.73217119
     16      H     3.65492548    -0.80582855    -0.92008106
     17      H     5.12218450     0.95011135    -1.91041246
     18      H     4.11299551     2.80374281    -3.24562751
     19      H     1.64562896     2.86599589    -3.59966342
     20      H     0.20581207     1.11894830    -2.65445784

Total System Charge              0.00000

 *** GO1_GOStep2 ***

 Energy gradients wrt nuclear displacements
 ==========================================

     Atom      Cartesian (a.u./angstrom)
                 X         Y         Z
 ----------------------------------------
     1 C    -0.008698  0.010174  0.037538
     2 N     0.025031 -0.043400 -0.057757
     3 N    -0.014879  0.017552  0.003626
     4 C     0.006203  0.004327  0.010137
     5 N    -0.004097 -0.009313 -0.007884
     6 N    -0.008670  0.019244  0.022300
     7 C     0.009723  0.007886  0.002751
     8 C    -0.005792 -0.000242 -0.004839
     9 C    -0.001093  0.000846 -0.001351
    10 C    -0.002489 -0.003357  0.003111
    11 C     0.000887 -0.001806  0.000386
    12 C     0.002147 -0.002136 -0.000195
    13 H     0.000821 -0.002726 -0.002468
    14 H    -0.000195 -0.003112 -0.001799
    15 H    -0.003864  0.003403 -0.001665
    16 H     0.001077 -0.001042  0.000855
    17 H     0.002312  0.000181  0.000419
    18 H     0.001585  0.001972 -0.000895
    19 H    -0.001099  0.001576 -0.001016
    20 H     0.001090 -0.000024 -0.001254
 ----------------------------------------

 dE(predicted):    -0.68132E-02, dE(actual):    -0.55050E-02, Trust radius:    0.400000, all in a.u.
 
----------------------------------------------------------------------
Geometry Convergence after Step   2       (Hartree/Angstrom,Angstrom)
----------------------------------------------------------------------
current energy                               -4.59938734 Hartree
energy change                      -0.00550497     0.00020000    F
constrained gradient max            0.05778547     0.00010000    F
constrained gradient rms            0.01264289     0.00006667    F
gradient max                        0.05778247
gradient rms                        0.01264289
cart. step max                      0.21172880     0.01000000    F
cart. step rms                      0.06712283     0.00666667    F
 

--------
Geometry
--------
Formula: C8H8N4
Atoms
  Index Symbol   x (angstrom)   y (angstrom)   z (angstrom)
      1      C    -0.32494459    -1.44176937    -2.97309302
      2      N     0.20648336    -1.71526797    -1.60188777
      3      N    -0.45877922    -2.56811592    -0.79283074
      4      C    -1.25370947    -3.44798833    -1.38661968
      5      N    -1.99631085    -4.25360183    -1.80938630
      6      N     1.14554107    -1.03702189    -1.02718848
      7      C     1.82685192    -0.01511111    -1.72369922
      8      C     3.22934339    -0.02830152    -1.55362738
      9      C     4.02137293     0.96319213    -2.13099231
     10      C     3.43044245     2.01069350    -2.85045260
     11      C     2.03850289     2.05497538    -2.98794483
     12      C     1.23590977     1.05249153    -2.43688278
     13      H     0.48862373    -1.13085645    -3.63083999
     14      H    -0.78197314    -2.35759017    -3.35260273
     15      H    -1.07975175    -0.65613462    -2.89228569
     16      H     3.67132751    -0.83145974    -0.96911679
     17      H     5.10202509     0.92630634    -2.00758713
     18      H     4.04761361     2.79443704    -3.28509365
     19      H     1.56867478     2.87982930    -3.52050407
     20      H     0.15810652     1.13190370    -2.52678486

Total System Charge              0.00000

 *** GO1_GOStep3 ***

 Energy gradients wrt nuclear displacements
 ==========================================

     Atom      Cartesian (a.u./angstrom)
                 X         Y         Z
 ----------------------------------------
     1 C    -0.003846  0.011303  0.017203
     2 N     0.019686 -0.014681 -0.031673
     3 N    -0.015527  0.003261  0.009054
     4 C     0.002487 -0.011075  0.001401
     5 N     0.003974  0.007052  0.001298
     6 N    -0.005666  0.008125  0.012357
     7 C    -0.000897 -0.001438 -0.001237
     8 C    -0.000408 -0.001414  0.000023
     9 C     0.000106 -0.000107 -0.000189
    10 C    -0.000826 -0.000357  0.000397
    11 C     0.000140  0.000310 -0.000318
    12 C    -0.001155 -0.000579 -0.001549
    13 H    -0.000060 -0.002389 -0.003719
    14 H     0.000501 -0.000394 -0.002616
    15 H     0.000166  0.001873  0.000951
    16 H     0.000276 -0.000228  0.000040
    17 H     0.000293 -0.000103 -0.000095
    18 H     0.000232  0.000506 -0.000126
    19 H    -0.000227  0.000236 -0.000170
    20 H     0.000750  0.000100 -0.001031
 ----------------------------------------

 dE(predicted):    -0.60685E-02, dE(actual):    -0.58951E-02, Trust radius:    0.800000, all in a.u.
 
----------------------------------------------------------------------
Geometry Convergence after Step   3       (Hartree/Angstrom,Angstrom)
----------------------------------------------------------------------
current energy                               -4.60528241 Hartree
energy change                      -0.00589508     0.00020000    F
constrained gradient max            0.03169591     0.00010000    F
constrained gradient rms            0.00691930     0.00006667    F
gradient max                        0.03169608
gradient rms                        0.00691930
cart. step max                      0.22221842     0.01000000    F
cart. step rms                      0.09188206     0.00666667    F
 

--------
Geometry
--------
Formula: C8H8N4
Atoms
  Index Symbol   x (angstrom)   y (angstrom)   z (angstrom)
      1      C    -0.20232756    -1.58885010    -3.03868986
      2      N     0.20113495    -1.70758989    -1.59672823
      3      N    -0.50568719    -2.49820536    -0.76927187
      4      C    -1.38188774    -3.31644250    -1.33741797
      5      N    -2.17583298    -4.08038869    -1.74406045
      6      N     1.14392168    -1.03339688    -1.03401296
      7      C     1.81713050    -0.00218218    -1.72263367
      8      C     3.22600925    -0.04309670    -1.61791014
      9      C     4.00693161     0.96040069    -2.18933685
     10      C     3.40149366     2.04733959    -2.83446143
     11      C     2.00539986     2.12078224    -2.89875584
     12      C     1.21221638     1.10816590    -2.35285718
     13      H     0.67215181    -1.33977128    -3.64085095
     14      H    -0.62603919    -2.54348404    -3.35274207
     15      H    -0.95913260    -0.80626812    -3.11450411
     16      H     3.68029784    -0.87664751    -1.08867846
     17      H     5.09090707     0.90241612    -2.11789466
     18      H     4.01073127     2.83869828    -3.26500671
     19      H     1.52549327     2.97758020    -3.36714641
     20      H     0.13243812     1.21155022    -2.37646019

Total System Charge              0.00000

 *** GO1_GOStep4 ***

 Energy gradients wrt nuclear displacements
 ==========================================

     Atom      Cartesian (a.u./angstrom)
                 X         Y         Z
 ----------------------------------------
     1 C    -0.004167  0.001572  0.007940
     2 N     0.015585 -0.007180 -0.020844
     3 N    -0.007065  0.001948  0.007095
     4 C    -0.003561 -0.003466  0.002681
     5 N     0.005714  0.003842 -0.000086
     6 N    -0.003058 -0.001171  0.003595
     7 C    -0.007643  0.002404  0.002307
     8 C     0.000957 -0.001535  0.001735
     9 C     0.000355 -0.000595 -0.000421
    10 C     0.000097  0.000324 -0.000000
    11 C    -0.000806  0.000464 -0.000294
    12 C     0.001532  0.004324 -0.001029
    13 H    -0.001324 -0.003524 -0.003237
    14 H     0.000014  0.000007 -0.001522
    15 H     0.001171  0.000162  0.002059
    16 H    -0.000347  0.000144  0.000048
    17 H    -0.000343 -0.000027 -0.000133
    18 H    -0.000109 -0.000028  0.000069
    19 H     0.000131 -0.000014  0.000148
    20 H     0.002867  0.002351 -0.000111
 ----------------------------------------

 dE(predicted):    -0.45126E-02, dE(actual):    -0.21470E-02, Trust radius:    0.800000, all in a.u.
 
----------------------------------------------------------------------
Geometry Convergence after Step   4       (Hartree/Angstrom,Angstrom)
----------------------------------------------------------------------
current energy                               -4.60742940 Hartree
energy change                      -0.00214699     0.00020000    F
constrained gradient max            0.02086100     0.00010000    F
constrained gradient rms            0.00440655     0.00006667    F
gradient max                        0.02085842
gradient rms                        0.00440655
cart. step max                      0.20828156     0.01000000    F
cart. step rms                      0.05671825     0.00666667    F
 

--------
Geometry
--------
Formula: C8H8N4
Atoms
  Index Symbol   x (angstrom)   y (angstrom)   z (angstrom)
      1      C    -0.13269190    -1.58665885    -3.03048565
      2      N     0.20581584    -1.69648105    -1.56250491
      3      N    -0.47290339    -2.54690157    -0.78475262
      4      C    -1.45581219    -3.22564245    -1.36574476
      5      N    -2.34570133    -3.87210713    -1.78643041
      6      N     1.17822610    -1.06854015    -1.00653482
      7      C     1.84438966    -0.03701970    -1.69798108
      8      C     3.25618565    -0.04971769    -1.62458292
      9      C     4.00099226     0.97417494    -2.20798022
     10      C     3.35731170     2.04297977    -2.84698529
     11      C     1.95866374     2.07851130    -2.89157769
     12      C     1.20052359     1.04988298    -2.32612815
     13      H     0.76086207    -1.27032807    -3.56780321
     14      H    -0.48141218    -2.56227033    -3.36711947
     15      H    -0.92957337    -0.85192933    -3.14641864
     16      H     3.73949575    -0.87070681    -1.10226615
     17      H     5.08663308     0.94539149    -2.15288537
     18      H     3.93860679     2.84606255    -3.29240189
     19      H     1.44960035     2.91766377    -3.35994714
     20      H     0.11613780     1.11424633    -2.33888961

Total System Charge              0.00000

 *** GO1_GOStep5 ***

 Energy gradients wrt nuclear displacements
 ==========================================

     Atom      Cartesian (a.u./angstrom)
                 X         Y         Z
 ----------------------------------------
     1 C     0.000470 -0.001211  0.000686
     2 N     0.005532  0.006734  0.002493
     3 N     0.002669 -0.001305  0.000539
     4 C     0.001866  0.001769  0.005947
     5 N    -0.003576 -0.002315 -0.004322
     6 N    -0.008534 -0.004763 -0.005972
     7 C    -0.005024  0.001361  0.001976
     8 C     0.003993 -0.000993 -0.001545
     9 C     0.000881 -0.000542  0.000123
    10 C     0.000591  0.001835 -0.000580
    11 C     0.000326  0.000390 -0.000318
    12 C    -0.000525 -0.001214  0.000356
    13 H     0.000319 -0.000925 -0.001024
    14 H    -0.000146  0.001401 -0.000598
    15 H     0.002463 -0.000125  0.002586
    16 H    -0.000676  0.000645 -0.000087
    17 H    -0.000832  0.000194  0.000070
    18 H    -0.000509 -0.000748  0.000068
    19 H     0.000251 -0.000644  0.000494
    20 H     0.000463  0.000456 -0.000891
 ----------------------------------------

 dE(predicted):    -0.28944E-02, dE(actual):    -0.16724E-02, Trust radius:    0.800000, all in a.u.
 
----------------------------------------------------------------------
Geometry Convergence after Step   5       (Hartree/Angstrom,Angstrom)
----------------------------------------------------------------------
current energy                               -4.60910179 Hartree
energy change                      -0.00167239     0.00020000    F
constrained gradient max            0.00858205     0.00010000    F
constrained gradient rms            0.00252479     0.00006667    F
gradient max                        0.00857922
gradient rms                        0.00252479
cart. step max                      0.04974210     0.01000000    F
cart. step rms                      0.01390960     0.00666667    F
 

--------
Geometry
--------
Formula: C8H8N4
Atoms
  Index Symbol   x (angstrom)   y (angstrom)   z (angstrom)
      1      C    -0.13171839    -1.59338396    -3.03687611
      2      N     0.19337197    -1.68218364    -1.56249647
      3      N    -0.48965682    -2.52745722    -0.78653730
      4      C    -1.45662833    -3.22436312    -1.37185258
      5      N    -2.34657077    -3.87496798    -1.77831011
      6      N     1.17285275    -1.05861926    -1.00283176
      7      C     1.84716969    -0.03624911    -1.69942683
      8      C     3.25694929    -0.04943573    -1.62217523
      9      C     4.00208371     0.96997353    -2.21293346
     10      C     3.35872151     2.03934609    -2.85096603
     11      C     1.95999947     2.08379907    -2.88403358
     12      C     1.20273394     1.05722987    -2.31479965
     13      H     0.75715682    -1.24284916    -3.55977031
     14      H    -0.43167008    -2.58801547    -3.36626943
     15      H    -0.95970847    -0.89699255    -3.17992428
     16      H     3.74092972    -0.87553232    -1.10765008
     17      H     5.08850410     0.93456786    -2.16859734
     18      H     3.94115497     2.84108970    -3.29847002
     19      H     1.45143758     2.92699681    -3.34674813
     20      H     0.11823734     1.12765657    -2.30875130

Total System Charge              0.00000

 *** GO1_GOStep6 ***

 Energy gradients wrt nuclear displacements
 ==========================================

     Atom      Cartesian (a.u./angstrom)
                 X         Y         Z
 ----------------------------------------
     1 C    -0.001010 -0.002446  0.000055
     2 N    -0.000303  0.005121  0.001706
     3 N     0.001687 -0.000954 -0.000748
     4 C    -0.002362 -0.005365  0.000560
     5 N     0.002904  0.004028  0.000469
     6 N    -0.002996 -0.000260 -0.002084
     7 C    -0.001026 -0.001393 -0.002190
     8 C     0.001885  0.001586  0.001204
     9 C     0.000146 -0.000381  0.000547
    10 C    -0.000114  0.000257 -0.000874
    11 C     0.000446  0.000262  0.000350
    12 C     0.000036 -0.001357  0.001144
    13 H     0.000633 -0.000452  0.000137
    14 H    -0.000568  0.001053  0.000038
    15 H     0.001247  0.000141  0.000227
    16 H    -0.000331 -0.000070 -0.000413
    17 H    -0.000237 -0.000163 -0.000379
    18 H    -0.000261 -0.000159  0.000168
    19 H    -0.000069 -0.000293  0.000081
    20 H     0.000292  0.000847  0.000003
 ----------------------------------------

 dE(predicted):    -0.20555E-03, dE(actual):    -0.22755E-03, Trust radius:    0.800000, all in a.u.
 
----------------------------------------------------------------------
Geometry Convergence after Step   6       (Hartree/Angstrom,Angstrom)
----------------------------------------------------------------------
current energy                               -4.60932934 Hartree
energy change                      -0.00022755     0.00020000    F
constrained gradient max            0.00536850     0.00010000    F
constrained gradient rms            0.00152085     0.00006667    F
gradient max                        0.00536980
gradient rms                        0.00152086
cart. step max                      0.08503145     0.01000000    F
cart. step rms                      0.02317160     0.00666667    F
 

--------
Geometry
--------
Formula: C8H8N4
Atoms
  Index Symbol   x (angstrom)   y (angstrom)   z (angstrom)
      1      C    -0.10048350    -1.60306571    -3.04011070
      2      N     0.20112025    -1.68288927    -1.55794868
      3      N    -0.52528725    -2.49514758    -0.78741849
      4      C    -1.49096573    -3.18163656    -1.38638511
      5      N    -2.38665939    -3.82472110    -1.79406228
      6      N     1.18924295    -1.07001445    -0.98748642
      7      C     1.85701802    -0.04059273    -1.68001712
      8      C     3.26585694    -0.05322141    -1.62504369
      9      C     3.99859448     0.96855282    -2.22801421
     10      C     3.34304654     2.03564565    -2.85740170
     11      C     1.94365305     2.07671572    -2.87345205
     12      C     1.19922665     1.04959661    -2.28907317
     13      H     0.78138368    -1.21234052    -3.54489030
     14      H    -0.34663863    -2.61305817    -3.37006635
     15      H    -0.95927633    -0.94843138    -3.20646879
     16      H     3.76100785    -0.87822087    -1.11853048
     17      H     5.08603457     0.93700010    -2.19905193
     18      H     3.91773408     2.83804842    -3.31471827
     19      H     1.42672452     2.91737830    -3.33244911
     20      H     0.11401725     1.11101215    -2.26683116

Total System Charge              0.00000

 *** GO1_GOStep7 ***

 Energy gradients wrt nuclear displacements
 ==========================================

     Atom      Cartesian (a.u./angstrom)
                 X         Y         Z
 ----------------------------------------
     1 C    -0.001357 -0.001520 -0.000437
     2 N    -0.001107 -0.002340  0.000319
     3 N    -0.002456 -0.001975 -0.001371
     4 C    -0.001013 -0.002830  0.000902
     5 N     0.001210  0.002197  0.000298
     6 N     0.005560  0.004527  0.000475
     7 C     0.000309  0.000677  0.000043
     8 C    -0.000315  0.000548  0.000740
     9 C    -0.000579 -0.000674 -0.000048
    10 C    -0.000793 -0.000130 -0.000020
    11 C     0.000390  0.000378 -0.000625
    12 C     0.000243 -0.000752  0.000443
    13 H     0.000703  0.000285  0.000744
    14 H    -0.000771  0.000524  0.000446
    15 H     0.000024  0.000702 -0.001621
    16 H     0.000050 -0.000308 -0.000052
    17 H     0.000216 -0.000169 -0.000158
    18 H    -0.000021  0.000237 -0.000035
    19 H    -0.000250  0.000171 -0.000239
    20 H    -0.000042  0.000451  0.000197
 ----------------------------------------

 dE(predicted):    -0.17068E-03, dE(actual):    -0.15567E-03, Trust radius:    0.800000, all in a.u.
 
----------------------------------------------------------------------
Geometry Convergence after Step   7       (Hartree/Angstrom,Angstrom)
----------------------------------------------------------------------
current energy                               -4.60948502 Hartree
energy change                      -0.00015567     0.00020000    T
constrained gradient max            0.00552942     0.00010000    F
constrained gradient rms            0.00129842     0.00006667    F
gradient max                        0.00553396
gradient rms                        0.00129843
cart. step max                      0.06155304     0.01000000    F
cart. step rms                      0.01657375     0.00666667    F
 

--------
Geometry
--------
Formula: C8H8N4
Atoms
  Index Symbol   x (angstrom)   y (angstrom)   z (angstrom)
      1      C    -0.11667382    -1.59251375    -3.03869665
      2      N     0.19039042    -1.66870042    -1.55745166
      3      N    -0.53814392    -2.47298583    -0.78368996
      4      C    -1.48475202    -3.18236417    -1.38632566
      5      N    -2.35588681    -3.85995111    -1.79562569
      6      N     1.18541208    -1.06581638    -0.98663849
      7      C     1.85964169    -0.04234570    -1.68270021
      8      C     3.26774245    -0.05980529    -1.62882393
      9      C     4.00358919     0.96400247    -2.22573313
     10      C     3.35124337     2.03225939    -2.85561009
     11      C     1.95161778     2.07512259    -2.87616057
     12      C     1.20464830     1.04857241    -2.29475689
     13      H     0.73858551    -1.15078748    -3.54608981
     14      H    -0.30608767    -2.61432095    -3.37246982
     15      H    -1.01390305    -0.98858313    -3.19682602
     16      H     3.76153943    -0.88278317    -1.11741446
     17      H     5.09102323     0.93363552    -2.19024196
     18      H     3.92868923     2.83368266    -3.31173853
     19      H     1.43759580     2.91716497    -3.33613717
     20      H     0.11907880     1.10712737    -2.27628930

Total System Charge              0.00000

 *** GO1_GOStep8 ***

 Energy gradients wrt nuclear displacements
 ==========================================

     Atom      Cartesian (a.u./angstrom)
                 X         Y         Z
 ----------------------------------------
     1 C    -0.001179 -0.000218 -0.000556
     2 N    -0.003518 -0.002961 -0.000763
     3 N     0.000048  0.000040 -0.001127
     4 C     0.003071  0.002600  0.001770
     5 N    -0.002271 -0.002362 -0.001362
     6 N     0.004605  0.003111  0.003640
     7 C     0.001453 -0.000368  0.000050
     8 C    -0.001210 -0.000514 -0.001040
     9 C    -0.000475  0.000015 -0.000002
    10 C    -0.000611 -0.000501  0.000353
    11 C     0.000171  0.000225 -0.000135
    12 C    -0.000053 -0.000282 -0.000147
    13 H     0.000451  0.000482  0.000475
    14 H    -0.000489 -0.000099  0.000636
    15 H    -0.000437  0.000622 -0.001791
    16 H     0.000270 -0.000136  0.000371
    17 H     0.000410  0.000100  0.000119
    18 H     0.000219  0.000228 -0.000396
    19 H    -0.000229  0.000346 -0.000189
    20 H    -0.000227 -0.000328  0.000093
 ----------------------------------------

 dE(predicted):    -0.93227E-04, dE(actual):    -0.67544E-04, Trust radius:    0.800000, all in a.u.
 
----------------------------------------------------------------------
Geometry Convergence after Step   8       (Hartree/Angstrom,Angstrom)
----------------------------------------------------------------------
current energy                               -4.60955256 Hartree
energy change                      -0.00006754     0.00020000    T
constrained gradient max            0.00459048     0.00010000    F
constrained gradient rms            0.00137313     0.00006667    F
gradient max                        0.00458928
gradient rms                        0.00137314
cart. step max                      0.03568912     0.01000000    F
cart. step rms                      0.01283648     0.00666667    F
 

--------
Geometry
--------
Formula: C8H8N4
Atoms
  Index Symbol   x (angstrom)   y (angstrom)   z (angstrom)
      1      C    -0.12398734    -1.59827693    -3.04249649
      2      N     0.19680418    -1.67782299    -1.56513517
      3      N    -0.52844561    -2.47922913    -0.78541184
      4      C    -1.49146580    -3.17535892    -1.37834921
      5      N    -2.38185831    -3.83475879    -1.77402352
      6      N     1.19279039    -1.07605739    -1.00046540
      7      C     1.86549177    -0.04872055    -1.69341900
      8      C     3.27365464    -0.05684630    -1.62793374
      9      C     4.00887734     0.97254204    -2.21653004
     10      C     3.35565435     2.03912852    -2.84774873
     11      C     1.95576495     2.07397599    -2.87788374
     12      C     1.20950245     1.04194656    -2.30557102
     13      H     0.70858364    -1.12435242    -3.55765329
     14      H    -0.28329797    -2.62281909    -3.38451031
     15      H    -1.04359735    -1.02427225    -3.17881885
     16      H     3.76852076    -0.87939556    -1.11731398
     17      H     5.09599289     0.94693364    -2.17467875
     18      H     3.93185894     2.84535538    -3.29646275
     19      H     1.44096504     2.91446457    -3.33925505
     20      H     0.12354105     1.09417361    -2.29575913

Total System Charge              0.00000

 *** GO1_GOStep9 ***

 Energy gradients wrt nuclear displacements
 ==========================================

     Atom      Cartesian (a.u./angstrom)
                 X         Y         Z
 ----------------------------------------
     1 C    -0.000190  0.000538 -0.001020
     2 N    -0.001673 -0.002563 -0.000178
     3 N     0.000587  0.001040 -0.000628
     4 C     0.001728  0.000601  0.000936
     5 N    -0.001179 -0.000572 -0.000349
     6 N     0.000386  0.000581  0.002726
     7 C     0.001147 -0.000326 -0.001057
     8 C    -0.000974 -0.000172 -0.000151
     9 C     0.000084  0.000556 -0.000182
    10 C     0.000068 -0.000376  0.000119
    11 C    -0.000105  0.000003  0.000048
    12 C    -0.000080  0.000472  0.000119
    13 H    -0.000001  0.000289 -0.000045
    14 H    -0.000121 -0.000070  0.000444
    15 H    -0.000056  0.000327 -0.000465
    16 H     0.000217 -0.000008  0.000053
    17 H     0.000168  0.000087 -0.000120
    18 H     0.000193  0.000108 -0.000199
    19 H    -0.000003  0.000091 -0.000135
    20 H    -0.000199 -0.000607  0.000084
 ----------------------------------------

 dE(predicted):    -0.51085E-04, dE(actual):    -0.75520E-04, Trust radius:    0.800000, all in a.u.
 
----------------------------------------------------------------------
Geometry Convergence after Step   9       (Hartree/Angstrom,Angstrom)
----------------------------------------------------------------------
current energy                               -4.60962808 Hartree
energy change                      -0.00007552     0.00020000    T
constrained gradient max            0.00271592     0.00010000    F
constrained gradient rms            0.00073113     0.00006667    F
gradient max                        0.00271538
gradient rms                        0.00073113
cart. step max                      0.02200403     0.01000000    F
cart. step rms                      0.00522052     0.00666667    T
 

--------
Geometry
--------
Formula: C8H8N4
Atoms
  Index Symbol   x (angstrom)   y (angstrom)   z (angstrom)
      1      C    -0.12565156    -1.60226496    -3.04152978
      2      N     0.19529907    -1.67579347    -1.56476398
      3      N    -0.53015975    -2.47718638    -0.78420947
      4      C    -1.49251694    -3.17415610    -1.37826681
      5      N    -2.37875472    -3.83708943    -1.77454232
      6      N     1.19095396    -1.07427336    -1.00391253
      7      C     1.86370777    -0.04542456    -1.69375810
      8      C     3.27226030    -0.05673726    -1.62878848
      9      C     4.00970477     0.97077329    -2.21732591
     10      C     3.35875844     2.03994509    -2.84668382
     11      C     1.95896964     2.07684621    -2.87788283
     12      C     1.21005050     1.04581304    -2.30753845
     13      H     0.69701984    -1.11284505    -3.55755587
     14      H    -0.26599897    -2.62908679    -3.38542108
     15      H    -1.05655362    -1.04627628    -3.17325012
     16      H     3.76508897    -0.88184366    -1.12067714
     17      H     5.09657758     0.94231245    -2.17566213
     18      H     3.93623595     2.84630226    -3.29295628
     19      H     1.44599621     2.91922188    -3.33746997
     20      H     0.12436253     1.10237308    -2.29722494

Total System Charge              0.00000

 *** GO1_GOStep10 ***

 Energy gradients wrt nuclear displacements
 ==========================================

     Atom      Cartesian (a.u./angstrom)
                 X         Y         Z
 ----------------------------------------
     1 C     0.000246 -0.000017 -0.000795
     2 N    -0.000001 -0.000390  0.001243
     3 N     0.000453  0.000546 -0.000662
     4 C    -0.001571 -0.000897 -0.000429
     5 N     0.001591  0.000998  0.000796
     6 N    -0.001170 -0.000843  0.000094
     7 C     0.000632  0.000460  0.000071
     8 C    -0.000389 -0.000068  0.000142
     9 C     0.000220  0.000198 -0.000364
    10 C     0.000280 -0.000039  0.000094
    11 C    -0.000357 -0.000274 -0.000049
    12 C    -0.000033  0.000497 -0.000620
    13 H    -0.000135 -0.000028 -0.000047
    14 H    -0.000020 -0.000014  0.000129
    15 H     0.000130  0.000041  0.000426
    16 H     0.000117  0.000016 -0.000183
    17 H    -0.000057  0.000055 -0.000095
    18 H     0.000015 -0.000018  0.000002
    19 H     0.000081 -0.000027  0.000048
    20 H    -0.000034 -0.000196  0.000201
 ----------------------------------------

 dE(predicted):    -0.15905E-04, dE(actual):    -0.17093E-04, Trust radius:    0.800000, all in a.u.
 
----------------------------------------------------------------------
Geometry Convergence after Step  10       (Hartree/Angstrom,Angstrom)
----------------------------------------------------------------------
current energy                               -4.60964517 Hartree
energy change                      -0.00001709     0.00020000    T
constrained gradient max            0.00158687     0.00010000    F
constrained gradient rms            0.00050525     0.00006667    F
gradient max                        0.00158711
gradient rms                        0.00050525
cart. step max                      0.00722385     0.01000000    T
cart. step rms                      0.00242832     0.00666667    T
 

--------
Geometry
--------
Formula: C8H8N4
Atoms
  Index Symbol   x (angstrom)   y (angstrom)   z (angstrom)
      1      C    -0.12930433    -1.60050229    -3.04085830
      2      N     0.19634065    -1.67666021    -1.56553209
      3      N    -0.52661225    -2.48084284    -0.78473100
      4      C    -1.49112566    -3.17514900    -1.37864765
      5      N    -2.38026068    -3.83537182    -1.77462575
      6      N     1.19352563    -1.07626096    -1.00614981
      7      C     1.86499969    -0.04646014    -1.69484427
      8      C     3.27350177    -0.05608326    -1.62727579
      9      C     4.01060585     0.97197093    -2.21489377
     10      C     3.35949040     2.03947743    -2.84715607
     11      C     1.95981684     2.07585816    -2.87882325
     12      C     1.21110990     1.04484350    -2.30803117
     13      H     0.68979599    -1.10576736    -3.55746514
     14      H    -0.26514098    -2.62699878    -3.38763348
     15      H    -1.06348218    -1.04918085    -3.16930291
     16      H     3.76606038    -0.87965690    -1.11643509
     17      H     5.09744807     0.94447936    -2.17158378
     18      H     3.93668786     2.84528030    -3.29474258
     19      H     1.44649993     2.91679768    -3.34072474
     20      H     0.12539313     1.10083704    -2.29996338

Total System Charge              0.00000

 *** GO1_GOStep11 ***

 Energy gradients wrt nuclear displacements
 ==========================================

     Atom      Cartesian (a.u./angstrom)
                 X         Y         Z
 ----------------------------------------
     1 C    -0.000030 -0.000030 -0.000531
     2 N     0.000356 -0.000066  0.000959
     3 N     0.000270  0.000347 -0.000279
     4 C     0.000010  0.000010  0.000020
     5 N    -0.000040 -0.000037  0.000123
     6 N    -0.000826 -0.000412 -0.000060
     7 C     0.000586  0.000193 -0.000279
     8 C    -0.000299 -0.000192 -0.000027
     9 C     0.000083  0.000215 -0.000036
    10 C     0.000154 -0.000105 -0.000126
    11 C    -0.000245 -0.000116  0.000121
    12 C     0.000008  0.000408 -0.000034
    13 H    -0.000093 -0.000042  0.000057
    14 H    -0.000005  0.000012  0.000046
    15 H     0.000050 -0.000008  0.000277
    16 H     0.000090  0.000083 -0.000038
    17 H    -0.000050 -0.000010 -0.000097
    18 H    -0.000034 -0.000043 -0.000056
    19 H     0.000038 -0.000068 -0.000074
    20 H    -0.000025 -0.000138  0.000033
 ----------------------------------------
 
----------------------------------------------------------------------
Geometry Convergence after Step  11       (Hartree/Angstrom,Angstrom)
----------------------------------------------------------------------
current energy                               -4.60964501 Hartree
energy change                       0.00000017     0.00020000    T
constrained gradient max            0.00092668     0.00010000    F
constrained gradient rms            0.00024272     0.00006667    F
gradient max                        0.00092662
gradient rms                        0.00024272
cart. step max                      0.00204527     0.01000000    T
cart. step rms                      0.00086999     0.00666667    T
 

--------
Geometry
--------
Formula: C8H8N4
Atoms
  Index Symbol   x (angstrom)   y (angstrom)   z (angstrom)
      1      C    -0.12971169    -1.60128578    -3.04099200
      2      N     0.19634868    -1.67676062    -1.56597993
      3      N    -0.52626886    -2.48085982    -0.78416579
      4      C    -1.49178003    -3.17433693    -1.37739279
      5      N    -2.38189564    -3.83367508    -1.77305309
      6      N     1.19470937    -1.07695180    -1.00730833
      7      C     1.86536969    -0.04707542    -1.69595374
      8      C     3.27395800    -0.05608978    -1.62789512
      9      C     4.01083091     0.97232412    -2.21493359
     10      C     3.35950471     2.04042186    -2.84616076
     11      C     1.95992861     2.07595887    -2.87881446
     12      C     1.21137457     1.04388642    -2.30941850
     13      H     0.68987322    -1.10741828    -3.55779109
     14      H    -0.26571247    -2.62801163    -3.38706383
     15      H    -1.06369707    -1.04987862    -3.17105848
     16      H     3.76636857    -0.87978212    -1.11706816
     17      H     5.09769591     0.94541220    -2.17082982
     18      H     3.93650837     2.84698204    -3.29269730
     19      H     1.44626051     2.91751433    -3.33931133
     20      H     0.12568463     1.10023605    -2.30153189

Total System Charge              0.00000

 *** GO1_GOStep12 ***

 Energy gradients wrt nuclear displacements
 ==========================================

     Atom      Cartesian (a.u./angstrom)
                 X         Y         Z
 ----------------------------------------
     1 C    -0.000126 -0.000025 -0.000285
     2 N     0.000283  0.000012  0.000372
     3 N     0.000048  0.000032  0.000024
     4 C     0.000389  0.000257  0.000205
     5 N    -0.000410 -0.000277 -0.000056
     6 N    -0.000219 -0.000003  0.000061
     7 C     0.000340  0.000125 -0.000172
     8 C    -0.000222 -0.000111  0.000017
     9 C    -0.000011  0.000049 -0.000180
    10 C     0.000048 -0.000008  0.000033
    11 C    -0.000080 -0.000071 -0.000031
    12 C     0.000014  0.000026 -0.000024
    13 H    -0.000023 -0.000033  0.000074
    14 H    -0.000003  0.000026  0.000055
    15 H    -0.000022 -0.000008  0.000063
    16 H     0.000049  0.000041 -0.000023
    17 H    -0.000005 -0.000005 -0.000052
    18 H    -0.000037 -0.000017 -0.000093
    19 H    -0.000005  0.000013 -0.000019
    20 H    -0.000006 -0.000023  0.000033
 ----------------------------------------
 
----------------------------------------------------------------------
Geometry Convergence after Step  12       (Hartree/Angstrom,Angstrom)
----------------------------------------------------------------------
current energy                               -4.60964549 Hartree
energy change                      -0.00000048     0.00020000    T
constrained gradient max            0.00041973     0.00010000    F
constrained gradient rms            0.00013747     0.00006667    F
gradient max                        0.00041969
gradient rms                        0.00013747
cart. step max                      0.00171828     0.01000000    T
cart. step rms                      0.00070855     0.00666667    T
 

--------
Geometry
--------
Formula: C8H8N4
Atoms
  Index Symbol   x (angstrom)   y (angstrom)   z (angstrom)
      1      C    -0.13093885    -1.60090730    -3.04078924
      2      N     0.19626786    -1.67684512    -1.56638484
      3      N    -0.52605020    -2.48091268    -0.78397181
      4      C    -1.49182905    -3.17420668    -1.37692389
      5      N    -2.38157757    -3.83368671    -1.77272003
      6      N     1.19592928    -1.07817461    -1.00838652
      7      C     1.86590069    -0.04758377    -1.69622442
      8      C     3.27462566    -0.05578979    -1.62761421
      9      C     4.01126663     0.97314246    -2.21387198
     10      C     3.35970861     2.04077593    -2.84576134
     11      C     1.96018345     2.07555656    -2.87912210
     12      C     1.21178313     1.04309588    -2.31001646
     13      H     0.68841152    -1.10728142    -3.55828245
     14      H    -0.26743075    -2.62758815    -3.38693016
     15      H    -1.06492094    -1.04935754    -3.17051557
     16      H     3.76704284    -0.87967259    -1.11708379
     17      H     5.09815078     0.94663384    -2.16950190
     18      H     3.93654305     2.84769753    -3.29190353
     19      H     1.44620721     2.91662198    -3.34020829
     20      H     0.12607666     1.09909219    -2.30320749

Total System Charge              0.00000

 *** GO1_GOStep13 ***

 Energy gradients wrt nuclear displacements
 ==========================================

     Atom      Cartesian (a.u./angstrom)
                 X         Y         Z
 ----------------------------------------
     1 C    -0.000128  0.000008 -0.000048
     2 N     0.000123  0.000009 -0.000002
     3 N    -0.000090 -0.000138  0.000145
     4 C    -0.000012  0.000049  0.000052
     5 N     0.000059  0.000011  0.000108
     6 N     0.000042  0.000113  0.000061
     7 C     0.000165  0.000097 -0.000041
     8 C    -0.000087 -0.000045 -0.000049
     9 C    -0.000023  0.000084 -0.000036
    10 C    -0.000006 -0.000057 -0.000071
    11 C     0.000017  0.000010 -0.000040
    12 C    -0.000001 -0.000099  0.000097
    13 H     0.000003 -0.000025  0.000039
    14 H    -0.000006 -0.000005  0.000064
    15 H    -0.000044 -0.000010  0.000002
    16 H     0.000023 -0.000001 -0.000051
    17 H     0.000023 -0.000019 -0.000083
    18 H    -0.000026  0.000008 -0.000085
    19 H    -0.000028  0.000011 -0.000042
    20 H    -0.000001 -0.000002 -0.000021
 ----------------------------------------

 dE(predicted):    -0.32409E-06, dE(actual):    -0.10710E-05, Trust radius:    0.800000, all in a.u.
 
----------------------------------------------------------------------
Geometry Convergence after Step  13       (Hartree/Angstrom,Angstrom)
----------------------------------------------------------------------
current energy                               -4.60964656 Hartree
energy change                      -0.00000107     0.00020000    T
constrained gradient max            0.00015450     0.00010000    F
constrained gradient rms            0.00005548     0.00006667    T
gradient max                        0.00015446
gradient rms                        0.00005548
cart. step max                      0.00135220     0.01000000    T
cart. step rms                      0.00063293     0.00666667    T
 

--------
Geometry
--------
Formula: C8H8N4
Atoms
  Index Symbol   x (angstrom)   y (angstrom)   z (angstrom)
      1      C    -0.13169176    -1.60091196    -3.04087681
      2      N     0.19641432    -1.67717672    -1.56687518
      3      N    -0.52564883    -2.48098889    -0.78399784
      4      C    -1.49194365    -3.17414090    -1.37631785
      5      N    -2.38218283    -3.83329161    -1.77155488
      6      N     1.19679935    -1.07917049    -1.00949494
      7      C     1.86630836    -0.04820147    -1.69705409
      8      C     3.27509872    -0.05564605    -1.62764471
      9      C     4.01159942     0.97361893    -2.21339127
     10      C     3.35989672     2.04119809    -2.84527185
     11      C     1.96038718     2.07530912    -2.87943265
     12      C     1.21209253     1.04235676    -2.31105449
     13      H     0.68730478    -1.10733056    -3.55898891
     14      H    -0.26871150    -2.62748881    -3.38718763
     15      H    -1.06565943    -1.04916000    -3.16975524
     16      H     3.76754910    -0.87923176    -1.11666944
     17      H     5.09845671     0.94779159    -2.16814970
     18      H     3.93664048     2.84856023    -3.29072275
     19      H     1.44625580     2.91627012    -3.34051212
     20      H     0.12638454     1.09824439    -2.30446764

Total System Charge              0.00000

 *** GO1_GOStep14 ***

 Energy gradients wrt nuclear displacements
 ==========================================

     Atom      Cartesian (a.u./angstrom)
                 X         Y         Z
 ----------------------------------------
     1 C    -0.000057  0.000021  0.000050
     2 N     0.000077  0.000044 -0.000053
     3 N    -0.000036 -0.000064  0.000145
     4 C    -0.000024 -0.000002  0.000051
     5 N     0.000058  0.000030  0.000107
     6 N    -0.000001  0.000023  0.000030
     7 C     0.000041  0.000047 -0.000041
     8 C     0.000007  0.000008 -0.000041
     9 C    -0.000009  0.000006 -0.000096
    10 C    -0.000018 -0.000018 -0.000043
    11 C     0.000026  0.000028 -0.000044
    12 C    -0.000011 -0.000101  0.000045
    13 H    -0.000005 -0.000016  0.000016
    14 H    -0.000011 -0.000019  0.000051
    15 H    -0.000026 -0.000016  0.000036
    16 H     0.000016  0.000012 -0.000032
    17 H     0.000017 -0.000004 -0.000070
    18 H    -0.000021  0.000005 -0.000072
    19 H    -0.000027 -0.000005 -0.000042
    20 H     0.000003  0.000020  0.000005
 ----------------------------------------

 dE(predicted):    -0.97235E-07, dE(actual):    -0.10022E-05, Trust radius:    0.800000, all in a.u.
 
----------------------------------------------------------------------
Geometry Convergence after Step  14       (Hartree/Angstrom,Angstrom)
----------------------------------------------------------------------
current energy                               -4.60964756 Hartree
energy change                      -0.00000100     0.00020000    T
constrained gradient max            0.00010030     0.00010000    F
constrained gradient rms            0.00003268     0.00006667    T
gradient max                        0.00010030
gradient rms                        0.00003268
cart. step max                      0.00103848     0.01000000    T
cart. step rms                      0.00036379     0.00666667    T
 

--------
Geometry
--------
Formula: C8H8N4
Atoms
  Index Symbol   x (angstrom)   y (angstrom)   z (angstrom)
      1      C    -0.13193407    -1.60091808    -3.04100387
      2      N     0.19656160    -1.67740119    -1.56715835
      3      N    -0.52534115    -2.48109254    -0.78413345
      4      C    -1.49203041    -3.17412304    -1.37596629
      5      N    -2.38273553    -3.83296279    -1.77074082
      6      N     1.19729914    -1.07973733    -1.01004324
      7      C     1.86652524    -0.04849504    -1.69738541
      8      C     3.27533229    -0.05553513    -1.62756932
      9      C     4.01171211     0.97402400    -2.21290184
     10      C     3.35990651     2.04142430    -2.84500075
     11      C     1.96039645     2.07516727    -2.87956207
     12      C     1.21220659     1.04198808    -2.31151072
     13      H     0.68712029    -1.10774006    -3.55940112
     14      H    -0.26974998    -2.62737068    -3.38736473
     15      H    -1.06559429    -1.04856565    -3.16948020
     16      H     3.76785757    -0.87910846    -1.11664574
     17      H     5.09855475     0.94848212    -2.16742995
     18      H     3.93659785     2.84887298    -3.29034799
     19      H     1.44618068     2.91609333    -3.34058690
     20      H     0.12648436     1.09760789    -2.30518725

Total System Charge              0.00000

 *** GO1_GOStep15 ***

 Energy gradients wrt nuclear displacements
 ==========================================

     Atom      Cartesian (a.u./angstrom)
                 X         Y         Z
 ----------------------------------------
     1 C    -0.000003  0.000003  0.000069
     2 N     0.000031  0.000047 -0.000016
     3 N     0.000037  0.000026  0.000084
     4 C     0.000021 -0.000016  0.000091
     5 N    -0.000015  0.000003  0.000078
     6 N    -0.000016 -0.000027  0.000017
     7 C    -0.000004  0.000031 -0.000025
     8 C     0.000038  0.000010 -0.000046
     9 C     0.000000  0.000008 -0.000038
    10 C    -0.000022 -0.000008 -0.000058
    11 C     0.000009  0.000014 -0.000049
    12 C    -0.000008 -0.000040  0.000002
    13 H    -0.000020 -0.000011  0.000012
    14 H    -0.000019 -0.000016  0.000043
    15 H    -0.000009 -0.000013  0.000057
    16 H     0.000018  0.000005 -0.000044
    17 H     0.000003 -0.000003 -0.000081
    18 H    -0.000017 -0.000011 -0.000080
    19 H    -0.000023 -0.000008 -0.000021
    20 H    -0.000001  0.000009  0.000007
 ----------------------------------------
 
---------------------------------------------------------
Geometry Convergence after Step  15       ** CONVERGED **
---------------------------------------------------------
current energy                               -4.60964827 Hartree
energy change                      -0.00000071     0.00020000    T
constrained gradient max            0.00004823     0.00010000    T
constrained gradient rms            0.00001708     0.00006667    T
gradient max                        0.00004824
gradient rms                        0.00001708
cart. step max                      0.00053293     0.01000000    T
cart. step rms                      0.00016528     0.00666667    T
 
Geometry optimization converged

Optimized geometry:

--------
Geometry
--------
Formula: C8H8N4
Atoms
  Index Symbol   x (angstrom)   y (angstrom)   z (angstrom)
      1      C    -0.13193407    -1.60091808    -3.04100387
      2      N     0.19656160    -1.67740119    -1.56715835
      3      N    -0.52534115    -2.48109254    -0.78413345
      4      C    -1.49203041    -3.17412304    -1.37596629
      5      N    -2.38273553    -3.83296279    -1.77074082
      6      N     1.19729914    -1.07973733    -1.01004324
      7      C     1.86652524    -0.04849504    -1.69738541
      8      C     3.27533229    -0.05553513    -1.62756932
      9      C     4.01171211     0.97402400    -2.21290184
     10      C     3.35990651     2.04142430    -2.84500075
     11      C     1.96039645     2.07516727    -2.87956207
     12      C     1.21220659     1.04198808    -2.31151072
     13      H     0.68712029    -1.10774006    -3.55940112
     14      H    -0.26974998    -2.62737068    -3.38736473
     15      H    -1.06559429    -1.04856565    -3.16948020
     16      H     3.76785757    -0.87910846    -1.11664574
     17      H     5.09855475     0.94848212    -2.16742995
     18      H     3.93659785     2.84887298    -3.29034799
     19      H     1.44618068     2.91609333    -3.34058690
     20      H     0.12648436     1.09760789    -2.30518725

Total System Charge              0.00000

Performing a single point calculation on the final geometry ...

 *** adf ***



 ===========================
 A T T A C H E D   F I L E S
 ===========================
  
 Restart/tmp/amstmp_c4_fragA_opt_kid0.1881322630/GO1_GOStep15.rkf*** GO1_GOStep15 ***



 ===============================
 M O D E L   P A R A M E T E R S
 ===============================
  
 DENSITY FUNCTIONAL POTENTIAL (scf)
    LDA:                               Exchange only                           == Not Default ==
    Gradient Corrections:              Becke88 LYP                             == Not Default ==

 SPIN  (restricted / unrestr.)
    Molecule:                          Restricted                               
    Fragments:                         Restricted                               

 OTHER ASPECTS
    Relativistic Corrections:          scalar (ZORA,MAPA)                       

    Nuclear Charge Density Model:      Point Charge Nuclei                      
    Core Treatment:                    Frozen Orbital(s)                        

    Hyperfine or Zeeman Interaction:   ---                                      

 Settings for Grimme D3 dispersion correction

      damping                        BJ
      s6                          1.000
      s8                          2.700
      a1                          0.430
      a2                          4.236

 Other (technical) parameters

      alpha                      14.000
      version                         4
 



 ===============
 G E O M E T R Y  ***  3D  Molecule  ***
 ===============
  

 ATOMS
 =====                            X Y Z                    CHARGE
                                (Angstrom)             Nucl     +Core       At.Mass
                       --------------------------    ----------------       -------
    1  C              -0.1319   -1.6009   -3.0410      6.00      6.00       12.0000
    2  N               0.1966   -1.6774   -1.5672      7.00      7.00       14.0031
    3  N              -0.5253   -2.4811   -0.7841      7.00      7.00       14.0031
    4  C              -1.4920   -3.1741   -1.3760      6.00      6.00       12.0000
    5  N              -2.3827   -3.8330   -1.7707      7.00      7.00       14.0031
    6  N               1.1973   -1.0797   -1.0100      7.00      7.00       14.0031
    7  C               1.8665   -0.0485   -1.6974      6.00      6.00       12.0000
    8  C               3.2753   -0.0555   -1.6276      6.00      6.00       12.0000
    9  C               4.0117    0.9740   -2.2129      6.00      6.00       12.0000
   10  C               3.3599    2.0414   -2.8450      6.00      6.00       12.0000
   11  C               1.9604    2.0752   -2.8796      6.00      6.00       12.0000
   12  C               1.2122    1.0420   -2.3115      6.00      6.00       12.0000
   13  H               0.6871   -1.1077   -3.5594      1.00      1.00        1.0078
   14  H              -0.2697   -2.6274   -3.3874      1.00      1.00        1.0078
   15  H              -1.0656   -1.0486   -3.1695      1.00      1.00        1.0078
   16  H               3.7679   -0.8791   -1.1166      1.00      1.00        1.0078
   17  H               5.0986    0.9485   -2.1674      1.00      1.00        1.0078
   18  H               3.9366    2.8489   -3.2903      1.00      1.00        1.0078
   19  H               1.4462    2.9161   -3.3406      1.00      1.00        1.0078
   20  H               0.1265    1.0976   -2.3052      1.00      1.00        1.0078


 FRAGMENTS
 =========                                     Atoms in this Fragment     Cart. coord.s (Angstrom)
                                               -------------------------------------------------------
    1  C                                                 1  C           -0.1319   -1.6009   -3.0410
    2  C                                                 4  C           -1.4920   -3.1741   -1.3760
    3  C                                                 7  C            1.8665   -0.0485   -1.6974
    4  C                                                 8  C            3.2753   -0.0555   -1.6276
    5  C                                                 9  C            4.0117    0.9740   -2.2129
    6  C                                                10  C            3.3599    2.0414   -2.8450
    7  C                                                11  C            1.9604    2.0752   -2.8796
    8  C                                                12  C            1.2122    1.0420   -2.3115
    9  N                                                 2  N            0.1966   -1.6774   -1.5672
   10  N                                                 3  N           -0.5253   -2.4811   -0.7841
   11  N                                                 5  N           -2.3827   -3.8330   -1.7707
   12  N                                                 6  N            1.1973   -1.0797   -1.0100
   13  H                                                13  H            0.6871   -1.1077   -3.5594
   14  H                                                14  H           -0.2697   -2.6274   -3.3874
   15  H                                                15  H           -1.0656   -1.0486   -3.1695
   16  H                                                16  H            3.7679   -0.8791   -1.1166
   17  H                                                17  H            5.0986    0.9485   -2.1674
   18  H                                                18  H            3.9366    2.8489   -3.2903
   19  H                                                19  H            1.4462    2.9161   -3.3406
   20  H                                                20  H            0.1265    1.0976   -2.3052



 =====================================
 S Y M M E T R Y ,   E L E C T R O N S
 =====================================
  
 Symmetry: NOSYM

 Irreducible Representations, including subspecies
 -------------------------------------------------
 A


 Configuration of Valence Electrons
 ==================================
 ( determined in the SCF procedure )

 Total:   84

 Net Charge: 0 (Nuclei minus Electrons)

 Aufbau principle for MO occupations will be applied through SCF cycle no.     100
 Thereafter, the program will assign electrons to MOs that are spatially
 similar to the occupied MOs in a "reference" cycle ("KeepOrbitals").
 The reference cycle is always the PREVIOUS cycle: it will evolve with
 the SCF procedure.
 ***************************************************************************************************



                                      ****************************************
                                      *  B U I L D : (Fragments, Functions)  *
                                      ****************************************
  



 =======
 S F O s  ***  (Symmetrized Fragment Orbitals)  ***
 =======
  
 SFOs are linear combinations of (valence) Fragment Orbitals (FOs), such that the SFOs transform as the
 irreducible representations of the (molecular) symmetry group. Each SFO is therefore characterized by
 an irrep of the molecule and by a few (or only one) generating FOs.
 The SFOs constitute a symmetry-adapted basis for the Fock matrix. The MO eigenvector coefficients in
 this basis provide a direct interpretation of the MOs in terms of Frontier Orbital Theory.

 The SFOs are combined with auxiliary Core Functions (CFs) to ensure orthogonalization on the (frozen)
 Core Orbitals (COs). The Core-orthogonalized SFOs (CSFOs) constitute the true Fock basis.

 The FOs, and hence also the (C)SFOs are combinations of the elementary basis functions (BAS). The basis
 functions that participate in the description of the SFOs depend on the irrep. The indices of the
 involved functions are printed below for each irrep.
 (The complete list of primitive basis functions is printed in another section)

 Total nr. of (C)SFOs (summation over all irreps) :   400

 NOTE: a (C)SFO that is defined as a combination of more than one FO is usually NOT normalized.



                                       === A ===
 Nr. of SFOs :  400
 Cartesian basis functions that participate in this irrep (total number =   456) :
      1     2     3     4     5     6     9    12     7    10
     13     8    11    14    15    16    17    18    19    20
     21    22    23    24    25    26    27    28    29    30
     31    32    33    34    35    36    39    42    37    40
     43    38    41    44    45    46    47    48    49    50
     51    52    53    54    55    56    57    58    59    60
     61    62    63    64    65    66    69    72    67    70
     73    68    71    74    75    76    77    78    79    80
     81    82    83    84    85    86    87    88    89    90
     91    92    93    94    95    96    99   102    97   100
    103    98   101   104   105   106   107   108   109   110
    111   112   113   114   115   116   117   118   119   120
    121   122   123   124   125   126   129   132   127   130
    133   128   131   134   135   136   137   138   139   140
    141   142   143   144   145   146   147   148   149   150
    151   152   153   154   155   156   159   162   157   160
    163   158   161   164   165   166   167   168   169   170
    171   172   173   174   175   176   177   178   179   180
    181   182   183   184   185   186   189   192   187   190
    193   188   191   194   195   196   197   198   199   200
    201   202   203   204   205   206   207   208   209   210
    211   212   213   214   215   216   219   222   217   220
    223   218   221   224   225   226   227   228   229   230
    231   232   233   234   235   236   237   238   239   240
    241   242   243   244   245   246   249   252   247   250
    253   248   251   254   255   256   257   258   259   260
    261   262   263   264   265   266   267   268   269   270
    271   272   273   274   275   276   279   282   277   280
    283   278   281   284   285   286   287   288   289   290
    291   292   293   294   295   296   297   298   299   300
    301   302   303   304   305   306   309   312   307   310
    313   308   311   314   315   316   317   318   319   320
    321   322   323   324   325   326   327   328   329   330
    331   332   333   334   335   336   339   342   337   340
    343   338   341   344   345   346   347   348   349   350
    351   352   353   354   355   356   357   358   359   360
    361   362   363   364   365   366   367   368   369   370
    371   372   373   374   375   376   377   378   379   380
    381   382   383   384   385   386   387   388   389   390
    391   392   393   394   395   396   397   398   399   400
    401   402   403   404   405   406   407   408   409   410
    411   412   413   414   415   416   417   418   419   420
    421   422   423   424   425   426   427   428   429   430
    431   432   433   434   435   436   437   438   439   440
    441   442   443   444   445   446   447   448   449   450
    451   452   453   454   455   456

    SFO  (index         Fragment          Generating    Expansion in Fragment Orbitals
  indx  incl.CFs)   Occup   Orb.Energy   FragmentType  Coeff.   Orbital     on Fragment
 --------------------------------------------------------------------------------------
     1       1      2.000     -10.066 au  C             1.00      1 S               1
                        (    -273.921 eV)
     2       2      2.000      -0.501 au  C             1.00      2 S               1
                        (     -13.620 eV)
     3       3       --         0.373 au  C             1.00      3 S               1
                        (      10.158 eV)
     4       4       --         5.405 au  C             1.00      4 S               1
                        (     147.073 eV)
     5       5       --        49.848 au  C             1.00      5 S               1
                        (    1356.422 eV)
     6       6      0.667      -0.193 au  C             1.00      1 P:x             1
                        (      -5.239 eV)
     7       7       --         0.169 au  C             1.00      2 P:x             1
                        (       4.589 eV)
     8       8       --         2.013 au  C             1.00      3 P:x             1
                        (      54.789 eV)
     9       9      0.667      -0.193 au  C             1.00      1 P:y             1
                        (      -5.239 eV)
    10      10       --         0.169 au  C             1.00      2 P:y             1
                        (       4.589 eV)
    11      11       --         2.013 au  C             1.00      3 P:y             1
                        (      54.789 eV)
    12      12      0.667      -0.193 au  C             1.00      1 P:z             1
                        (      -5.239 eV)
    13      13       --         0.169 au  C             1.00      2 P:z             1
                        (       4.589 eV)
    14      14       --         2.013 au  C             1.00      3 P:z             1
                        (      54.789 eV)
    15      15       --         1.243 au  C             1.00      1 D:z2            1
                        (      33.824 eV)
    16      16       --         1.243 au  C             1.00      1 D:x2-y2         1
                        (      33.824 eV)
    17      17       --         1.243 au  C             1.00      1 D:xy            1
                        (      33.824 eV)
    18      18       --         1.243 au  C             1.00      1 D:xz            1
                        (      33.824 eV)
    19      19       --         1.243 au  C             1.00      1 D:yz            1
                        (      33.824 eV)
    20      20       --         4.016 au  C             1.00      1 F:z3            1
                        (     109.271 eV)
    21      21       --         4.016 au  C             1.00      1 F:z             1
                        (     109.271 eV)
    22      22       --         4.016 au  C             1.00      1 F:xyz           1
                        (     109.271 eV)
    23      23       --         4.016 au  C             1.00      1 F:z2x           1
                        (     109.271 eV)
    24      24       --         4.016 au  C             1.00      1 F:z2y           1
                        (     109.271 eV)
    25      25       --         4.016 au  C             1.00      1 F:x             1
                        (     109.271 eV)
    26      26       --         4.016 au  C             1.00      1 F:y             1
                        (     109.271 eV)
    27      27      2.000     -10.066 au  C             1.00      1 S               2
                        (    -273.921 eV)
    28      28      2.000      -0.501 au  C             1.00      2 S               2
                        (     -13.620 eV)
    29      29       --         0.373 au  C             1.00      3 S               2
                        (      10.158 eV)
    30      30       --         5.405 au  C             1.00      4 S               2
                        (     147.073 eV)
    31      31       --        49.848 au  C             1.00      5 S               2
                        (    1356.422 eV)
    32      32      0.667      -0.193 au  C             1.00      1 P:x             2
                        (      -5.239 eV)
    33      33       --         0.169 au  C             1.00      2 P:x             2
                        (       4.589 eV)
    34      34       --         2.013 au  C             1.00      3 P:x             2
                        (      54.789 eV)
    35      35      0.667      -0.193 au  C             1.00      1 P:y             2
                        (      -5.239 eV)
    36      36       --         0.169 au  C             1.00      2 P:y             2
                        (       4.589 eV)
    37      37       --         2.013 au  C             1.00      3 P:y             2
                        (      54.789 eV)
    38      38      0.667      -0.193 au  C             1.00      1 P:z             2
                        (      -5.239 eV)
    39      39       --         0.169 au  C             1.00      2 P:z             2
                        (       4.589 eV)
    40      40       --         2.013 au  C             1.00      3 P:z             2
                        (      54.789 eV)
    41      41       --         1.243 au  C             1.00      1 D:z2            2
                        (      33.824 eV)
    42      42       --         1.243 au  C             1.00      1 D:x2-y2         2
                        (      33.824 eV)
    43      43       --         1.243 au  C             1.00      1 D:xy            2
                        (      33.824 eV)
    44      44       --         1.243 au  C             1.00      1 D:xz            2
                        (      33.824 eV)
    45      45       --         1.243 au  C             1.00      1 D:yz            2
                        (      33.824 eV)
    46      46       --         4.016 au  C             1.00      1 F:z3            2
                        (     109.271 eV)
    47      47       --         4.016 au  C             1.00      1 F:z             2
                        (     109.271 eV)
    48      48       --         4.016 au  C             1.00      1 F:xyz           2
                        (     109.271 eV)
    49      49       --         4.016 au  C             1.00      1 F:z2x           2
                        (     109.271 eV)
    50      50       --         4.016 au  C             1.00      1 F:z2y           2
                        (     109.271 eV)
    51      51       --         4.016 au  C             1.00      1 F:x             2
                        (     109.271 eV)
    52      52       --         4.016 au  C             1.00      1 F:y             2
                        (     109.271 eV)
    53      53      2.000     -10.066 au  C             1.00      1 S               3
                        (    -273.921 eV)
    54      54      2.000      -0.501 au  C             1.00      2 S               3
                        (     -13.620 eV)
    55      55       --         0.373 au  C             1.00      3 S               3
                        (      10.158 eV)
    56      56       --         5.405 au  C             1.00      4 S               3
                        (     147.073 eV)
    57      57       --        49.848 au  C             1.00      5 S               3
                        (    1356.422 eV)
    58      58      0.667      -0.193 au  C             1.00      1 P:x             3
                        (      -5.239 eV)
    59      59       --         0.169 au  C             1.00      2 P:x             3
                        (       4.589 eV)
    60      60       --         2.013 au  C             1.00      3 P:x             3
                        (      54.789 eV)
    61      61      0.667      -0.193 au  C             1.00      1 P:y             3
                        (      -5.239 eV)
    62      62       --         0.169 au  C             1.00      2 P:y             3
                        (       4.589 eV)
    63      63       --         2.013 au  C             1.00      3 P:y             3
                        (      54.789 eV)
    64      64      0.667      -0.193 au  C             1.00      1 P:z             3
                        (      -5.239 eV)
    65      65       --         0.169 au  C             1.00      2 P:z             3
                        (       4.589 eV)
    66      66       --         2.013 au  C             1.00      3 P:z             3
                        (      54.789 eV)
    67      67       --         1.243 au  C             1.00      1 D:z2            3
                        (      33.824 eV)
    68      68       --         1.243 au  C             1.00      1 D:x2-y2         3
                        (      33.824 eV)
    69      69       --         1.243 au  C             1.00      1 D:xy            3
                        (      33.824 eV)
    70      70       --         1.243 au  C             1.00      1 D:xz            3
                        (      33.824 eV)
    71      71       --         1.243 au  C             1.00      1 D:yz            3
                        (      33.824 eV)
    72      72       --         4.016 au  C             1.00      1 F:z3            3
                        (     109.271 eV)
    73      73       --         4.016 au  C             1.00      1 F:z             3
                        (     109.271 eV)
    74      74       --         4.016 au  C             1.00      1 F:xyz           3
                        (     109.271 eV)
    75      75       --         4.016 au  C             1.00      1 F:z2x           3
                        (     109.271 eV)
    76      76       --         4.016 au  C             1.00      1 F:z2y           3
                        (     109.271 eV)
    77      77       --         4.016 au  C             1.00      1 F:x             3
                        (     109.271 eV)
    78      78       --         4.016 au  C             1.00      1 F:y             3
                        (     109.271 eV)
    79      79      2.000     -10.066 au  C             1.00      1 S               4
                        (    -273.921 eV)
    80      80      2.000      -0.501 au  C             1.00      2 S               4
                        (     -13.620 eV)
    81      81       --         0.373 au  C             1.00      3 S               4
                        (      10.158 eV)
    82      82       --         5.405 au  C             1.00      4 S               4
                        (     147.073 eV)
    83      83       --        49.848 au  C             1.00      5 S               4
                        (    1356.422 eV)
    84      84      0.667      -0.193 au  C             1.00      1 P:x             4
                        (      -5.239 eV)
    85      85       --         0.169 au  C             1.00      2 P:x             4
                        (       4.589 eV)
    86      86       --         2.013 au  C             1.00      3 P:x             4
                        (      54.789 eV)
    87      87      0.667      -0.193 au  C             1.00      1 P:y             4
                        (      -5.239 eV)
    88      88       --         0.169 au  C             1.00      2 P:y             4
                        (       4.589 eV)
    89      89       --         2.013 au  C             1.00      3 P:y             4
                        (      54.789 eV)
    90      90      0.667      -0.193 au  C             1.00      1 P:z             4
                        (      -5.239 eV)
    91      91       --         0.169 au  C             1.00      2 P:z             4
                        (       4.589 eV)
    92      92       --         2.013 au  C             1.00      3 P:z             4
                        (      54.789 eV)
    93      93       --         1.243 au  C             1.00      1 D:z2            4
                        (      33.824 eV)
    94      94       --         1.243 au  C             1.00      1 D:x2-y2         4
                        (      33.824 eV)
    95      95       --         1.243 au  C             1.00      1 D:xy            4
                        (      33.824 eV)
    96      96       --         1.243 au  C             1.00      1 D:xz            4
                        (      33.824 eV)
    97      97       --         1.243 au  C             1.00      1 D:yz            4
                        (      33.824 eV)
    98      98       --         4.016 au  C             1.00      1 F:z3            4
                        (     109.271 eV)
    99      99       --         4.016 au  C             1.00      1 F:z             4
                        (     109.271 eV)
   100     100       --         4.016 au  C             1.00      1 F:xyz           4
                        (     109.271 eV)
   101     101       --         4.016 au  C             1.00      1 F:z2x           4
                        (     109.271 eV)
   102     102       --         4.016 au  C             1.00      1 F:z2y           4
                        (     109.271 eV)
   103     103       --         4.016 au  C             1.00      1 F:x             4
                        (     109.271 eV)
   104     104       --         4.016 au  C             1.00      1 F:y             4
                        (     109.271 eV)
   105     105      2.000     -10.066 au  C             1.00      1 S               5
                        (    -273.921 eV)
   106     106      2.000      -0.501 au  C             1.00      2 S               5
                        (     -13.620 eV)
   107     107       --         0.373 au  C             1.00      3 S               5
                        (      10.158 eV)
   108     108       --         5.405 au  C             1.00      4 S               5
                        (     147.073 eV)
[...]
                                   -1.36%     2 P:z             4.589  0.00     1 C
                                   -1.34%     1 P:z            -5.239  0.67     4 C
                                    1.24%     2 P:x             4.589  0.00     1 C
                                    1.18%     2 S             -13.620  2.00     6 C
                                   -1.13%     3 S              14.073  0.00    11 N
                                   -1.03%     1 P:x            -5.239  0.67     7 C
       1.765  0.00    56 A         24.32%     1 S              -6.532  1.00    20 H
                                   15.90%     2 S               2.394  0.00    20 H
                                   15.87%     1 S              -6.532  1.00    15 H
                                  -12.04%     2 P:x             4.589  0.00     8 C
                                    8.20%     1 S              -6.532  1.00    19 H
                                    7.52%     1 S              -6.532  1.00    14 H
                                   -6.82%     2 P:z             4.589  0.00     7 C
                                    5.67%     2 P:x             4.589  0.00     2 C
                                    5.54%     2 S               2.394  0.00    15 H
                                    4.64%     1 P:z            -5.239  0.67     6 C
                                   -4.50%     2 P:y             4.589  0.00     7 C
                                    4.05%     1 P:y            -5.239  0.67     1 C
                                    3.65%     1 P:z            -5.239  0.67     5 C
                                   -3.64%     2 P:x             4.589  0.00     1 C
                                    3.28%     1 P:z            -5.239  0.67     8 C
                                    3.05%     2 S             -13.620  2.00     2 C
                                   -3.01%     2 P:y             4.589  0.00     3 C
                                   -2.96%     2 P:y             4.589  0.00     1 C
                                    2.77%     2 P:z             4.589  0.00     8 C
                                   -2.76%     3 S              14.073  0.00    11 N
                                    2.67%     1 P:z            -5.239  0.67     7 C
                                   -2.40%     1 P:y            -5.239  0.67     7 C
                                    2.39%     2 S               2.394  0.00    13 H
                                    2.25%     2 P:z             4.589  0.00     3 C
                                    2.15%     1 P:z            -5.239  0.67     4 C
                                    2.04%     1 P:x            -5.239  0.67     8 C
                                    1.78%     3 S              40.869  0.00    20 H
                                   -1.77%     3 S              10.158  0.00     3 C
                                    1.76%     1 S              -6.532  1.00    16 H
                                    1.73%     2 S               2.394  0.00    19 H
                                    1.70%     3 S              40.869  0.00    15 H
                                    1.65%     2 P:y             4.589  0.00     6 C
                                    1.37%     2 P:x             7.649  0.00    10 N
                                    1.32%     1 S              -6.532  1.00    18 H
                                    1.31%     2 S             -13.620  2.00     7 C
                                    1.29%     3 S              40.869  0.00    19 H
                                   -1.29%     2 P:y             4.589  0.00     2 C
                                    1.21%     1 P:z            -7.062  1.00     9 N
                                   -1.11%     2 S               2.394  0.00    14 H
                                   -1.11%     2 P:z             7.649  0.00     9 N
                                    1.09%     1 P:y            -5.239  0.67     4 C
                                   -1.08%     3 S              10.158  0.00     8 C
                                   -1.04%     2 P:x             4.589  0.00     4 C

 Energy gradients wrt nuclear displacements
 ==========================================

     Atom      Cartesian (a.u./angstrom)
                 X         Y         Z
 ----------------------------------------
     1 C    -0.000003  0.000003  0.000069
     2 N     0.000031  0.000047 -0.000016
     3 N     0.000037  0.000026  0.000084
     4 C     0.000021 -0.000016  0.000091
     5 N    -0.000015  0.000003  0.000078
     6 N    -0.000016 -0.000027  0.000017
     7 C    -0.000004  0.000031 -0.000025
     8 C     0.000038  0.000010 -0.000046
     9 C     0.000000  0.000008 -0.000038
    10 C    -0.000022 -0.000008 -0.000058
    11 C     0.000009  0.000014 -0.000049
    12 C    -0.000008 -0.000040  0.000002
    13 H    -0.000020 -0.000011  0.000012
    14 H    -0.000019 -0.000016  0.000043
    15 H    -0.000009 -0.000013  0.000057
    16 H     0.000018  0.000005 -0.000044
    17 H     0.000003 -0.000003 -0.000081
    18 H    -0.000017 -0.000011 -0.000080
    19 H    -0.000023 -0.000008 -0.000021
    20 H    -0.000001  0.000009  0.000007
 ----------------------------------------



 =======================================================================
 Electrostatic potential at the Nuclei due to electrons and other nuclei
 =======================================================================
  
         Atom                  Potential
         ----                  ---------
     1)   C                  14.70913660
     2)   N                  18.22937823
     3)   N                  18.36364527
     4)   C                  14.74534836
     5)   N                  18.44669403
     6)   N                  18.36426267
     7)   C                  14.72069529
     8)   C                  14.76255813
     9)   C                  14.76251694
    10)   C                  14.76381256
    11)   C                  14.76024678
    12)   C                  14.75696127
    13)   H                   1.05282538
    14)   H                   1.05280388
    15)   H                   1.04987099
    16)   H                   1.08295761
    17)   H                   1.08502286
    18)   H                   1.08533270
    19)   H                   1.08229703
    20)   H                   1.07308400
 Mulliken charges used for AMS results%charges...


    =====================
     CALCULATION RESULTS
    =====================

Energy (hartree)            -4.60964827

Gradients (hartree/bohr)
  Index   Atom            d/dx            d/dy            d/dz
      1      C   -0.0000016850    0.0000013870    0.0000362685
      2      N    0.0000163136    0.0000248939   -0.0000084713
      3      N    0.0000196300    0.0000137974    0.0000445742
      4      C    0.0000112846   -0.0000086183    0.0000483573
      5      N   -0.0000079856    0.0000013511    0.0000414435
      6      N   -0.0000087021   -0.0000143179    0.0000091830
      7      C   -0.0000022217    0.0000162182   -0.0000133341
      8      C    0.0000201711    0.0000051942   -0.0000242019
      9      C    0.0000000562    0.0000039982   -0.0000202691
     10      C   -0.0000118677   -0.0000041941   -0.0000308381
     11      C    0.0000049505    0.0000074375   -0.0000258156
     12      C   -0.0000040492   -0.0000211178    0.0000008378
     13      H   -0.0000105658   -0.0000056553    0.0000060908
     14      H   -0.0000101778   -0.0000087078    0.0000226804
     15      H   -0.0000049926   -0.0000070494    0.0000299634
     16      H    0.0000097412    0.0000024530   -0.0000233510
     17      H    0.0000018045   -0.0000016348   -0.0000428692
     18      H   -0.0000091335   -0.0000059456   -0.0000425322
     19      H   -0.0000119244   -0.0000043372   -0.0000111830
     20      H   -0.0000006463    0.0000048478    0.0000034663


--------------
Atomic charges
--------------
  Index   Atom    Charge
      1      C    0.7486
      2      N    0.0752
      3      N   -0.1893
      4      C    0.1976
      5      N   -0.3136
      6      N   -0.1511
      7      C    0.0095
      8      C    0.2480
      9      C    0.2181
     10      C    0.2144
     11      C    0.2355
     12      C    0.1927
     13      H   -0.1814
     14      H   -0.1648
     15      H   -0.1371
     16      H   -0.1862
     17      H   -0.2073
     18      H   -0.2045
     19      H   -0.2148
     20      H   -0.1896


Dipole moment vector    (Debye):     3.86224025    4.54858206   -3.44901156
              magnitude (Debye):     6.89218247


-----------------------
Molecular orbitals info
-----------------------
n orbitals:              400
n spin:                    1

Note: only printing virtual orbitals with
      energy smaller than HOMO + 100. eV

HOMO (eV):              -5.8590
LUMO (eV):              -3.5523
HOMO-LUMO gap (eV):      2.3067

   Index   Energy (eV)    Occupation
     248       93.7956         0.000       
     247       92.8503         0.000       
     246       92.1224         0.000       
     245       92.0336         0.000       
     244       91.9647         0.000       
     243       90.9976         0.000       
     242       90.5364         0.000       
     241       90.0434         0.000       
     240       89.3892         0.000       
     239       87.9917         0.000       
     238       87.3894         0.000       
     237       86.7624         0.000       
     236       86.3003         0.000       
     235       85.7379         0.000       
     234       84.9697         0.000       
     233       83.6046         0.000       
     232       82.8356         0.000       
     231       82.2017         0.000       
     230       81.6073         0.000       
     229       81.2549         0.000       
     228       80.6035         0.000       
     227       79.8071         0.000       
     226       79.6549         0.000       
     225       79.5342         0.000       
     224       78.9824         0.000       
     223       78.4868         0.000       
     222       77.4021         0.000       
     221       76.9647         0.000       
     220       76.5277         0.000       
     219       76.0697         0.000       
     218       75.7808         0.000       
     217       74.6776         0.000       
     216       74.1570         0.000       
     215       73.5429         0.000       
     214       73.3081         0.000       
     213       72.5792         0.000       
     212       71.8616         0.000       
     211       71.3410         0.000       
     210       71.0293         0.000       
     209       70.4598         0.000       
     208       69.7352         0.000       
     207       68.1410         0.000       
     206       67.9095         0.000       
     205       67.4716         0.000       
     204       66.9174         0.000       
     203       66.3831         0.000       
     202       65.3844         0.000       
     201       64.5599         0.000       
     200       63.9049         0.000       
     199       63.2446         0.000       
     198       63.1298         0.000       
     197       62.7686         0.000       
     196       62.2218         0.000       
     195       61.5631         0.000       
     194       61.1540         0.000       
     193       60.7717         0.000       
     192       60.0345         0.000       
     191       58.8476         0.000       
     190       58.1570         0.000       
     189       57.5533         0.000       
     188       57.0961         0.000       
     187       55.9590         0.000       
     186       55.3555         0.000       
     185       55.1941         0.000       
     184       54.4220         0.000       
     183       54.1523         0.000       
     182       53.5644         0.000       
     181       53.2352         0.000       
     180       52.6625         0.000       
     179       52.1324         0.000       
     178       50.9484         0.000       
     177       50.4323         0.000       
     176       49.9866         0.000       
     175       49.5477         0.000       
     174       49.4439         0.000       
     173       48.8747         0.000       
     172       48.6645         0.000       
     171       48.0724         0.000       
     170       47.9316         0.000       
     169       47.7142         0.000       
     168       47.0843         0.000       
     167       46.0560         0.000       
     166       44.8131         0.000       
     165       44.0019         0.000       
     164       43.7076         0.000       
     163       43.4676         0.000       
     162       42.5828         0.000       
     161       42.2136         0.000       
     160       41.0364         0.000       
     159       40.7546         0.000       
     158       40.2015         0.000       
     157       39.8520         0.000       
     156       39.6413         0.000       
     155       39.0648         0.000       
     154       38.5106         0.000       
     153       38.2205         0.000       
     152       37.7366         0.000       
     151       37.5604         0.000       
     150       36.6270         0.000       
     149       36.1726         0.000       
     148       35.7224         0.000       
     147       35.1945         0.000       
     146       35.1388         0.000       
     145       34.5136         0.000       
     144       34.2346         0.000       
     143       34.1181         0.000       
     142       32.7112         0.000       
     141       32.4804         0.000       
     140       31.9568         0.000       
     139       31.6187         0.000       
     138       31.2181         0.000       
     137       31.0399         0.000       
     136       30.6303         0.000       
     135       30.2584         0.000       
     134       29.7610         0.000       
     133       29.0738         0.000       
     132       28.9368         0.000       
     131       28.4721         0.000       
     130       28.0247         0.000       
     129       27.6682         0.000       
     128       27.2172         0.000       
     127       26.9254         0.000       
     126       26.7641         0.000       
     125       26.1104         0.000       
     124       25.7840         0.000       
     123       25.3963         0.000       
     122       24.8512         0.000       
     121       23.9582         0.000       
     120       23.7532         0.000       
     119       23.3629         0.000       
     118       22.8614         0.000       
     117       22.5709         0.000       
     116       21.7276         0.000       
     115       21.4104         0.000       
     114       21.0369         0.000       
     113       20.6029         0.000       
     112       19.5766         0.000       
     111       19.3031         0.000       
     110       19.0933         0.000       
     109       18.4379         0.000       
     108       18.1612         0.000       
     107       17.7227         0.000       
     106       17.4771         0.000       
     105       17.0882         0.000       
     104       16.6594         0.000       
     103       16.5539         0.000       
     102       16.0818         0.000       
     101       14.9634         0.000       
     100       14.7508         0.000       
      99       14.0148         0.000       
      98       13.3905         0.000       
      97       13.2069         0.000       
      96       12.4998         0.000       
      95       12.0048         0.000       
      94       11.8725         0.000       
      93       11.6703         0.000       
      92       11.2508         0.000       
      91       10.9884         0.000       
      90       10.9216         0.000       
      89       10.5607         0.000       
      88       10.3363         0.000       
      87        9.9155         0.000       
      86        9.8148         0.000       
      85        9.0714         0.000       
      84        8.7663         0.000       
      83        8.6650         0.000       
      82        8.5674         0.000       
      81        8.3454         0.000       
      80        8.1519         0.000       
      79        7.9749         0.000       
      78        7.6429         0.000       
      77        7.4208         0.000       
      76        7.2631         0.000       
      75        6.9927         0.000       
      74        6.7265         0.000       
      73        6.3817         0.000       
      72        6.0904         0.000       
      71        5.9603         0.000       
      70        5.5597         0.000       
      69        5.5071         0.000       
      68        5.1896         0.000       
      67        4.9784         0.000       
      66        4.7421         0.000       
      65        4.3849         0.000       
      64        4.3036         0.000       
      63        4.1448         0.000       
      62        4.0522         0.000       
      61        3.9248         0.000       
      60        3.4107         0.000       
      59        2.8659         0.000       
      58        2.3807         0.000       
      57        1.9999         0.000       
      56        1.7650         0.000       
      55        1.5235         0.000       
      54        1.4425         0.000       
      53        1.1980         0.000       
      52        1.1007         0.000       
      51        0.7394         0.000       
      50        0.5382         0.000       
      49        0.1164         0.000       
      48       -0.2089         0.000       
      47       -0.4439         0.000       
      46       -0.7558         0.000       
      45       -1.6136         0.000       
      44       -1.8740         0.000       
      43       -3.5523         0.000 < LUMO
      42       -5.8590         2.000 < HOMO
      41       -6.7862         2.000       
      40       -6.9578         2.000       
      39       -7.0696         2.000       
      38       -8.1108         2.000       
      37       -8.4641         2.000       
      36       -8.8234         2.000       
      35       -9.1694         2.000       
      34       -9.2526         2.000       
      33       -9.4673         2.000       
      32       -9.8737         2.000       
      31      -10.5854         2.000       
      30      -10.9217         2.000       
      29      -11.3054         2.000       
      28      -11.6893         2.000       
      27      -11.8337         2.000       
      26      -12.7443         2.000       
      25      -13.1084         2.000       
      24      -14.0465         2.000       
      23      -14.3699         2.000       
      22      -15.4010         2.000       
      21      -15.7660         2.000       
      20      -17.4146         2.000       
      19      -19.0877         2.000       
      18      -19.3902         2.000       
      17      -20.1908         2.000       
      16      -21.6351         2.000       
      15      -22.1474         2.000       
      14      -24.0501         2.000       
      13      -28.1923         2.000       
      12     -270.7174         2.000       
      11     -270.7552         2.000       
      10     -270.7661         2.000       
       9     -270.8144         2.000       
       8     -270.9040         2.000       
       7     -271.4638         2.000       
       6     -271.8498         2.000       
       5     -272.1130         2.000       
       4     -381.2786         2.000       
       3     -383.2005         2.000       
       2     -383.2374         2.000       
       1     -386.6315         2.000       

AMS application finished. Exiting.
NORMAL TERMINATION
     Total cpu time:    1255.44
  Total system time:       8.21
 Total elapsed time:    1271.43
NORMAL TERMINATION
