
 *******************************************************************************
 *                                                                             *
 *  --------------------------------                                           *
 *   Amsterdam Modeling Suite (AMS)              2026.103                      *
 *  --------------------------------                                           *
 *                                               r260501 2026-05-01 873454b5   *
 *                                                                             *
 *                                                                             *
 *                              =================                              *
 *                              |               |                              *
 *                              |     A M S     |                              *
 *                              |               |                              *
 *                              =================                              *
 *                                                                             *
 *                                                                             *
 *   Online information and documentation:  https://www.scm.com/support/       *
 *   E-mail:  support@scm.com   info@scm.com                                   *
 *                                                                             *
 *   Scientific publications using AMS results must be properly referenced     *
 *   See the User Manuals (or the web site) for recommended citations          *
 *   The terms and conditions of the End User License Agreement apply to       *
 *   the use of AMS, https://www.scm.com/license-terms/                        *
 *                                                                             *
 **********************  x86_64_linux_intel / intelmpi  ************************
 
 Licensed to: Jong-June Jeon / University of Seoul 2026-06-02 13:44:15
 SCM User ID: u30731
  
 AMS 2026.103  RunTime: Jun04-2026 04:12:30  ShM Nodes: 1  Procs: 1

 AMS jobname: c3_eda
 AMS jobid  : 1123604384

 Start   directory: /gpfs/home1/yeseo1ee/projects/eda-asm-prediction/ADF_800/adf_outputs/batch_005/qmrxn20_sn2_A_B_D_E_C_B/
 Results directory: /gpfs/home1/yeseo1ee/projects/eda-asm-prediction/ADF_800/adf_outputs/batch_005/qmrxn20_sn2_A_B_D_E_C_B/c3_eda.results/
 Scratch directory: /tmp/amstmp_c3_eda_kid0.1123604384/

 RNG seed: 737615398 1966366444 -891105507 -1383211077 -1388582756 565585095 -2119207073 -446666731



                      ************************************************************************
                      *  ADF 2026.103  RunTime: Jun04-2026 04:12:30  ShM Nodes: 1  Procs: 1  *
                      ************************************************************************
  

       ****************************
       * SINGLE POINT CALCULATION *
       ****************************

--------
Geometry
--------
Formula: C3H7BrFN2O2
Atoms
  Index Symbol   x (angstrom)   y (angstrom)   z (angstrom)
      1      F     2.60476169     0.00097179     0.10085262 adf.f=fA
      2      C     0.54644275    -0.01512066     0.05614064 adf.f=fB
      3      H     1.63515746     1.70397028     0.16799184 adf.f=fB
      4     Br    -1.63503055    -0.48143412    -0.07323231 adf.f=fB
      5      C     0.56658037     1.50289728     0.10411702 adf.f=fB
      6      H     0.81693102    -0.49061877    -0.86640515 adf.f=fB
      7      N     0.85677915    -0.86278597     1.22846567 adf.f=fB
      8      O     0.90562018    -0.33760163     2.33762995 adf.f=fB
      9      O     0.99211853    -2.06036033     1.01348016 adf.f=fB
     10      C    -0.15997589     2.18745424     1.25760244 adf.f=fB
     11      H    -1.22955273     1.96889567     1.23271161 adf.f=fB
     12      H     0.23917438     1.88239591     2.22269660 adf.f=fB
     13      H    -0.02551975     3.26958049     1.14515252 adf.f=fB
     14      N     0.11261695     1.95821861    -1.21749403 adf.f=fB
     15      H     0.36208685     2.93645633    -1.31027143 adf.f=fB
     16      H    -0.89991043     1.89361087    -1.24840816 adf.f=fB

Total System Charge             -1.00000


----------------
ADF Engine Input
----------------
 
   Basis
     Type TZ2P
     Core None
   End
   XC
     GGA BLYP
     Dispersion GRIMME3 BJDAMP
   End
   Symmetry NOSYM
   NumericalQuality Normal
   Unrestricted No
   SCF
     Iterations 200
     Converge 1.0e-6
   End
   fragments
     fA c1_fragA_ts.results/adf.rkf
     fB c2_fragB_ts.results/adf.rkf
   end
   etsnocv
     enocv 0.05
     ekmin 0.5
   end
   print etslowdin
   Save TAPE21
 

 Title: *** (NO TITLE) ***

 *** adf ***



 ===========================
 A T T A C H E D   F I L E S
 ===========================
  



 ===============================
 M O D E L   P A R A M E T E R S
 ===============================
  
 DENSITY FUNCTIONAL POTENTIAL (scf)
    LDA:                               Exchange only                           == Not Default ==
    Gradient Corrections:              Becke88 LYP                             == Not Default ==

 SPIN  (restricted / unrestr.)
    Molecule:                          Restricted                               
    Fragments:                         Restricted                               

 OTHER ASPECTS
    Relativistic Corrections:          scalar (ZORA,MAPA)                       

    Nuclear Charge Density Model:      Point Charge Nuclei                      
    Core Treatment:                    Frozen Orbital(s)                        

    Hyperfine or Zeeman Interaction:   ---                                      

 Settings for Grimme D3 dispersion correction

      damping                        BJ
      s6                          1.000
      s8                          2.700
      a1                          0.430
      a2                          4.236

 Other (technical) parameters

      alpha                      14.000
      version                         4
 


 Fragment File(s)
 ----------------
 fA:
         file : c1_fragA_ts.results/adf.rkf
         jobid: 1983752048
         title: *** adf ***
 fB:
         file : c2_fragB_ts.results/adf.rkf
         jobid: 936208670
         title: *** adf ***



 ===============
 G E O M E T R Y  ***  3D  Molecule  ***
 ===============
  

 ATOMS
 =====                            X Y Z                    CHARGE
                                (Angstrom)             Nucl     +Core       At.Mass
                       --------------------------    ----------------       -------
    1  F               2.6048    0.0010    0.1009      9.00      9.00       18.9984
    2  C               0.5464   -0.0151    0.0561      6.00      6.00       12.0000
    3  H               1.6352    1.7040    0.1680      1.00      1.00        1.0078
    4  Br             -1.6350   -0.4814   -0.0732     35.00     35.00       78.9183
    5  C               0.5666    1.5029    0.1041      6.00      6.00       12.0000
    6  H               0.8169   -0.4906   -0.8664      1.00      1.00        1.0078
    7  N               0.8568   -0.8628    1.2285      7.00      7.00       14.0031
    8  O               0.9056   -0.3376    2.3376      8.00      8.00       15.9949
    9  O               0.9921   -2.0604    1.0135      8.00      8.00       15.9949
   10  C              -0.1600    2.1875    1.2576      6.00      6.00       12.0000
   11  H              -1.2296    1.9689    1.2327      1.00      1.00        1.0078
   12  H               0.2392    1.8824    2.2227      1.00      1.00        1.0078
   13  H              -0.0255    3.2696    1.1452      1.00      1.00        1.0078
   14  N               0.1126    1.9582   -1.2175      7.00      7.00       14.0031
   15  H               0.3621    2.9365   -1.3103      1.00      1.00        1.0078
   16  H              -0.8999    1.8936   -1.2484      1.00      1.00        1.0078


 FRAGMENTS
 =========                                     Atoms in this Fragment     Cart. coord.s (Angstrom)
                                               -------------------------------------------------------
    1  fA                                                1  F            2.6048    0.0010    0.1009
    2  fB                                                2  C            0.5464   -0.0151    0.0561
                                                         5  C            0.5666    1.5029    0.1041
                                                        10  C           -0.1600    2.1875    1.2576
                                                         3  H            1.6352    1.7040    0.1680
                                                         6  H            0.8169   -0.4906   -0.8664
                                                        11  H           -1.2296    1.9689    1.2327
                                                        12  H            0.2392    1.8824    2.2227
                                                        13  H           -0.0255    3.2696    1.1452
                                                        15  H            0.3621    2.9365   -1.3103
                                                        16  H           -0.8999    1.8936   -1.2484
                                                         4  Br          -1.6350   -0.4814   -0.0732
                                                         7  N            0.8568   -0.8628    1.2285
                                                        14  N            0.1126    1.9582   -1.2175
                                                         8  O            0.9056   -0.3376    2.3376
                                                         9  O            0.9921   -2.0604    1.0135


 Interatomic Distance Matrix (Angstrom)
 --------------------------------------

   1)     0.000
   2)     2.059   0.000
   3)     1.961   2.038   0.000
   4)     4.271   2.235   3.941   0.000
   5)     2.532   1.519   1.089   2.969   0.000
   6)     2.091   1.073   2.560   2.577   2.231   0.000
   7)     2.252   1.480   2.884   2.837   2.635   2.128   0.000
   8)     2.829   2.332   3.067   3.505   2.914   3.209   1.228   0.000
   9)     2.772   2.302   3.911   3.252   3.702   2.455   1.224   2.175   0.000
  10)     3.710   2.607   2.155   3.327   1.525   3.555   3.215   2.946   4.408   0.000
  11)     4.456   2.911   3.068   2.806   2.172   3.827   3.517   3.332   4.606   1.092
          0.000
  12)     3.693   2.896   2.490   3.791   2.177   3.938   2.984   2.321   4.192   1.088
          1.773   0.000
  13)     4.324   3.507   2.483   4.260   2.134   4.347   4.226   3.912   5.428   1.096
          1.775   1.776   0.000
  14)     3.432   2.388   2.074   3.212   1.470   2.572   3.807   4.306   4.680   2.501
          2.794   3.443   2.706   0.000
  15)     3.954   3.258   2.308   4.147   2.024   3.486   4.596   4.932   5.547   2.725
          3.152   3.689   2.508   1.014   0.000
  16)     4.205   2.727   2.910   2.750   2.033   2.963   4.101   4.593   4.933   2.629
          2.504   3.653   2.896   1.015   1.638   0.000

 Min. Distance =    1.0138
 Max. Distance =    5.5466



 =====================================
 S Y M M E T R Y ,   E L E C T R O N S
 =====================================
  
 Symmetry: NOSYM

 Irreducible Representations, including subspecies
 -------------------------------------------------
 A


 Configuration of Valence Electrons
 ==================================
 ( determined in the SCF procedure )

 Total:   100

 Net Charge: -1 (Nuclei minus Electrons)

 Aufbau principle for MO occupations will be applied through SCF cycle no.     100
 Thereafter, the program will assign electrons to MOs that are spatially
 similar to the occupied MOs in a "reference" cycle ("KeepOrbitals").
 The reference cycle is always the PREVIOUS cycle: it will evolve with
 the SCF procedure.
 ***************************************************************************************************



                                      ****************************************
                                      *  B U I L D : (Fragments, Functions)  *
                                      ****************************************
  

 The individual fragments are copies of the corresponding 'Master' fragments defined on the fragment files.
 However, they may have been rotated (and translated) with respect to the Master. The local coordinate axes
 of each fragment (which define for instance the spatial orientation in the current molecule of a fragment
 P:x orbital) are not necessarily those of the molecule.
 The local frame (if different from the molecular one) is printed to enable an interpretation of the expan-
 sion of an MO in Fragment Orbitals.



                                              ************************
                                              *  Fragment Type : fA  *
                                              ************************
  

 Fragment no.    1   (in the list of all fragments)
 -----------------
 The local coordinate frame is identical to the molecular frame.

 Check Atomic Coordinates:

                  Master (on file)          After Computed Tranformation               As specified on Input
           ----------------------------     ----------------------------     ---------------------------------
     1)     2.60476   0.00097   0.10085      2.60476   0.00097   0.10085       1   2.60476   0.00097   0.10085



                                              ************************
                                              *  Fragment Type : fB  *
                                              ************************
  

 Fragment no.    2   (in the list of all fragments)
 -----------------
 The local coordinate frame is identical to the molecular frame.

 Check Atomic Coordinates:

                  Master (on file)          After Computed Tranformation               As specified on Input
           ----------------------------     ----------------------------     ---------------------------------
     1)     0.54644  -0.01512   0.05614      0.54644  -0.01512   0.05614       2   0.54644  -0.01512   0.05614
     2)     0.56658   1.50290   0.10412      0.56658   1.50290   0.10412       5   0.56658   1.50290   0.10412
     3)    -0.15998   2.18745   1.25760     -0.15998   2.18745   1.25760      10  -0.15998   2.18745   1.25760
     4)     1.63516   1.70397   0.16799      1.63516   1.70397   0.16799       3   1.63516   1.70397   0.16799
     5)     0.81693  -0.49062  -0.86641      0.81693  -0.49062  -0.86641       6   0.81693  -0.49062  -0.86641
     6)    -1.22955   1.96890   1.23271     -1.22955   1.96890   1.23271      11  -1.22955   1.96890   1.23271
     7)     0.23917   1.88240   2.22270      0.23917   1.88240   2.22270      12   0.23917   1.88240   2.22270
     8)    -0.02552   3.26958   1.14515     -0.02552   3.26958   1.14515      13  -0.02552   3.26958   1.14515
     9)     0.36209   2.93646  -1.31027      0.36209   2.93646  -1.31027      15   0.36209   2.93646  -1.31027
    10)    -0.89991   1.89361  -1.24841     -0.89991   1.89361  -1.24841      16  -0.89991   1.89361  -1.24841
    11)    -1.63503  -0.48143  -0.07323     -1.63503  -0.48143  -0.07323       4  -1.63503  -0.48143  -0.07323
    12)     0.85678  -0.86279   1.22847      0.85678  -0.86279   1.22847       7   0.85678  -0.86279   1.22847
    13)     0.11262   1.95822  -1.21749      0.11262   1.95822  -1.21749      14   0.11262   1.95822  -1.21749
    14)     0.90562  -0.33760   2.33763      0.90562  -0.33760   2.33763       8   0.90562  -0.33760   2.33763
    15)     0.99212  -2.06036   1.01348      0.99212  -2.06036   1.01348       9   0.99212  -2.06036   1.01348



 =======
 S F O s  ***  (Symmetrized Fragment Orbitals)  ***
 =======
  
 SFOs are linear combinations of (valence) Fragment Orbitals (FOs), such that the SFOs transform as the
 irreducible representations of the (molecular) symmetry group. Each SFO is therefore characterized by
 an irrep of the molecule and by a few (or only one) generating FOs.
 The SFOs constitute a symmetry-adapted basis for the Fock matrix. The MO eigenvector coefficients in
 this basis provide a direct interpretation of the MOs in terms of Frontier Orbital Theory.

 The SFOs are combined with auxiliary Core Functions (CFs) to ensure orthogonalization on the (frozen)
 Core Orbitals (COs). The Core-orthogonalized SFOs (CSFOs) constitute the true Fock basis.

 The FOs, and hence also the (C)SFOs are combinations of the elementary basis functions (BAS). The basis
 functions that participate in the description of the SFOs depend on the irrep. The indices of the
 involved functions are printed below for each irrep.
 (The complete list of primitive basis functions is printed in another section)

 Total nr. of (C)SFOs (summation over all irreps) :   341

 NOTE: a (C)SFO that is defined as a combination of more than one FO is usually NOT normalized.



                                       === A ===
 Nr. of SFOs :  341
 Cartesian basis functions that participate in this irrep (total number =   387) :
      1     2     3     4     5     6     9    12     7    10
     13     8    11    14    15    16    17    18    19    20
     21    22    23    24    25    26    27    28    29    30
     31    32    33    34    35    36    39    42    37    40
     43    38    41    44    45    46    47    48    49    50
     51    52    53    54    55    56    57    58    59    60
     61    62    63    64    65    66    69    72    67    70
     73    68    71    74    75    76    77    78    79    80
     81    82    83    84    85    86    87    88    89    90
     91    92    93    94    95    96    99   102    97   100
    103    98   101   104   105   106   107   108   109   110
    111   112   113   114   115   116   117   118   119   120
    121   122   123   124   125   126   127   128   129   130
    131   132   133   134   135   136   137   138   139   140
    141   142   143   144   145   146   147   148   149   150
    151   152   153   154   155   156   157   158   159   160
    161   162   163   164   165   166   167   168   169   170
    171   172   173   174   175   176   177   178   179   180
    181   182   183   184   185   186   187   188   189   190
    191   192   193   194   195   196   197   198   199   200
    201   202   203   204   205   206   207   214   215   240
    241   242   208   211   216   219   243   246   249   209
    212   217   220   244   247   250   210   213   218   221
    245   248   251   222   228   234   252   223   229   235
    253   224   230   236   254   225   231   237   255   226
    232   238   256   227   233   239   257   258   259   260
    261   262   263   264   265   266   267   268   269   270
    271   272   273   276   279   274   277   280   275   278
    281   282   283   284   285   286   287   288   289   290
    291   292   293   294   295   296   297   298   299   300
    301   302   303   306   309   304   307   310   305   308
    311   312   313   314   315   316   317   318   319   320
    321   322   323   324   325   326   327   328   329   330
    331   332   333   336   339   334   337   340   335   338
    341   342   343   344   345   346   347   348   349   350
    351   352   353   354   355   356   357   358   359   360
    361   362   363   366   369   364   367   370   365   368
    371   372   373   374   375   376   377   378   379   380
    381   382   383   384   385   386   387

    SFO  (index         Fragment          Generating    Expansion in Fragment Orbitals
  indx  incl.CFs)   Occup   Orb.Energy   FragmentType  Coeff.   Orbital     on Fragment
 --------------------------------------------------------------------------------------
     1       1      2.000     -23.816 au  fA            1.00      1 A               1
                        (    -648.061 eV)
     2       2      2.000      -0.558 au  fA            1.00      2 A               1
                        (     -15.175 eV)
     3       3      2.000       0.108 au  fA            1.00      3 A               1
                        (       2.943 eV)
     4       4      2.000       0.108 au  fA            1.00      4 A               1
                        (       2.943 eV)
     5       5      2.000       0.108 au  fA            1.00      5 A               1
                        (       2.943 eV)
     6       6       --         0.286 au  fA            1.00      6 A               1
                        (       7.775 eV)
     7       7       --         0.812 au  fA            1.00      7 A               1
                        (      22.094 eV)
     8       8       --         0.812 au  fA            1.00      8 A               1
                        (      22.094 eV)
     9       9       --         0.812 au  fA            1.00      9 A               1
                        (      22.094 eV)
    10      10       --         1.565 au  fA            1.00     10 A               1
                        (      42.594 eV)
    11      11       --         1.565 au  fA            1.00     11 A               1
                        (      42.594 eV)
    12      12       --         1.565 au  fA            1.00     12 A               1
                        (      42.594 eV)
    13      13       --         1.565 au  fA            1.00     13 A               1
                        (      42.594 eV)
    14      14       --         1.565 au  fA            1.00     14 A               1
                        (      42.594 eV)
    15      15       --         2.036 au  fA            1.00     15 A               1
                        (      55.390 eV)
    16      16       --         3.895 au  fA            1.00     16 A               1
                        (     106.000 eV)
    17      17       --         3.895 au  fA            1.00     17 A               1
                        (     106.000 eV)
    18      18       --         3.895 au  fA            1.00     18 A               1
                        (     106.000 eV)
    19      19       --         3.895 au  fA            1.00     19 A               1
                        (     106.000 eV)
    20      20       --         3.895 au  fA            1.00     20 A               1
                        (     106.000 eV)
    21      21       --         3.895 au  fA            1.00     21 A               1
                        (     106.000 eV)
    22      22       --         3.895 au  fA            1.00     22 A               1
                        (     106.000 eV)
    23      23       --         5.080 au  fA            1.00     23 A               1
                        (     138.227 eV)
    24      24       --         5.080 au  fA            1.00     24 A               1
                        (     138.227 eV)
    25      25       --         5.080 au  fA            1.00     25 A               1
                        (     138.227 eV)
    26      26       --        48.370 au  fA            1.00     26 A               1
                        (    1316.209 eV)
    27      27      2.000    -488.625 au  fB            1.00      1 A               2
                        (  -13296.150 eV)
    28      28      2.000     -63.564 au  fB            1.00      2 A               2
                        (   -1729.659 eV)
    29      29      2.000     -56.104 au  fB            1.00      3 A               2
                        (   -1526.655 eV)
    30      30      2.000     -56.099 au  fB            1.00      4 A               2
                        (   -1526.530 eV)
    31      31      2.000     -56.099 au  fB            1.00      5 A               2
                        (   -1526.527 eV)
    32      32      2.000     -18.848 au  fB            1.00      6 A               2
                        (    -512.875 eV)
    33      33      2.000     -18.847 au  fB            1.00      7 A               2
                        (    -512.854 eV)
    34      34      2.000     -14.269 au  fB            1.00      8 A               2
                        (    -388.287 eV)
    35      35      2.000     -14.030 au  fB            1.00      9 A               2
                        (    -381.765 eV)
    36      36      2.000     -10.052 au  fB            1.00     10 A               2
                        (    -273.542 eV)
    37      37      2.000      -9.999 au  fB            1.00     11 A               2
                        (    -272.074 eV)
    38      38      2.000      -9.927 au  fB            1.00     12 A               2
                        (    -270.120 eV)
    39      39      2.000      -8.684 au  fB            1.00     13 A               2
                        (    -236.299 eV)
    40      40      2.000      -6.349 au  fB            1.00     14 A               2
                        (    -172.771 eV)
    41      41      2.000      -6.336 au  fB            1.00     15 A               2
                        (    -172.409 eV)
    42      42      2.000      -6.336 au  fB            1.00     16 A               2
                        (    -172.399 eV)
    43      43      2.000      -2.432 au  fB            1.00     17 A               2
                        (     -66.182 eV)
    44      44      2.000      -2.429 au  fB            1.00     18 A               2
                        (     -66.097 eV)
    45      45      2.000      -2.429 au  fB            1.00     19 A               2
                        (     -66.088 eV)
    46      46      2.000      -2.419 au  fB            1.00     20 A               2
                        (     -65.822 eV)
    47      47      2.000      -2.419 au  fB            1.00     21 A               2
                        (     -65.819 eV)
    48      48      2.000      -1.154 au  fB            1.00     22 A               2
                        (     -31.391 eV)
    49      49      2.000      -0.990 au  fB            1.00     23 A               2
                        (     -26.927 eV)
    50      50      2.000      -0.851 au  fB            1.00     24 A               2
                        (     -23.157 eV)
    51      51      2.000      -0.777 au  fB            1.00     25 A               2
                        (     -21.132 eV)
    52      52      2.000      -0.714 au  fB            1.00     26 A               2
                        (     -19.430 eV)
    53      53      2.000      -0.684 au  fB            1.00     27 A               2
                        (     -18.599 eV)
    54      54      2.000      -0.613 au  fB            1.00     28 A               2
                        (     -16.676 eV)
    55      55      2.000      -0.543 au  fB            1.00     29 A               2
                        (     -14.785 eV)
    56      56      2.000      -0.510 au  fB            1.00     30 A               2
                        (     -13.867 eV)
    57      57      2.000      -0.507 au  fB            1.00     31 A               2
                        (     -13.798 eV)
    58      58      2.000      -0.488 au  fB            1.00     32 A               2
                        (     -13.285 eV)
    59      59      2.000      -0.464 au  fB            1.00     33 A               2
                        (     -12.625 eV)
    60      60      2.000      -0.431 au  fB            1.00     34 A               2
                        (     -11.725 eV)
    61      61      2.000      -0.405 au  fB            1.00     35 A               2
                        (     -11.030 eV)
    62      62      2.000      -0.393 au  fB            1.00     36 A               2
                        (     -10.682 eV)
    63      63      2.000      -0.358 au  fB            1.00     37 A               2
                        (      -9.750 eV)
    64      64      2.000      -0.353 au  fB            1.00     38 A               2
                        (      -9.606 eV)
    65      65      2.000      -0.318 au  fB            1.00     39 A               2
                        (      -8.644 eV)
    66      66      2.000      -0.300 au  fB            1.00     40 A               2
                        (      -8.165 eV)
    67      67      2.000      -0.286 au  fB            1.00     41 A               2
                        (      -7.774 eV)
    68      68      2.000      -0.267 au  fB            1.00     42 A               2
                        (      -7.269 eV)
    69      69      2.000      -0.260 au  fB            1.00     43 A               2
                        (      -7.067 eV)
    70      70      2.000      -0.257 au  fB            1.00     44 A               2
                        (      -7.003 eV)
    71      71      2.000      -0.235 au  fB            1.00     45 A               2
                        (      -6.387 eV)
    72      72       --        -0.161 au  fB            1.00     46 A               2
                        (      -4.389 eV)
    73      73       --        -0.085 au  fB            1.00     47 A               2
                        (      -2.308 eV)
    74      74       --        -0.025 au  fB            1.00     48 A               2
                        (      -0.679 eV)
    75      75       --         0.002 au  fB            1.00     49 A               2
                        (       0.066 eV)
    76      76       --         0.014 au  fB            1.00     50 A               2
                        (       0.386 eV)
    77      77       --         0.022 au  fB            1.00     51 A               2
                        (       0.605 eV)
    78      78       --         0.042 au  fB            1.00     52 A               2
                        (       1.148 eV)
    79      79       --         0.054 au  fB            1.00     53 A               2
                        (       1.479 eV)
    80      80       --         0.077 au  fB            1.00     54 A               2
                        (       2.096 eV)
    81      81       --         0.084 au  fB            1.00     55 A               2
                        (       2.275 eV)
    82      82       --         0.101 au  fB            1.00     56 A               2
                        (       2.759 eV)
    83      83       --         0.110 au  fB            1.00     57 A               2
                        (       2.990 eV)
    84      84       --         0.123 au  fB            1.00     58 A               2
                        (       3.340 eV)
    85      85       --         0.130 au  fB            1.00     59 A               2
                        (       3.547 eV)
    86      86       --         0.152 au  fB            1.00     60 A               2
                        (       4.141 eV)
    87      87       --         0.160 au  fB            1.00     61 A               2
                        (       4.347 eV)
    88      88       --         0.166 au  fB            1.00     62 A               2
                        (       4.506 eV)
    89      89       --         0.176 au  fB            1.00     63 A               2
                        (       4.777 eV)
    90      90       --         0.184 au  fB            1.00     64 A               2
                        (       5.001 eV)
    91      91       --         0.193 au  fB            1.00     65 A               2
                        (       5.253 eV)
    92      92       --         0.210 au  fB            1.00     66 A               2
                        (       5.715 eV)
    93      93       --         0.223 au  fB            1.00     67 A               2
                        (       6.061 eV)
    94      94       --         0.227 au  fB            1.00     68 A               2
                        (       6.174 eV)
    95      95       --         0.236 au  fB            1.00     69 A               2
                        (       6.418 eV)
    96      96       --         0.258 au  fB            1.00     70 A               2
                        (       7.033 eV)
    97      97       --         0.274 au  fB            1.00     71 A               2
                        (       7.454 eV)
    98      98       --         0.294 au  fB            1.00     72 A               2
                        (       7.990 eV)
    99      99       --         0.300 au  fB            1.00     73 A               2
                        (       8.166 eV)
   100     100       --         0.304 au  fB            1.00     74 A               2
                        (       8.275 eV)
   101     101       --         0.321 au  fB            1.00     75 A               2
                        (       8.729 eV)
   102     102       --         0.344 au  fB            1.00     76 A               2
                        (       9.358 eV)
   103     103       --         0.346 au  fB            1.00     77 A               2
                        (       9.428 eV)
   104     104       --         0.362 au  fB            1.00     78 A               2
                        (       9.863 eV)
   105     105       --         0.375 au  fB            1.00     79 A               2
                        (      10.192 eV)
   106     106       --         0.377 au  fB            1.00     80 A               2
                        (      10.269 eV)
   107     107       --         0.394 au  fB            1.00     81 A               2
                        (      10.711 eV)
   108     108       --         0.399 au  fB            1.00     82 A               2
                        (      10.857 eV)
   109     109       --         0.416 au  fB            1.00     83 A               2
                        (      11.307 eV)
   110     110       --         0.431 au  fB            1.00     84 A               2
                        (      11.739 eV)
   111     111       --         0.436 au  fB            1.00     85 A               2
                        (      11.855 eV)
   112     112       --         0.453 au  fB            1.00     86 A               2
                        (      12.324 eV)
   113     113       --         0.481 au  fB            1.00     87 A               2
                        (      13.081 eV)
   114     114       --         0.501 au  fB            1.00     88 A               2
                        (      13.642 eV)
   115     115       --         0.512 au  fB            1.00     89 A               2
                        (      13.924 eV)
   116     116       --         0.528 au  fB            1.00     90 A               2
                        (      14.376 eV)
   117     117       --         0.565 au  fB            1.00     91 A               2
                        (      15.373 eV)
   118     118       --         0.580 au  fB            1.00     92 A               2
                        (      15.773 eV)
   119     119       --         0.606 au  fB            1.00     93 A               2
                        (      16.490 eV)
   120     120       --         0.611 au  fB            1.00     94 A               2
                        (      16.626 eV)
   121     121       --         0.642 au  fB            1.00     95 A               2
                        (      17.458 eV)
   122     122       --         0.669 au  fB            1.00     96 A               2
                        (      18.193 eV)
   123     123       --         0.706 au  fB            1.00     97 A               2
                        (      19.201 eV)
   124     124       --         0.707 au  fB            1.00     98 A               2
                        (      19.243 eV)
   125     125       --         0.747 au  fB            1.00     99 A               2
                        (      20.322 eV)
   126     126       --         0.748 au  fB            1.00    100 A               2
                        (      20.361 eV)
   127     127       --         0.791 au  fB            1.00    101 A               2
                        (      21.536 eV)
   128     128       --         0.806 au  fB            1.00    102 A               2
                        (      21.935 eV)
   129     129       --         0.842 au  fB            1.00    103 A               2
                        (      22.925 eV)
   130     130       --         0.855 au  fB            1.00    104 A               2
                        (      23.256 eV)
   131     131       --         0.870 au  fB            1.00    105 A               2
                        (      23.667 eV)
   132     132       --         0.905 au  fB            1.00    106 A               2
                        (      24.628 eV)
   133     133       --         0.908 au  fB            1.00    107 A               2
                        (      24.697 eV)
   134     134       --         0.943 au  fB            1.00    108 A               2
                        (      25.662 eV)
   135     135       --         0.956 au  fB            1.00    109 A               2
                        (      26.015 eV)
   136     136       --         0.960 au  fB            1.00    110 A               2
                        (      26.134 eV)
   137     137       --         0.989 au  fB            1.00    111 A               2
                        (      26.910 eV)
   138     138       --         1.003 au  fB            1.00    112 A               2
                        (      27.300 eV)
   139     139       --         1.032 au  fB            1.00    113 A               2
                        (      28.091 eV)
   140     140       --         1.046 au  fB            1.00    114 A               2
                        (      28.454 eV)
   141     141       --         1.056 au  fB            1.00    115 A               2
                        (      28.735 eV)
   142     142       --         1.071 au  fB            1.00    116 A               2
                        (      29.151 eV)
   143     143       --         1.100 au  fB            1.00    117 A               2
                        (      29.938 eV)
   144     144       --         1.110 au  fB            1.00    118 A               2
                        (      30.215 eV)
   145     145       --         1.124 au  fB            1.00    119 A               2
                        (      30.598 eV)
   146     146       --         1.139 au  fB            1.00    120 A               2
                        (      31.002 eV)
   147     147       --         1.155 au  fB            1.00    121 A               2
                        (      31.443 eV)
   148     148       --         1.193 au  fB            1.00    122 A               2
                        (      32.454 eV)
   149     149       --         1.210 au  fB            1.00    123 A               2
                        (      32.916 eV)
   150     150       --         1.231 au  fB            1.00    124 A               2
                        (      33.491 eV)
   151     151       --         1.234 au  fB            1.00    125 A               2
                        (      33.590 eV)
   152     152       --         1.241 au  fB            1.00    126 A               2
                        (      33.780 eV)
   153     153       --         1.249 au  fB            1.00    127 A               2
                        (      33.981 eV)
   154     154       --         1.266 au  fB            1.00    128 A               2
                        (      34.462 eV)
   155     155       --         1.269 au  fB            1.00    129 A               2
                        (      34.524 eV)
   156     156       --         1.291 au  fB            1.00    130 A               2
                        (      35.138 eV)
   157     157       --         1.338 au  fB            1.00    131 A               2
                        (      36.402 eV)
   158     158       --         1.339 au  fB            1.00    132 A               2
                        (      36.435 eV)
   159     159       --         1.361 au  fB            1.00    133 A               2
                        (      37.022 eV)
   160     160       --         1.389 au  fB            1.00    134 A               2
                        (      37.804 eV)
   161     161       --         1.420 au  fB            1.00    135 A               2
                        (      38.633 eV)
   162     162       --         1.445 au  fB            1.00    136 A               2
                        (      39.310 eV)
   163     163       --         1.492 au  fB            1.00    137 A               2
                        (      40.605 eV)
   164     164       --         1.506 au  fB            1.00    138 A               2
                        (      40.991 eV)
   165     165       --         1.544 au  fB            1.00    139 A               2
                        (      42.007 eV)
   166     166       --         1.553 au  fB            1.00    140 A               2
                        (      42.256 eV)
   167     167       --         1.584 au  fB            1.00    141 A               2
                        (      43.093 eV)
   168     168       --         1.612 au  fB            1.00    142 A               2
                        (      43.871 eV)
   169     169       --         1.637 au  fB            1.00    143 A               2
                        (      44.553 eV)
   170     170       --         1.667 au  fB            1.00    144 A               2
                        (      45.353 eV)
   171     171       --         1.703 au  fB            1.00    145 A               2
                        (      46.353 eV)
   172     172       --         1.750 au  fB            1.00    146 A               2
                        (      47.633 eV)
   173     173       --         1.780 au  fB            1.00    147 A               2
                        (      48.441 eV)
   174     174       --         1.801 au  fB            1.00    148 A               2
                        (      49.012 eV)
   175     175       --         1.825 au  fB            1.00    149 A               2
                        (      49.656 eV)
   176     176       --         1.849 au  fB            1.00    150 A               2
                        (      50.309 eV)
   177     177       --         1.893 au  fB            1.00    151 A               2
                        (      51.512 eV)
   178     178       --         1.894 au  fB            1.00    152 A               2
                        (      51.552 eV)
   179     179       --         1.935 au  fB            1.00    153 A               2
                        (      52.664 eV)
   180     180       --         1.944 au  fB            1.00    154 A               2
                        (      52.888 eV)
   181     181       --         1.957 au  fB            1.00    155 A               2
                        (      53.248 eV)
   182     182       --         1.993 au  fB            1.00    156 A               2
                        (      54.221 eV)
   183     183       --         2.055 au  fB            1.00    157 A               2
                        (      55.913 eV)
   184     184       --         2.097 au  fB            1.00    158 A               2
                        (      57.067 eV)
   185     185       --         2.114 au  fB            1.00    159 A               2
                        (      57.528 eV)
   186     186       --         2.138 au  fB            1.00    160 A               2
                        (      58.165 eV)
   187     187       --         2.157 au  fB            1.00    161 A               2
                        (      58.695 eV)
   188     188       --         2.172 au  fB            1.00    162 A               2
                        (      59.100 eV)
   189     189       --         2.216 au  fB            1.00    163 A               2
                        (      60.308 eV)
   190     190       --         2.265 au  fB            1.00    164 A               2
                        (      61.645 eV)
   191     191       --         2.275 au  fB            1.00    165 A               2
                        (      61.897 eV)
   192     192       --         2.341 au  fB            1.00    166 A               2
                        (      63.689 eV)
   193     193       --         2.369 au  fB            1.00    167 A               2
                        (      64.470 eV)
   194     194       --         2.407 au  fB            1.00    168 A               2
                        (      65.503 eV)
   195     195       --         2.420 au  fB            1.00    169 A               2
                        (      65.848 eV)
   196     196       --         2.438 au  fB            1.00    170 A               2
                        (      66.353 eV)
   197     197       --         2.487 au  fB            1.00    171 A               2
                        (      67.685 eV)
   198     198       --         2.558 au  fB            1.00    172 A               2
                        (      69.607 eV)
   199     199       --         2.590 au  fB            1.00    173 A               2
                        (      70.472 eV)
   200     200       --         2.611 au  fB            1.00    174 A               2
                        (      71.049 eV)
   201     201       --         2.634 au  fB            1.00    175 A               2
                        (      71.670 eV)
   202     202       --         2.704 au  fB            1.00    176 A               2
                        (      73.593 eV)
   203     203       --         2.711 au  fB            1.00    177 A               2
                        (      73.759 eV)
   204     204       --         2.753 au  fB            1.00    178 A               2
                        (      74.910 eV)
   205     205       --         2.777 au  fB            1.00    179 A               2
                        (      75.578 eV)
   206     206       --         2.794 au  fB            1.00    180 A               2
                        (      76.021 eV)
   207     207       --         2.828 au  fB            1.00    181 A               2
                        (      76.966 eV)
   208     208       --         2.852 au  fB            1.00    182 A               2
                        (      77.614 eV)
   209     209       --         2.871 au  fB            1.00    183 A               2
                        (      78.135 eV)
   210     210       --         2.888 au  fB            1.00    184 A               2
                        (      78.585 eV)
   211     211       --         2.919 au  fB            1.00    185 A               2
                        (      79.429 eV)
   212     212       --         2.947 au  fB            1.00    186 A               2
                        (      80.202 eV)
   213     213       --         2.959 au  fB            1.00    187 A               2
                        (      80.529 eV)
   214     214       --         2.989 au  fB            1.00    188 A               2
                        (      81.343 eV)
   215     215       --         3.004 au  fB            1.00    189 A               2
                        (      81.731 eV)
   216     216       --         3.038 au  fB            1.00    190 A               2
                        (      82.657 eV)
   217     217       --         3.058 au  fB            1.00    191 A               2
                        (      83.214 eV)
   218     218       --         3.071 au  fB            1.00    192 A               2
                        (      83.563 eV)
   219     219       --         3.114 au  fB            1.00    193 A               2
                        (      84.735 eV)
   220     220       --         3.148 au  fB            1.00    194 A               2
                        (      85.666 eV)
   221     221       --         3.202 au  fB            1.00    195 A               2
                        (      87.121 eV)
   222     222       --         3.246 au  fB            1.00    196 A               2
                        (      88.328 eV)
   223     223       --         3.273 au  fB            1.00    197 A               2
                        (      89.066 eV)
   224     224       --         3.283 au  fB            1.00    198 A               2
                        (      89.336 eV)
   225     225       --         3.308 au  fB            1.00    199 A               2
                        (      90.012 eV)
   226     226       --         3.365 au  fB            1.00    200 A               2
                        (      91.572 eV)
   227     227       --         3.379 au  fB            1.00    201 A               2
                        (      91.941 eV)
   228     228       --         3.395 au  fB            1.00    202 A               2
                        (      92.389 eV)
   229     229       --         3.425 au  fB            1.00    203 A               2
                        (      93.209 eV)
   230     230       --         3.443 au  fB            1.00    204 A               2
                        (      93.693 eV)
   231     231       --         3.449 au  fB            1.00    205 A               2
                        (      93.862 eV)
   232     232       --         3.476 au  fB            1.00    206 A               2
                        (      94.588 eV)
   233     233       --         3.487 au  fB            1.00    207 A               2
                        (      94.897 eV)
   234     234       --         3.524 au  fB            1.00    208 A               2
                        (      95.892 eV)
   235     235       --         3.530 au  fB            1.00    209 A               2
                        (      96.050 eV)
   236     236       --         3.581 au  fB            1.00    210 A               2
                        (      97.432 eV)
   237     237       --         3.594 au  fB            1.00    211 A               2
                        (      97.796 eV)
   238     238       --         3.610 au  fB            1.00    212 A               2
                        (      98.239 eV)
   239     239       --         3.618 au  fB            1.00    213 A               2
                        (      98.458 eV)
   240     240       --         3.657 au  fB            1.00    214 A               2
                        (      99.498 eV)
   241     241       --         3.675 au  fB            1.00    215 A               2
                        (      99.996 eV)
   242     242       --         3.688 au  fB            1.00    216 A               2
                        (     100.364 eV)
   243     243       --         3.724 au  fB            1.00    217 A               2
                        (     101.330 eV)
   244     244       --         3.782 au  fB            1.00    218 A               2
                        (     102.906 eV)
   245     245       --         3.817 au  fB            1.00    219 A               2
                        (     103.874 eV)
   246     246       --         3.865 au  fB            1.00    220 A               2
                        (     105.165 eV)
   247     247       --         3.888 au  fB            1.00    221 A               2
                        (     105.792 eV)
   248     248       --         3.931 au  fB            1.00    222 A               2
                        (     106.976 eV)
   249     249       --         3.971 au  fB            1.00    223 A               2
                        (     108.044 eV)
   250     250       --         3.995 au  fB            1.00    224 A               2
                        (     108.696 eV)
   251     251       --         4.026 au  fB            1.00    225 A               2
                        (     109.541 eV)
   252     252       --         4.065 au  fB            1.00    226 A               2
                        (     110.619 eV)
   253     253       --         4.085 au  fB            1.00    227 A               2
                        (     111.165 eV)
   254     254       --         4.117 au  fB            1.00    228 A               2
                        (     112.034 eV)
   255     255       --         4.172 au  fB            1.00    229 A               2
                        (     113.523 eV)
   256     256       --         4.232 au  fB            1.00    230 A               2
                        (     115.156 eV)
   257     257       --         4.254 au  fB            1.00    231 A               2
                        (     115.760 eV)
   258     258       --         4.316 au  fB            1.00    232 A               2
                        (     117.433 eV)
   259     259       --         4.365 au  fB            1.00    233 A               2
                        (     118.769 eV)
   260     260       --         4.382 au  fB            1.00    234 A               2
                        (     119.227 eV)
   261     261       --         4.421 au  fB            1.00    235 A               2
                        (     120.295 eV)
   262     262       --         4.451 au  fB            1.00    236 A               2
                        (     121.115 eV)
   263     263       --         4.483 au  fB            1.00    237 A               2
                        (     121.987 eV)
   264     264       --         4.577 au  fB            1.00    238 A               2
                        (     124.546 eV)
   265     265       --         4.610 au  fB            1.00    239 A               2
                        (     125.440 eV)
   266     266       --         4.674 au  fB            1.00    240 A               2
                        (     127.187 eV)
   267     267       --         4.696 au  fB            1.00    241 A               2
                        (     127.790 eV)
   268     268       --         4.713 au  fB            1.00    242 A               2
                        (     128.242 eV)
   269     269       --         4.772 au  fB            1.00    243 A               2
                        (     129.859 eV)
   270     270       --         4.792 au  fB            1.00    244 A               2
                        (     130.391 eV)
   271     271       --         4.835 au  fB            1.00    245 A               2
                        (     131.573 eV)
   272     272       --         4.887 au  fB            1.00    246 A               2
                        (     132.988 eV)
   273     273       --         4.923 au  fB            1.00    247 A               2
                        (     133.971 eV)
   274     274       --         4.984 au  fB            1.00    248 A               2
                        (     135.619 eV)
   275     275       --         5.011 au  fB            1.00    249 A               2
                        (     136.352 eV)
   276     276       --         5.077 au  fB            1.00    250 A               2
                        (     138.156 eV)
   277     277       --         5.162 au  fB            1.00    251 A               2
                        (     140.457 eV)
   278     278       --         5.204 au  fB            1.00    252 A               2
                        (     141.618 eV)
   279     279       --         5.210 au  fB            1.00    253 A               2
                        (     141.784 eV)
   280     280       --         5.303 au  fB            1.00    254 A               2
                        (     144.309 eV)
   281     281       --         5.341 au  fB            1.00    255 A               2
                        (     145.327 eV)
   282     282       --         5.369 au  fB            1.00    256 A               2
                        (     146.099 eV)
   283     283       --         5.452 au  fB            1.00    257 A               2
                        (     148.363 eV)
   284     284       --         5.536 au  fB            1.00    258 A               2
                        (     150.643 eV)
   285     285       --         5.654 au  fB            1.00    259 A               2
                        (     153.841 eV)
   286     286       --         5.743 au  fB            1.00    260 A               2
                        (     156.270 eV)
   287     287       --         5.785 au  fB            1.00    261 A               2
                        (     157.426 eV)
   288     288       --         5.878 au  fB            1.00    262 A               2
                        (     159.948 eV)
   289     289       --         6.013 au  fB            1.00    263 A               2
                        (     163.624 eV)
   290     290       --         6.156 au  fB            1.00    264 A               2
                        (     167.513 eV)
   291     291       --         6.180 au  fB            1.00    265 A               2
                        (     168.179 eV)
   292     292       --         6.268 au  fB            1.00    266 A               2
                        (     170.566 eV)
   293     293       --         6.347 au  fB            1.00    267 A               2
                        (     172.708 eV)
   294     294       --         6.407 au  fB            1.00    268 A               2
                        (     174.343 eV)
   295     295       --         6.425 au  fB            1.00    269 A               2
                        (     174.841 eV)
   296     296       --         6.495 au  fB            1.00    270 A               2
                        (     176.739 eV)
   297     297       --         6.520 au  fB            1.00    271 A               2
                        (     177.423 eV)
   298     298       --         6.562 au  fB            1.00    272 A               2
                        (     178.554 eV)
   299     299       --         6.597 au  fB            1.00    273 A               2
                        (     179.509 eV)
   300     300       --         6.633 au  fB            1.00    274 A               2
                        (     180.487 eV)
   301     301       --         6.706 au  fB            1.00    275 A               2
                        (     182.466 eV)
   302     302       --         6.828 au  fB            1.00    276 A               2
                        (     185.790 eV)
   303     303       --         6.907 au  fB            1.00    277 A               2
                        (     187.947 eV)
   304     304       --         6.931 au  fB            1.00    278 A               2
                        (     188.602 eV)
   305     305       --         6.950 au  fB            1.00    279 A               2
                        (     189.116 eV)
   306     306       --         7.118 au  fB            1.00    280 A               2
                        (     193.694 eV)
   307     307       --         7.291 au  fB            1.00    281 A               2
                        (     198.404 eV)
   308     308       --         7.408 au  fB            1.00    282 A               2
                        (     201.575 eV)
   309     309       --         7.495 au  fB            1.00    283 A               2
                        (     203.942 eV)
   310     310       --         7.516 au  fB            1.00    284 A               2
                        (     204.515 eV)
   311     311       --         7.612 au  fB            1.00    285 A               2
                        (     207.146 eV)
   312     312       --         7.792 au  fB            1.00    286 A               2
                        (     212.036 eV)
   313     313       --         8.124 au  fB            1.00    287 A               2
                        (     221.058 eV)
   314     314       --         8.702 au  fB            1.00    288 A               2
                        (     236.801 eV)
   315     315       --         8.925 au  fB            1.00    289 A               2
                        (     242.858 eV)
   316     316       --         8.991 au  fB            1.00    290 A               2
                        (     244.661 eV)
   317     317       --         9.077 au  fB            1.00    291 A               2
                        (     246.996 eV)
   318     318       --         9.123 au  fB            1.00    292 A               2
                        (     248.263 eV)
   319     319       --         9.362 au  fB            1.00    293 A               2
                        (     254.744 eV)
   320     320       --         9.436 au  fB            1.00    294 A               2
                        (     256.774 eV)
   321     321       --         9.753 au  fB            1.00    295 A               2
                        (     265.393 eV)
   322     322       --        10.593 au  fB            1.00    296 A               2
                        (     288.250 eV)
   323     323       --        14.602 au  fB            1.00    297 A               2
                        (     397.335 eV)
   324     324       --        15.706 au  fB            1.00    298 A               2
                        (     427.372 eV)
   325     325       --        16.026 au  fB            1.00    299 A               2
                        (     436.090 eV)
   326     326       --        20.701 au  fB            1.00    300 A               2
                        (     563.296 eV)
   327     327       --        20.807 au  fB            1.00    301 A               2
                        (     566.178 eV)
   328     328       --        21.109 au  fB            1.00    302 A               2
                        (     574.418 eV)
   329     329       --        21.191 au  fB            1.00    303 A               2
                        (     576.648 eV)
   330     330       --        21.332 au  fB            1.00    304 A               2
                        (     580.463 eV)
   331     331       --        55.308 au  fB            1.00    305 A               2
                        (    1505.011 eV)
   332     332       --        57.700 au  fB            1.00    306 A               2
                        (    1570.085 eV)
   333     333       --        59.571 au  fB            1.00    307 A               2
                        (    1621.022 eV)
   334     334       --        71.357 au  fB            1.00    308 A               2
                        (    1941.714 eV)
   335     335       --        72.129 au  fB            1.00    309 A               2
                        (    1962.726 eV)
   336     336       --        96.033 au  fB            1.00    310 A               2
                        (    2613.195 eV)
   337     337       --        96.175 au  fB            1.00    311 A               2
                        (    2617.058 eV)
   338     338       --        96.896 au  fB            1.00    312 A               2
                        (    2636.666 eV)
   339     339       --       127.977 au  fB            1.00    313 A               2
                        (    3482.423 eV)
   340     340       --       129.018 au  fB            1.00    314 A               2
                        (    3510.767 eV)
   341     341       --       619.072 au  fB            1.00    315 A               2
                        (   16845.797 eV)



 ================================
 (Slater-type)  F U N C T I O N S  ***  (Basis and Fit)  ***
 ================================
  

 Atom Type    1  (F)
 ==============

 Valence Basis Sets:  10
 -----------------------
   1 S   10.880000
   1 S    7.700000
   2 S    3.240000
   2 S    1.940000
   2 S    0.740000
   2 P    4.540000
   2 P    2.300000
   2 P    1.240000
   3 D    2.000000
   4 F    3.000000

 Atom Type    2  (C)
 ==============

 Valence Basis Sets:  10
 -----------------------
   1 S    7.680000
   1 S    5.000000
   2 S    1.280000
   2 S    2.100000
   2 S    4.600000
   2 P    0.820000
   2 P    1.480000
   2 P    2.940000
   3 D    2.200000
   4 F    3.300000

 Atom Type    3  (H)
 ==============

 Valence Basis Sets:   5
 -----------------------
   1 S    0.690000
   1 S    0.920000
   1 S    1.580000
   2 P    1.250000
   3 D    2.500000

 Atom Type    4  (Br)
 ==============

 Valence Basis Sets:  20
 -----------------------
   1 S   41.300000
   1 S   32.800000
   2 S   13.900000
   2 P   19.450000
   2 P   13.100000
   3 S    7.200000
   3 S    4.950000
   3 P    7.900000
   3 P    5.050000
   3 D   10.900000
   3 D    6.050000
   3 D    3.500000
   4 S    4.500000
   4 S    2.800000
   4 S    1.800000
   4 P    3.250000
   4 P    1.950000
   4 P    1.200000
   4 D    1.800000
   4 F    1.800000

 Atom Type    5  (N)
 ==============

 Valence Basis Sets:  10
 -----------------------
   1 S    8.740000
   1 S    5.900000
   2 S    5.150000
   2 S    2.500000
   2 S    1.500000
   2 P    3.680000
   2 P    1.880000
   2 P    1.000000
   3 D    2.200000
   4 F    3.300000

 Atom Type    6  (O)
 ==============

 Valence Basis Sets:  10
 -----------------------
   1 S    9.800000
   1 S    6.800000
   2 S    7.580000
   2 S    2.880000
   2 S    1.720000
   2 P    4.080000
   2 P    2.080000
   2 P    1.120000
   3 D    2.000000
   4 F    3.000000


 BAS: List of all Elementary Cartesian Basis Functions
 =====================================================

 The numbering in the list below (to the right of the function characteristics) is referred
 to in print-outs of MO eigenvectors and Mulliken populations in the BAS representation
 (as contrasted to the SFO representation).

 Notes:
 1. The functions are characterized by a polynomial prefactor (powers of x,y,z and r) and
    an exponential decay factor alpha.
 2. Since the basis sets are specific for an atom TYPE, the individual functions occur on
    all atoms of that type.
 3. The word 'Core' in the left margin signals that it is a Core Function (CF) : not a
    degree of freedom in the valence set, but only used to ensure orthogonalization of
    the other valence basis functions on the frozen Core Orbitals.


 (power of) X  Y  Z  R     Alpha  on Atom
            ==========     =====     ==========

 F                                    1
                                  ---------------------------------------------------------------------------
            0  0  0  0    10.880      1
            0  0  0  0     7.700      2
            0  0  0  1     3.240      3
            0  0  0  1     1.940      4
            0  0  0  1     0.740      5
            1  0  0  0     4.540      6
            0  1  0  0     4.540      7
            0  0  1  0     4.540      8
            1  0  0  0     2.300      9
            0  1  0  0     2.300     10
            0  0  1  0     2.300     11
            1  0  0  0     1.240     12
            0  1  0  0     1.240     13
            0  0  1  0     1.240     14
            2  0  0  0     2.000     15
            1  1  0  0     2.000     16
            1  0  1  0     2.000     17
            0  2  0  0     2.000     18
            0  1  1  0     2.000     19
            0  0  2  0     2.000     20
            3  0  0  0     3.000     21
            2  1  0  0     3.000     22
            2  0  1  0     3.000     23
            1  2  0  0     3.000     24
            1  1  1  0     3.000     25
            1  0  2  0     3.000     26
            0  3  0  0     3.000     27
            0  2  1  0     3.000     28
            0  1  2  0     3.000     29
            0  0  3  0     3.000     30

 C                                    2    3    4
                                  ---------------------------------------------------------------------------
            0  0  0  0     7.680     31   61   91
            0  0  0  0     5.000     32   62   92
            0  0  0  1     1.280     33   63   93
            0  0  0  1     2.100     34   64   94
            0  0  0  1     4.600     35   65   95
            1  0  0  0     0.820     36   66   96
            0  1  0  0     0.820     37   67   97
            0  0  1  0     0.820     38   68   98
            1  0  0  0     1.480     39   69   99
            0  1  0  0     1.480     40   70  100
            0  0  1  0     1.480     41   71  101
            1  0  0  0     2.940     42   72  102
            0  1  0  0     2.940     43   73  103
            0  0  1  0     2.940     44   74  104
            2  0  0  0     2.200     45   75  105
            1  1  0  0     2.200     46   76  106
            1  0  1  0     2.200     47   77  107
            0  2  0  0     2.200     48   78  108
            0  1  1  0     2.200     49   79  109
            0  0  2  0     2.200     50   80  110
            3  0  0  0     3.300     51   81  111
            2  1  0  0     3.300     52   82  112
            2  0  1  0     3.300     53   83  113
            1  2  0  0     3.300     54   84  114
            1  1  1  0     3.300     55   85  115
            1  0  2  0     3.300     56   86  116
            0  3  0  0     3.300     57   87  117
            0  2  1  0     3.300     58   88  118
            0  1  2  0     3.300     59   89  119
            0  0  3  0     3.300     60   90  120

 H                                    5    6    7    8    9   10   11
                                  ---------------------------------------------------------------------------
            0  0  0  0     0.690    121  133  145  157  169  181  193
            0  0  0  0     0.920    122  134  146  158  170  182  194
            0  0  0  0     1.580    123  135  147  159  171  183  195
            1  0  0  0     1.250    124  136  148  160  172  184  196
            0  1  0  0     1.250    125  137  149  161  173  185  197
            0  0  1  0     1.250    126  138  150  162  174  186  198
            2  0  0  0     2.500    127  139  151  163  175  187  199
            1  1  0  0     2.500    128  140  152  164  176  188  200
            1  0  1  0     2.500    129  141  153  165  177  189  201
            0  2  0  0     2.500    130  142  154  166  178  190  202
            0  1  1  0     2.500    131  143  155  167  179  191  203
            0  0  2  0     2.500    132  144  156  168  180  192  204

 Br                                  12
                                  ---------------------------------------------------------------------------
            0  0  0  0    41.300    205
            0  0  0  0    32.800    206
            0  0  0  1    13.900    207
            1  0  0  0    19.450    208
            0  1  0  0    19.450    209
            0  0  1  0    19.450    210
            1  0  0  0    13.100    211
            0  1  0  0    13.100    212
            0  0  1  0    13.100    213
            0  0  0  2     7.200    214
            0  0  0  2     4.950    215
            1  0  0  1     7.900    216
            0  1  0  1     7.900    217
            0  0  1  1     7.900    218
            1  0  0  1     5.050    219
            0  1  0  1     5.050    220
            0  0  1  1     5.050    221
            2  0  0  0    10.900    222
            1  1  0  0    10.900    223
            1  0  1  0    10.900    224
            0  2  0  0    10.900    225
            0  1  1  0    10.900    226
            0  0  2  0    10.900    227
            2  0  0  0     6.050    228
            1  1  0  0     6.050    229
            1  0  1  0     6.050    230
            0  2  0  0     6.050    231
            0  1  1  0     6.050    232
            0  0  2  0     6.050    233
            2  0  0  0     3.500    234
            1  1  0  0     3.500    235
            1  0  1  0     3.500    236
            0  2  0  0     3.500    237
            0  1  1  0     3.500    238
            0  0  2  0     3.500    239
            0  0  0  3     4.500    240
            0  0  0  3     2.800    241
            0  0  0  3     1.800    242
            1  0  0  2     3.250    243
            0  1  0  2     3.250    244
            0  0  1  2     3.250    245
            1  0  0  2     1.950    246
            0  1  0  2     1.950    247
            0  0  1  2     1.950    248
            1  0  0  2     1.200    249
            0  1  0  2     1.200    250
            0  0  1  2     1.200    251
            2  0  0  1     1.800    252
            1  1  0  1     1.800    253
            1  0  1  1     1.800    254
            0  2  0  1     1.800    255
            0  1  1  1     1.800    256
            0  0  2  1     1.800    257
            3  0  0  0     1.800    258
            2  1  0  0     1.800    259
            2  0  1  0     1.800    260
            1  2  0  0     1.800    261
            1  1  1  0     1.800    262
            1  0  2  0     1.800    263
            0  3  0  0     1.800    264
            0  2  1  0     1.800    265
            0  1  2  0     1.800    266
            0  0  3  0     1.800    267

 N                                   13   14
                                  ---------------------------------------------------------------------------
            0  0  0  0     8.740    268  298
            0  0  0  0     5.900    269  299
            0  0  0  1     5.150    270  300
            0  0  0  1     2.500    271  301
            0  0  0  1     1.500    272  302
            1  0  0  0     3.680    273  303
            0  1  0  0     3.680    274  304
            0  0  1  0     3.680    275  305
            1  0  0  0     1.880    276  306
            0  1  0  0     1.880    277  307
            0  0  1  0     1.880    278  308
            1  0  0  0     1.000    279  309
            0  1  0  0     1.000    280  310
            0  0  1  0     1.000    281  311
            2  0  0  0     2.200    282  312
            1  1  0  0     2.200    283  313
            1  0  1  0     2.200    284  314
            0  2  0  0     2.200    285  315
            0  1  1  0     2.200    286  316
            0  0  2  0     2.200    287  317
            3  0  0  0     3.300    288  318
            2  1  0  0     3.300    289  319
            2  0  1  0     3.300    290  320
            1  2  0  0     3.300    291  321
            1  1  1  0     3.300    292  322
            1  0  2  0     3.300    293  323
            0  3  0  0     3.300    294  324
            0  2  1  0     3.300    295  325
            0  1  2  0     3.300    296  326
            0  0  3  0     3.300    297  327

 O                                   15   16
                                  ---------------------------------------------------------------------------
            0  0  0  0     9.800    328  358
            0  0  0  0     6.800    329  359
            0  0  0  1     7.580    330  360
            0  0  0  1     2.880    331  361
            0  0  0  1     1.720    332  362
            1  0  0  0     4.080    333  363
            0  1  0  0     4.080    334  364
            0  0  1  0     4.080    335  365
            1  0  0  0     2.080    336  366
            0  1  0  0     2.080    337  367
            0  0  1  0     2.080    338  368
            1  0  0  0     1.120    339  369
            0  1  0  0     1.120    340  370
            0  0  1  0     1.120    341  371
            2  0  0  0     2.000    342  372
            1  1  0  0     2.000    343  373
            1  0  1  0     2.000    344  374
            0  2  0  0     2.000    345  375
            0  1  1  0     2.000    346  376
            0  0  2  0     2.000    347  377
            3  0  0  0     3.000    348  378
            2  1  0  0     3.000    349  379
            2  0  1  0     3.000    350  380
            1  2  0  0     3.000    351  381
            1  1  1  0     3.000    352  382
            1  0  2  0     3.000    353  383
            0  3  0  0     3.000    354  384
            0  2  1  0     3.000    355  385
            0  1  2  0     3.000    356  386
            0  0  3  0     3.000    357  387

 Total number of charge fitting functions (nprimf)      1193
 Total number of Cartesian basis functions (naos)        387
 Total number of Cartesian core functions  (ncos)          0

 ***************************************************************************************************



                                              ***********************
                                              *  T E C H N I C A L  *
                                              ***********************
  



 =============================================================
 P A R A L L E L I Z A T I O N  and  V E C T O R I Z A T I O N
 =============================================================
  
 Nr of parallel processes:                                1
 Maximum vector length in NumInt loops:                 128



 =====================
 S C F   U P D A T E S
 =====================
  
 Max. nr. of cycles:                               200
 Convergence criterion:                              0.0000010000
   secondary criterion:                              0.0010000000

 Mix parameter (when DIIS does not apply):           0.2000000000
 Mixed ADIIS+SDIIS will be used                  
    Max number of expansion vectors:                10
    Pure ADIIS when Max([F,P]) is above              0.1000000000
    Pure SDIIS when Max([F,P]) is below              0.0010000000
 Automatic ElectronSmearing (in case of problematic SCF convergence) disabled



 =================
 P R E C I S I O N  ***  (General: NumInt, NeglectFunctionTails, ...)  ***
 =================
  

 NumInt:           Target precision:                 4.0000000000
 -------           Initial precision:                4.0000000000
                   Min. precision (optimization):    4.0000000000

 Neglect Functions:          Basis functions:        0.1000000000E-05
 ------------------          Fit functions:          0.1000000000E-05



 ===========================
 L I N E A R   S C A L I N G
 ===========================
  

 Cut-off radii density fit:                        0.1000000000E-07
 Overlap cut-off criterion AO matrix elements:     0.1000000000E-05
 Cut-offs for Coulomb potential and fitted density:0.1000000000E-07
 Cut-off criterion for Coulomb multipole terms:    0.1000000000E-07
 Progressive Convergence parameter:                 0.000000000    
 ***************************************************************************************************



                                            ***************************
                                            *  C O M P U T A T I O N  *
                                            ***************************
  

 Number of elements of the density matrix on this node (used, total):     75078     75078



 ===========================================
 Numerical Integration : Fuzzy Cells (Becke)
 ===========================================
  
 Becke grid quality: NORMAL         
  
 Lebedev angular grid order:             min:  11 max:  23
 Nr. of radial points:                   min:  46 max:  77

 Total nr. of points:     108189
 Nr. of blocks:              846
 Block length:               128
 Nr. of dummy points:         99


 Test of Precision of the Numerical Integration Grid
 ===================================================

 Integral of the Total Core Density:                   0.00000000000000



 ========================
 Density Fitting (zlmFit)
 ========================
  
 ZlmFit Fit Quality: NORMAL         
  
 Max L-expansion:                        min:   6 max:   7
 Nr. of radial interpolation points:     min:  39 max:  72



 =====
 S C F  ***  ScaSCF  ***
 =====
  
 Initial density matrix is calculated as sum of fragments

 CYCLE    1
 SCF Error: norm([F,P])=      0.826990224312, max([F,P])=      0.281784950932
 orbitals (Q,E):
 ---------------
 A :41...60          ( 2.00    -0.1438)  ( 2.00    -0.1404)  ( 2.00    -0.1334)  ( 2.00    -0.1076)
[...]
                                    3.90%    36 A             -10.682  2.00     2 fB
                                    3.55%    38 A              -9.606  2.00     2 fB
                                    2.45%    62 A               4.506  0.00     2 fB
                                    2.28%    61 A               4.347  0.00     2 fB
                                    2.26%    53 A               1.479  0.00     2 fB
                                    2.26%    41 A              -7.774  2.00     2 fB
                                    2.10%    52 A               1.148  0.00     2 fB
                                    2.08%    54 A               2.096  0.00     2 fB
                                    1.56%    48 A              -0.679  0.00     2 fB
                                    1.12%    35 A             -11.030  2.00     2 fB
                                    1.06%    65 A               5.253  0.00     2 fB
                                    1.06%    49 A               0.066  0.00     2 fB
       0.05960       336 A         30.01%    43 A              -7.067  2.00     2 fB
                                   11.92%    64 A               5.001  0.00     2 fB
                                   11.58%    51 A               0.605  0.00     2 fB
                                    5.33%    63 A               4.777  0.00     2 fB
                                    4.07%    38 A              -9.606  2.00     2 fB
                                    4.01%    42 A              -7.269  2.00     2 fB
                                    3.18%    36 A             -10.682  2.00     2 fB
                                    2.58%    62 A               4.506  0.00     2 fB
                                    2.51%    53 A               1.479  0.00     2 fB
                                    2.45%    52 A               1.148  0.00     2 fB
                                    2.19%    61 A               4.347  0.00     2 fB
                                    2.18%    54 A               2.096  0.00     2 fB
                                    1.93%    41 A              -7.774  2.00     2 fB
                                    1.67%    35 A             -11.030  2.00     2 fB
                                    1.65%    48 A              -0.679  0.00     2 fB
                                    1.51%    34 A             -11.725  2.00     2 fB
                                    1.10%    49 A               0.066  0.00     2 fB
                                    1.07%    65 A               5.253  0.00     2 fB
      -0.05713         7 A         21.56%    44 A              -7.003  2.00     2 fB
                                    8.64%    64 A               5.001  0.00     2 fB
                                    8.50%    52 A               1.148  0.00     2 fB
                                    7.21%    38 A              -9.606  2.00     2 fB
                                    6.70%    59 A               3.547  0.00     2 fB
                                    6.36%    45 A              -6.387  2.00     2 fB
                                    6.05%    36 A             -10.682  2.00     2 fB
                                    5.57%    63 A               4.777  0.00     2 fB
                                    4.32%    54 A               2.096  0.00     2 fB
                                    2.45%    43 A              -7.067  2.00     2 fB
                                    2.39%     9 A              22.094  0.00     1 fA
                                    1.89%    37 A              -9.750  2.00     2 fB
                                    1.67%     8 A              22.094  0.00     1 fA
                                    1.59%    58 A               3.340  0.00     2 fB
                                    1.31%    51 A               0.605  0.00     2 fB
                                    1.07%     7 A              22.094  0.00     1 fA
                                    1.03%    66 A               5.715  0.00     2 fB
       0.05713       335 A         20.45%    44 A              -7.003  2.00     2 fB
                                    9.59%    64 A               5.001  0.00     2 fB
                                    8.62%    52 A               1.148  0.00     2 fB
                                    7.60%    59 A               3.547  0.00     2 fB
                                    6.54%    38 A              -9.606  2.00     2 fB
                                    6.15%    45 A              -6.387  2.00     2 fB
                                    6.13%    36 A             -10.682  2.00     2 fB
                                    5.95%    63 A               4.777  0.00     2 fB
                                    4.51%    54 A               2.096  0.00     2 fB
                                    2.24%    43 A              -7.067  2.00     2 fB
                                    2.09%    37 A              -9.750  2.00     2 fB
                                    1.63%    58 A               3.340  0.00     2 fB
                                    1.57%    51 A               0.605  0.00     2 fB
                                    1.23%     9 A              22.094  0.00     1 fA
                                    1.20%     8 A              22.094  0.00     1 fA
                                    1.12%    40 A              -8.165  2.00     2 fB
      -0.05637         8 A         21.90%    39 A              -8.644  2.00     2 fB
                                   12.91%     8 A              22.094  0.00     1 fA
                                    9.17%    38 A              -9.606  2.00     2 fB
                                    5.83%    63 A               4.777  0.00     2 fB
                                    5.73%    48 A              -0.679  0.00     2 fB
                                    5.14%    44 A              -7.003  2.00     2 fB
                                    4.17%    60 A               4.141  0.00     2 fB
                                    2.64%    56 A               2.759  0.00     2 fB
                                    2.45%    62 A               4.506  0.00     2 fB
                                    2.26%    51 A               0.605  0.00     2 fB
                                    1.69%     4 A               2.943  2.00     1 fA
                                    1.54%    55 A               2.275  0.00     2 fB
                                    1.27%     6 A               7.775  0.00     1 fA
                                    1.26%    37 A              -9.750  2.00     2 fB
                                    1.22%     3 A               2.943  2.00     1 fA
                                    1.18%    68 A               6.174  0.00     2 fB
                                    1.17%    45 A              -6.387  2.00     2 fB
                                    1.16%    41 A              -7.774  2.00     2 fB
                                    1.14%    35 A             -11.030  2.00     2 fB
                                    1.09%    49 A               0.066  0.00     2 fB
                                    1.08%    66 A               5.715  0.00     2 fB
                                    1.03%    42 A              -7.269  2.00     2 fB
       0.05637       334 A         24.07%    39 A              -8.644  2.00     2 fB
                                    9.00%    38 A              -9.606  2.00     2 fB
                                    7.83%     8 A              22.094  0.00     1 fA
                                    6.19%    48 A              -0.679  0.00     2 fB
                                    6.11%    63 A               4.777  0.00     2 fB
                                    5.00%    44 A              -7.003  2.00     2 fB
                                    4.26%    60 A               4.141  0.00     2 fB
                                    3.20%    56 A               2.759  0.00     2 fB
                                    2.11%    62 A               4.506  0.00     2 fB
                                    2.07%    51 A               0.605  0.00     2 fB
                                    1.83%    66 A               5.715  0.00     2 fB
                                    1.76%    14 A              42.594  0.00     1 fA
                                    1.63%    35 A             -11.030  2.00     2 fB
                                    1.44%    55 A               2.275  0.00     2 fB
                                    1.37%     4 A               2.943  2.00     1 fA
                                    1.37%    52 A               1.148  0.00     2 fB
                                    1.32%    68 A               6.174  0.00     2 fB
                                    1.19%    41 A              -7.774  2.00     2 fB
                                    1.08%    49 A               0.066  0.00     2 fB
                                    1.06%    45 A              -6.387  2.00     2 fB
                                    1.02%     3 A               2.943  2.00     1 fA
                                    1.01%    58 A               3.340  0.00     2 fB
 Mulliken charges used for AMS results%charges...


    =====================
     CALCULATION RESULTS
    =====================

Energy (hartree)            -0.07521312


--------------
Atomic charges
--------------
  Index   Atom    Charge
      1      F   -0.6259
      2      C    0.4541
      3      H   -0.1318
      4     Br   -0.5030
      5      C    0.3770
      6      H   -0.1238
      7      N    0.6298
      8      O   -0.4498
      9      O   -0.4273
     10      C    0.7051
     11      H   -0.2184
     12      H   -0.1945
     13      H   -0.2830
     14      N   -0.0665
     15      H   -0.0828
     16      H   -0.0592


Dipole moment vector    (Debye):    -4.38496910    3.40101127   -2.42070624
              magnitude (Debye):     6.05430841


-----------------------
Molecular orbitals info
-----------------------
n orbitals:              341
n spin:                    1

Note: only printing virtual orbitals with
      energy smaller than HOMO + 100. eV

HOMO (eV):              -1.8144
LUMO (eV):               0.9120
HOMO-LUMO gap (eV):      2.7264

   Index   Energy (eV)    Occupation
     218       97.9643         0.000       
     217       97.1308         0.000       
     216       96.7795         0.000       
     215       95.8983         0.000       
     214       95.0957         0.000       
     213       94.0504         0.000       
     212       93.5126         0.000       
     211       93.1402         0.000       
     210       92.4547         0.000       
     209       90.6143         0.000       
     208       89.4547         0.000       
     207       88.6015         0.000       
     206       87.7694         0.000       
     205       87.5160         0.000       
     204       87.2228         0.000       
     203       86.1137         0.000       
     202       85.8448         0.000       
     201       85.4587         0.000       
     200       84.7258         0.000       
     199       83.7018         0.000       
     198       83.1716         0.000       
     197       82.5135         0.000       
     196       81.8912         0.000       
     195       81.5661         0.000       
     194       80.7808         0.000       
     193       79.5598         0.000       
     192       79.1788         0.000       
     191       78.8944         0.000       
     190       77.8842         0.000       
     189       76.6774         0.000       
     188       75.8309         0.000       
     187       75.0337         0.000       
     186       73.0925         0.000       
     185       71.7433         0.000       
     184       71.4907         0.000       
     183       71.1742         0.000       
     182       70.1866         0.000       
     181       69.3813         0.000       
     180       68.6893         0.000       
     179       67.4280         0.000       
     178       66.5215         0.000       
     177       65.6001         0.000       
     176       63.9682         0.000       
     175       63.6555         0.000       
     174       63.0635         0.000       
     173       62.3777         0.000       
     172       61.7705         0.000       
     171       61.1872         0.000       
     170       60.9954         0.000       
     169       59.9906         0.000       
     168       58.9685         0.000       
     167       58.3391         0.000       
     166       57.6010         0.000       
     165       56.2660         0.000       
     164       55.7970         0.000       
     163       55.4397         0.000       
     162       54.2109         0.000       
     161       53.6479         0.000       
     160       53.4699         0.000       
     159       52.3418         0.000       
     158       51.5594         0.000       
     157       51.4025         0.000       
     156       50.1499         0.000       
     155       49.5969         0.000       
     154       49.0024         0.000       
     153       48.2614         0.000       
     152       47.0827         0.000       
     151       46.3329         0.000       
     150       46.0726         0.000       
     149       45.3879         0.000       
     148       44.5947         0.000       
     147       44.1027         0.000       
     146       43.9316         0.000       
     145       43.1713         0.000       
     144       42.4440         0.000       
     143       42.1155         0.000       
     142       41.4781         0.000       
     141       41.2859         0.000       
     140       40.8167         0.000       
     139       40.0795         0.000       
     138       39.6695         0.000       
     137       39.0121         0.000       
     136       38.4747         0.000       
     135       38.0774         0.000       
     134       37.6724         0.000       
     133       37.4391         0.000       
     132       37.1521         0.000       
     131       36.7028         0.000       
     130       36.4578         0.000       
     129       35.6695         0.000       
     128       35.3788         0.000       
     127       34.7477         0.000       
     126       34.5553         0.000       
     125       33.7872         0.000       
     124       32.9294         0.000       
     123       32.5917         0.000       
     122       32.3751         0.000       
     121       32.2583         0.000       
     120       31.6172         0.000       
     119       30.6879         0.000       
     118       30.4712         0.000       
     117       30.4427         0.000       
     116       30.1946         0.000       
     115       29.1194         0.000       
     114       29.0109         0.000       
     113       28.5337         0.000       
     112       27.7172         0.000       
     111       27.3306         0.000       
     110       27.1991         0.000       
     109       26.3102         0.000       
     108       25.8255         0.000       
     107       25.0125         0.000       
     106       24.6608         0.000       
     105       24.3708         0.000       
     104       23.7485         0.000       
     103       23.1717         0.000       
     102       22.4847         0.000       
     101       21.9769         0.000       
     100       20.9638         0.000       
      99       20.4088         0.000       
      98       20.0939         0.000       
      97       20.0616         0.000       
      96       18.7115         0.000       
      95       18.1390         0.000       
      94       17.7421         0.000       
      93       17.5683         0.000       
      92       17.1393         0.000       
      91       16.4361         0.000       
      90       15.9078         0.000       
      89       15.7657         0.000       
      88       15.6060         0.000       
      87       15.4420         0.000       
      86       14.5715         0.000       
      85       14.4080         0.000       
      84       14.2283         0.000       
      83       14.0235         0.000       
      82       13.5943         0.000       
      81       13.4589         0.000       
      80       12.8283         0.000       
      79       12.3364         0.000       
      78       12.1213         0.000       
      77       12.0277         0.000       
      76       11.8549         0.000       
      75       11.1376         0.000       
      74       10.7253         0.000       
      73       10.5708         0.000       
      72        9.9903         0.000       
      71        9.4201         0.000       
      70        9.1066         0.000       
      69        8.9020         0.000       
      68        8.7549         0.000       
      67        8.6463         0.000       
      66        8.3821         0.000       
      65        8.0722         0.000       
      64        7.5970         0.000       
      63        7.2431         0.000       
      62        6.8879         0.000       
      61        6.7677         0.000       
      60        6.5653         0.000       
      59        5.6524         0.000       
      58        5.4914         0.000       
      57        4.9660         0.000       
      56        4.6882         0.000       
      55        3.9247         0.000       
      54        3.7823         0.000       
      53        2.8633         0.000       
      52        2.5572         0.000       
      51        0.9120         0.000 < LUMO
      50       -1.8144         2.000 < HOMO
      49       -1.9571         2.000       
      48       -2.1449         2.000       
      47       -2.3262         2.000       
      46       -2.4729         2.000       
      45       -2.5478         2.000       
      44       -2.7053         2.000       
      43       -3.2467         2.000       
      42       -3.4643         2.000       
      41       -4.0818         2.000       
      40       -5.3420         2.000       
      39       -5.6290         2.000       
      38       -6.4273         2.000       
      37       -6.8108         2.000       
      36       -7.4223         2.000       
      35       -8.1172         2.000       
      34       -8.6890         2.000       
      33       -8.9983         2.000       
      32       -9.2692         2.000       
      31      -10.1454         2.000       
      30      -12.1712         2.000       
      29      -14.3124         2.000       
      28      -14.6825         2.000       
      27      -16.3084         2.000       
      26      -18.8106         2.000       
      25      -20.7874         2.000       
      24      -22.1542         2.000       
      23      -26.6034         2.000       
      22      -60.9817         2.000       
      21      -60.9841         2.000       
      20      -61.1459         2.000       
      19      -61.1542         2.000       
      18      -61.2059         2.000       
      17     -167.5372         2.000       
      16     -167.5465         2.000       
      15     -167.7656         2.000       
      14     -231.3877         2.000       
      13     -266.1295         2.000       
      12     -267.2939         2.000       
      11     -268.7129         2.000       
      10     -377.6846         2.000       
       9     -383.5622         2.000       
       8     -508.0522         2.000       
       7     -508.0908         2.000       
       6     -653.4501         2.000       
       5    -1521.6301         2.000       
       4    -1521.6326         2.000       
       3    -1521.7074         2.000       
       2    -1724.7480         2.000       
       1   -13291.2845         2.000       

AMS application finished. Exiting.
NORMAL TERMINATION
     Total cpu time:     123.19
  Total system time:       0.43
 Total elapsed time:     123.98
NORMAL TERMINATION
