
 *******************************************************************************
 *                                                                             *
 *  --------------------------------                                           *
 *   Amsterdam Modeling Suite (AMS)              2026.103                      *
 *  --------------------------------                                           *
 *                                               r260501 2026-05-01 873454b5   *
 *                                                                             *
 *                                                                             *
 *                              =================                              *
 *                              |               |                              *
 *                              |     A M S     |                              *
 *                              |               |                              *
 *                              =================                              *
 *                                                                             *
 *                                                                             *
 *   Online information and documentation:  https://www.scm.com/support/       *
 *   E-mail:  support@scm.com   info@scm.com                                   *
 *                                                                             *
 *   Scientific publications using AMS results must be properly referenced     *
 *   See the User Manuals (or the web site) for recommended citations          *
 *   The terms and conditions of the End User License Agreement apply to       *
 *   the use of AMS, https://www.scm.com/license-terms/                        *
 *                                                                             *
 **********************  x86_64_linux_intel / intelmpi  ************************
 
 Licensed to: Jong-June Jeon / University of Seoul 2026-06-02 13:44:15
 SCM User ID: u30731
  
 AMS 2026.103  RunTime: Jun03-2026 01:40:06  ShM Nodes: 1  Procs: 1

 AMS jobname: c3_eda
 AMS jobid  : 689436179

 Start   directory: /gpfs/home1/yeseo1ee/projects/eda-asm-prediction/ADF_800/adf_outputs/batch_000/dipolar_000246/
 Results directory: /gpfs/home1/yeseo1ee/projects/eda-asm-prediction/ADF_800/adf_outputs/batch_000/dipolar_000246/c3_eda.results/
 Scratch directory: /tmp/amstmp_c3_eda_kid0.689436179/

 RNG seed: 702143289 806974277 -2005442190 -272562184 -675226663 147139700 1835477816 1493161089



                      ************************************************************************
                      *  ADF 2026.103  RunTime: Jun03-2026 01:40:06  ShM Nodes: 1  Procs: 1  *
                      ************************************************************************
  

       ****************************
       * SINGLE POINT CALCULATION *
       ****************************

--------
Geometry
--------
Formula: C15H17N3O
Atoms
  Index Symbol   x (angstrom)   y (angstrom)   z (angstrom)
      1      C     0.36454000    -1.92709000    -0.97686000 adf.f=fA
      2      C     0.94622000    -1.76066000    -2.19541000 adf.f=fA
      3      N     1.44255000    -1.58155000    -3.24729000 adf.f=fA
      4      C    -0.31182000    -2.22451000     0.03444000 adf.f=fA
      5      C    -1.29717000    -3.06072000     0.73304000 adf.f=fA
      6      H    -1.71424000    -3.83010000     0.06423000 adf.f=fA
      7      H    -0.83357000    -3.55666000     1.60099000 adf.f=fA
      8      H    -2.12138000    -2.44032000     1.11991000 adf.f=fA
      9      C     1.45365000     2.58192000    -2.60727000 adf.f=fB
     10      N     1.79051000     1.36488000    -1.89794000 adf.f=fB
     11      C     1.48772000     1.21560000    -0.58496000 adf.f=fB
     12      O     0.98366000     2.13342000     0.08261000 adf.f=fB
     13      C     1.88320000    -0.07456000     0.00071000 adf.f=fB
     14      C     0.10867000    -0.66113000     1.53637000 adf.f=fB
     15      C    -1.05016000     0.20365000     1.23201000 adf.f=fB
     16      C    -1.91176000     0.47141000     2.31703000 adf.f=fB
     17      C    -3.08783000     1.20462000     2.15086000 adf.f=fB
     18      C    -3.44442000     1.67601000     0.88480000 adf.f=fB
     19      C    -2.61536000     1.39816000    -0.20765000 adf.f=fB
     20      C    -1.43561000     0.67437000    -0.04155000 adf.f=fB
     21      N     1.42054000    -0.54524000     1.17678000 adf.f=fB
     22      C     2.30415000    -1.53760000     1.81985000 adf.f=fB
     23      H     1.89470000     3.45862000    -2.10924000 adf.f=fB
     24      H     1.85072000     2.52134000    -3.62840000 adf.f=fB
     25      H     0.36302000     2.74104000    -2.66188000 adf.f=fB
     26      H     2.02591000     0.53604000    -2.43910000 adf.f=fB
     27      H     2.86129000    -0.45461000    -0.29669000 adf.f=fB
     28      H     0.01043000    -1.14779000     2.50802000 adf.f=fB
     29      H    -1.64479000     0.09899000     3.30908000 adf.f=fB
     30      H    -3.72765000     1.40380000     3.01381000 adf.f=fB
     31      H    -4.36547000     2.24708000     0.74653000 adf.f=fB
     32      H    -2.89146000     1.74587000    -1.20602000 adf.f=fB
     33      H    -0.83948000     0.44372000    -0.92010000 adf.f=fB
     34      H     1.98725000    -1.69263000     2.85677000 adf.f=fB
     35      H     3.33531000    -1.16746000     1.80435000 adf.f=fB
     36      H     2.24469000    -2.49016000     1.27206000 adf.f=fB

Total System Charge              0.00000


----------------
ADF Engine Input
----------------
 
   Basis
     Type TZ2P
     Core None
   End
   XC
     GGA BLYP
     Dispersion GRIMME3 BJDAMP
   End
   Symmetry NOSYM
   NumericalQuality Normal
   Unrestricted No
   SCF
     Iterations 200
     Converge 1.0e-6
   End
   fragments
     fA c1_fragA_ts.results/adf.rkf
     fB c2_fragB_ts.results/adf.rkf
   end
   etsnocv
     enocv 0.05
     ekmin 0.5
   end
   print etslowdin
   Save TAPE21
 

 Title: *** (NO TITLE) ***

 *** adf ***



 ===========================
 A T T A C H E D   F I L E S
 ===========================
  



 ===============================
 M O D E L   P A R A M E T E R S
 ===============================
  
 DENSITY FUNCTIONAL POTENTIAL (scf)
    LDA:                               Exchange only                           == Not Default ==
    Gradient Corrections:              Becke88 LYP                             == Not Default ==

 SPIN  (restricted / unrestr.)
    Molecule:                          Restricted                               
    Fragments:                         Restricted                               

 OTHER ASPECTS
    Relativistic Corrections:          scalar (ZORA,MAPA)                       

    Nuclear Charge Density Model:      Point Charge Nuclei                      
    Core Treatment:                    Frozen Orbital(s)                        

    Hyperfine or Zeeman Interaction:   ---                                      

 Settings for Grimme D3 dispersion correction

      damping                        BJ
      s6                          1.000
      s8                          2.700
      a1                          0.430
      a2                          4.236

 Other (technical) parameters

      alpha                      14.000
      version                         4
 


 Fragment File(s)
 ----------------
 fA:
         file : c1_fragA_ts.results/adf.rkf
         jobid: 1762637632
         title: *** adf ***
 fB:
         file : c2_fragB_ts.results/adf.rkf
         jobid: 1768211907
         title: *** adf ***



 ===============
 G E O M E T R Y  ***  3D  Molecule  ***
 ===============
  

 ATOMS
 =====                            X Y Z                    CHARGE
                                (Angstrom)             Nucl     +Core       At.Mass
                       --------------------------    ----------------       -------
    1  C               0.3645   -1.9271   -0.9769      6.00      6.00       12.0000
    2  C               0.9462   -1.7607   -2.1954      6.00      6.00       12.0000
    3  N               1.4425   -1.5816   -3.2473      7.00      7.00       14.0031
    4  C              -0.3118   -2.2245    0.0344      6.00      6.00       12.0000
    5  C              -1.2972   -3.0607    0.7330      6.00      6.00       12.0000
    6  H              -1.7142   -3.8301    0.0642      1.00      1.00        1.0078
    7  H              -0.8336   -3.5567    1.6010      1.00      1.00        1.0078
    8  H              -2.1214   -2.4403    1.1199      1.00      1.00        1.0078
    9  C               1.4537    2.5819   -2.6073      6.00      6.00       12.0000
   10  N               1.7905    1.3649   -1.8979      7.00      7.00       14.0031
   11  C               1.4877    1.2156   -0.5850      6.00      6.00       12.0000
   12  O               0.9837    2.1334    0.0826      8.00      8.00       15.9949
   13  C               1.8832   -0.0746    0.0007      6.00      6.00       12.0000
   14  C               0.1087   -0.6611    1.5364      6.00      6.00       12.0000
   15  C              -1.0502    0.2036    1.2320      6.00      6.00       12.0000
   16  C              -1.9118    0.4714    2.3170      6.00      6.00       12.0000
   17  C              -3.0878    1.2046    2.1509      6.00      6.00       12.0000
   18  C              -3.4444    1.6760    0.8848      6.00      6.00       12.0000
   19  C              -2.6154    1.3982   -0.2076      6.00      6.00       12.0000
   20  C              -1.4356    0.6744   -0.0415      6.00      6.00       12.0000
   21  N               1.4205   -0.5452    1.1768      7.00      7.00       14.0031
   22  C               2.3041   -1.5376    1.8198      6.00      6.00       12.0000
   23  H               1.8947    3.4586   -2.1092      1.00      1.00        1.0078
   24  H               1.8507    2.5213   -3.6284      1.00      1.00        1.0078
   25  H               0.3630    2.7410   -2.6619      1.00      1.00        1.0078
   26  H               2.0259    0.5360   -2.4391      1.00      1.00        1.0078
   27  H               2.8613   -0.4546   -0.2967      1.00      1.00        1.0078
   28  H               0.0104   -1.1478    2.5080      1.00      1.00        1.0078
   29  H              -1.6448    0.0990    3.3091      1.00      1.00        1.0078
   30  H              -3.7276    1.4038    3.0138      1.00      1.00        1.0078
   31  H              -4.3655    2.2471    0.7465      1.00      1.00        1.0078
   32  H              -2.8915    1.7459   -1.2060      1.00      1.00        1.0078
   33  H              -0.8395    0.4437   -0.9201      1.00      1.00        1.0078
   34  H               1.9872   -1.6926    2.8568      1.00      1.00        1.0078
   35  H               3.3353   -1.1675    1.8043      1.00      1.00        1.0078
   36  H               2.2447   -2.4902    1.2721      1.00      1.00        1.0078


 FRAGMENTS
 =========                                     Atoms in this Fragment     Cart. coord.s (Angstrom)
                                               -------------------------------------------------------
    1  fA                                                1  C            0.3645   -1.9271   -0.9769
                                                         2  C            0.9462   -1.7607   -2.1954
                                                         4  C           -0.3118   -2.2245    0.0344
                                                         5  C           -1.2972   -3.0607    0.7330
                                                         3  N            1.4425   -1.5816   -3.2473
                                                         6  H           -1.7142   -3.8301    0.0642
                                                         7  H           -0.8336   -3.5567    1.6010
                                                         8  H           -2.1214   -2.4403    1.1199
    2  fB                                                9  C            1.4537    2.5819   -2.6073
                                                        11  C            1.4877    1.2156   -0.5850
                                                        13  C            1.8832   -0.0746    0.0007
                                                        14  C            0.1087   -0.6611    1.5364
                                                        15  C           -1.0502    0.2036    1.2320
                                                        16  C           -1.9118    0.4714    2.3170
                                                        17  C           -3.0878    1.2046    2.1509
                                                        18  C           -3.4444    1.6760    0.8848
                                                        19  C           -2.6154    1.3982   -0.2076
                                                        20  C           -1.4356    0.6744   -0.0415
                                                        22  C            2.3041   -1.5376    1.8198
                                                        10  N            1.7905    1.3649   -1.8979
                                                        21  N            1.4205   -0.5452    1.1768
                                                        12  O            0.9837    2.1334    0.0826
                                                        23  H            1.8947    3.4586   -2.1092
                                                        24  H            1.8507    2.5213   -3.6284
                                                        25  H            0.3630    2.7410   -2.6619
                                                        26  H            2.0259    0.5360   -2.4391
                                                        27  H            2.8613   -0.4546   -0.2967
                                                        28  H            0.0104   -1.1478    2.5080
                                                        29  H           -1.6448    0.0990    3.3091
                                                        30  H           -3.7276    1.4038    3.0138
                                                        31  H           -4.3655    2.2471    0.7465
                                                        32  H           -2.8915    1.7459   -1.2060
                                                        33  H           -0.8395    0.4437   -0.9201
                                                        34  H            1.9872   -1.6926    2.8568
                                                        35  H            3.3353   -1.1675    1.8043
                                                        36  H            2.2447   -2.4902    1.2721



 =====================================
 S Y M M E T R Y ,   E L E C T R O N S
 =====================================
  
 Symmetry: NOSYM

 Irreducible Representations, including subspecies
 -------------------------------------------------
 A


 Configuration of Valence Electrons
 ==================================
 ( determined in the SCF procedure )

 Total:   136

 Net Charge: 0 (Nuclei minus Electrons)

 Aufbau principle for MO occupations will be applied through SCF cycle no.     100
 Thereafter, the program will assign electrons to MOs that are spatially
 similar to the occupied MOs in a "reference" cycle ("KeepOrbitals").
 The reference cycle is always the PREVIOUS cycle: it will evolve with
 the SCF procedure.
 ***************************************************************************************************



                                      ****************************************
                                      *  B U I L D : (Fragments, Functions)  *
                                      ****************************************
  

 The individual fragments are copies of the corresponding 'Master' fragments defined on the fragment files.
 However, they may have been rotated (and translated) with respect to the Master. The local coordinate axes
 of each fragment (which define for instance the spatial orientation in the current molecule of a fragment
 P:x orbital) are not necessarily those of the molecule.
 The local frame (if different from the molecular one) is printed to enable an interpretation of the expan-
 sion of an MO in Fragment Orbitals.



                                              ************************
                                              *  Fragment Type : fA  *
                                              ************************
  

 Fragment no.    1   (in the list of all fragments)
 -----------------
 The local coordinate frame is identical to the molecular frame.

 Check Atomic Coordinates:

                  Master (on file)          After Computed Tranformation               As specified on Input
           ----------------------------     ----------------------------     ---------------------------------
     1)     0.36454  -1.92709  -0.97686      0.36454  -1.92709  -0.97686       1   0.36454  -1.92709  -0.97686
     2)     0.94622  -1.76066  -2.19541      0.94622  -1.76066  -2.19541       2   0.94622  -1.76066  -2.19541
     3)    -0.31182  -2.22451   0.03444     -0.31182  -2.22451   0.03444       4  -0.31182  -2.22451   0.03444
     4)    -1.29717  -3.06072   0.73304     -1.29717  -3.06072   0.73304       5  -1.29717  -3.06072   0.73304
     5)     1.44255  -1.58155  -3.24729      1.44255  -1.58155  -3.24729       3   1.44255  -1.58155  -3.24729
     6)    -1.71424  -3.83010   0.06423     -1.71424  -3.83010   0.06423       6  -1.71424  -3.83010   0.06423
     7)    -0.83357  -3.55666   1.60099     -0.83357  -3.55666   1.60099       7  -0.83357  -3.55666   1.60099
     8)    -2.12138  -2.44032   1.11991     -2.12138  -2.44032   1.11991       8  -2.12138  -2.44032   1.11991



                                              ************************
                                              *  Fragment Type : fB  *
                                              ************************
  

 Fragment no.    2   (in the list of all fragments)
 -----------------
 The local coordinate frame is identical to the molecular frame.

 Check Atomic Coordinates:

                  Master (on file)          After Computed Tranformation               As specified on Input
           ----------------------------     ----------------------------     ---------------------------------
     1)     1.45365   2.58192  -2.60727      1.45365   2.58192  -2.60727       9   1.45365   2.58192  -2.60727
     2)     1.48772   1.21560  -0.58496      1.48772   1.21560  -0.58496      11   1.48772   1.21560  -0.58496
     3)     1.88320  -0.07456   0.00071      1.88320  -0.07456   0.00071      13   1.88320  -0.07456   0.00071
     4)     0.10867  -0.66113   1.53637      0.10867  -0.66113   1.53637      14   0.10867  -0.66113   1.53637
     5)    -1.05016   0.20365   1.23201     -1.05016   0.20365   1.23201      15  -1.05016   0.20365   1.23201
     6)    -1.91176   0.47141   2.31703     -1.91176   0.47141   2.31703      16  -1.91176   0.47141   2.31703
     7)    -3.08783   1.20462   2.15086     -3.08783   1.20462   2.15086      17  -3.08783   1.20462   2.15086
     8)    -3.44442   1.67601   0.88480     -3.44442   1.67601   0.88480      18  -3.44442   1.67601   0.88480
     9)    -2.61536   1.39816  -0.20765     -2.61536   1.39816  -0.20765      19  -2.61536   1.39816  -0.20765
    10)    -1.43561   0.67437  -0.04155     -1.43561   0.67437  -0.04155      20  -1.43561   0.67437  -0.04155
    11)     2.30415  -1.53760   1.81985      2.30415  -1.53760   1.81985      22   2.30415  -1.53760   1.81985
    12)     1.79051   1.36488  -1.89794      1.79051   1.36488  -1.89794      10   1.79051   1.36488  -1.89794
    13)     1.42054  -0.54524   1.17678      1.42054  -0.54524   1.17678      21   1.42054  -0.54524   1.17678
    14)     0.98366   2.13342   0.08261      0.98366   2.13342   0.08261      12   0.98366   2.13342   0.08261
    15)     1.89470   3.45862  -2.10924      1.89470   3.45862  -2.10924      23   1.89470   3.45862  -2.10924
    16)     1.85072   2.52134  -3.62840      1.85072   2.52134  -3.62840      24   1.85072   2.52134  -3.62840
    17)     0.36302   2.74104  -2.66188      0.36302   2.74104  -2.66188      25   0.36302   2.74104  -2.66188
    18)     2.02591   0.53604  -2.43910      2.02591   0.53604  -2.43910      26   2.02591   0.53604  -2.43910
    19)     2.86129  -0.45461  -0.29669      2.86129  -0.45461  -0.29669      27   2.86129  -0.45461  -0.29669
    20)     0.01043  -1.14779   2.50802      0.01043  -1.14779   2.50802      28   0.01043  -1.14779   2.50802
    21)    -1.64479   0.09899   3.30908     -1.64479   0.09899   3.30908      29  -1.64479   0.09899   3.30908
    22)    -3.72765   1.40380   3.01381     -3.72765   1.40380   3.01381      30  -3.72765   1.40380   3.01381
    23)    -4.36547   2.24708   0.74653     -4.36547   2.24708   0.74653      31  -4.36547   2.24708   0.74653
    24)    -2.89146   1.74587  -1.20602     -2.89146   1.74587  -1.20602      32  -2.89146   1.74587  -1.20602
    25)    -0.83948   0.44372  -0.92010     -0.83948   0.44372  -0.92010      33  -0.83948   0.44372  -0.92010
    26)     1.98725  -1.69263   2.85677      1.98725  -1.69263   2.85677      34   1.98725  -1.69263   2.85677
    27)     3.33531  -1.16746   1.80435      3.33531  -1.16746   1.80435      35   3.33531  -1.16746   1.80435
    28)     2.24469  -2.49016   1.27206      2.24469  -2.49016   1.27206      36   2.24469  -2.49016   1.27206



 =======
 S F O s  ***  (Symmetrized Fragment Orbitals)  ***
 =======
  
 SFOs are linear combinations of (valence) Fragment Orbitals (FOs), such that the SFOs transform as the
 irreducible representations of the (molecular) symmetry group. Each SFO is therefore characterized by
 an irrep of the molecule and by a few (or only one) generating FOs.
 The SFOs constitute a symmetry-adapted basis for the Fock matrix. The MO eigenvector coefficients in
 this basis provide a direct interpretation of the MOs in terms of Frontier Orbital Theory.

 The SFOs are combined with auxiliary Core Functions (CFs) to ensure orthogonalization on the (frozen)
 Core Orbitals (COs). The Core-orthogonalized SFOs (CSFOs) constitute the true Fock basis.

 The FOs, and hence also the (C)SFOs are combinations of the elementary basis functions (BAS). The basis
 functions that participate in the description of the SFOs depend on the irrep. The indices of the
 involved functions are printed below for each irrep.
 (The complete list of primitive basis functions is printed in another section)

 Total nr. of (C)SFOs (summation over all irreps) :   681

 NOTE: a (C)SFO that is defined as a combination of more than one FO is usually NOT normalized.



                                       === A ===
 Nr. of SFOs :  681
 Cartesian basis functions that participate in this irrep (total number =   774) :
      1     2     3     4     5     6     9    12     7    10
     13     8    11    14    15    16    17    18    19    20
     21    22    23    24    25    26    27    28    29    30
     31    32    33    34    35    36    39    42    37    40
     43    38    41    44    45    46    47    48    49    50
     51    52    53    54    55    56    57    58    59    60
     61    62    63    64    65    66    69    72    67    70
     73    68    71    74    75    76    77    78    79    80
     81    82    83    84    85    86    87    88    89    90
     91    92    93    94    95    96    99   102    97   100
    103    98   101   104   105   106   107   108   109   110
    111   112   113   114   115   116   117   118   119   120
    121   122   123   124   125   126   129   132   127   130
    133   128   131   134   135   136   137   138   139   140
    141   142   143   144   145   146   147   148   149   150
    151   152   153   154   155   156   157   158   159   160
    161   162   163   164   165   166   167   168   169   170
    171   172   173   174   175   176   177   178   179   180
    181   182   183   184   185   186   187   188   189   190
    191   192   195   198   193   196   199   194   197   200
    201   202   203   204   205   206   207   208   209   210
    211   212   213   214   215   216   217   218   219   220
    221   222   225   228   223   226   229   224   227   230
    231   232   233   234   235   236   237   238   239   240
    241   242   243   244   245   246   247   248   249   250
    251   252   255   258   253   256   259   254   257   260
    261   262   263   264   265   266   267   268   269   270
    271   272   273   274   275   276   277   278   279   280
    281   282   285   288   283   286   289   284   287   290
    291   292   293   294   295   296   297   298   299   300
    301   302   303   304   305   306   307   308   309   310
    311   312   315   318   313   316   319   314   317   320
    321   322   323   324   325   326   327   328   329   330
    331   332   333   334   335   336   337   338   339   340
    341   342   345   348   343   346   349   344   347   350
    351   352   353   354   355   356   357   358   359   360
    361   362   363   364   365   366   367   368   369   370
    371   372   375   378   373   376   379   374   377   380
    381   382   383   384   385   386   387   388   389   390
    391   392   393   394   395   396   397   398   399   400
    401   402   405   408   403   406   409   404   407   410
    411   412   413   414   415   416   417   418   419   420
    421   422   423   424   425   426   427   428   429   430
    431   432   435   438   433   436   439   434   437   440
    441   442   443   444   445   446   447   448   449   450
    451   452   453   454   455   456   457   458   459   460
    461   462   465   468   463   466   469   464   467   470
    471   472   473   474   475   476   477   478   479   480
    481   482   483   484   485   486   487   488   489   490
    491   492   495   498   493   496   499   494   497   500
    501   502   503   504   505   506   507   508   509   510
    511   512   513   514   515   516   517   518   519   520
    521   522   525   528   523   526   529   524   527   530
    531   532   533   534   535   536   537   538   539   540
    541   542   543   544   545   546   547   548   549   550
    551   552   555   558   553   556   559   554   557   560
    561   562   563   564   565   566   567   568   569   570
    571   572   573   574   575   576   577   578   579   580
    581   582   585   588   583   586   589   584   587   590
    591   592   593   594   595   596   597   598   599   600
    601   602   603   604   605   606   607   608   609   610
    611   612   613   614   615   616   617   618   619   620
    621   622   623   624   625   626   627   628   629   630
    631   632   633   634   635   636   637   638   639   640
    641   642   643   644   645   646   647   648   649   650
    651   652   653   654   655   656   657   658   659   660
    661   662   663   664   665   666   667   668   669   670
    671   672   673   674   675   676   677   678   679   680
    681   682   683   684   685   686   687   688   689   690
    691   692   693   694   695   696   697   698   699   700
    701   702   703   704   705   706   707   708   709   710
    711   712   713   714   715   716   717   718   719   720
    721   722   723   724   725   726   727   728   729   730
    731   732   733   734   735   736   737   738   739   740
    741   742   743   744   745   746   747   748   749   750
    751   752   753   754   755   756   757   758   759   760
    761   762   763   764   765   766   767   768   769   770
    771   772   773   774

    SFO  (index         Fragment          Generating    Expansion in Fragment Orbitals
  indx  incl.CFs)   Occup   Orb.Energy   FragmentType  Coeff.   Orbital     on Fragment
 --------------------------------------------------------------------------------------
     1       1      2.000     -14.037 au  fA            1.00      1 A               1
                        (    -381.962 eV)
     2       2      2.000      -9.981 au  fA            1.00      2 A               1
                        (    -271.605 eV)
     3       3      2.000      -9.981 au  fA            1.00      3 A               1
                        (    -271.596 eV)
     4       4      2.000      -9.974 au  fA            1.00      4 A               1
                        (    -271.417 eV)
     5       5      2.000      -9.972 au  fA            1.00      5 A               1
                        (    -271.344 eV)
     6       6      2.000      -0.833 au  fA            1.00      6 A               1
                        (     -22.663 eV)
     7       7      2.000      -0.747 au  fA            1.00      7 A               1
                        (     -20.327 eV)
     8       8      2.000      -0.685 au  fA            1.00      8 A               1
                        (     -18.630 eV)
     9       9      2.000      -0.591 au  fA            1.00      9 A               1
                        (     -16.095 eV)
    10      10      2.000      -0.445 au  fA            1.00     10 A               1
                        (     -12.106 eV)
    11      11      2.000      -0.416 au  fA            1.00     11 A               1
                        (     -11.307 eV)
    12      12      2.000      -0.413 au  fA            1.00     12 A               1
                        (     -11.249 eV)
    13      13      2.000      -0.347 au  fA            1.00     13 A               1
                        (      -9.431 eV)
    14      14      2.000      -0.346 au  fA            1.00     14 A               1
                        (      -9.419 eV)
    15      15      2.000      -0.328 au  fA            1.00     15 A               1
                        (      -8.924 eV)
    16      16      2.000      -0.258 au  fA            1.00     16 A               1
                        (      -7.030 eV)
    17      17      2.000      -0.258 au  fA            1.00     17 A               1
                        (      -7.013 eV)
    18      18       --        -0.106 au  fA            1.00     18 A               1
                        (      -2.893 eV)
    19      19       --        -0.084 au  fA            1.00     19 A               1
                        (      -2.288 eV)
    20      20       --        -0.022 au  fA            1.00     20 A               1
                        (      -0.586 eV)
    21      21       --         0.033 au  fA            1.00     21 A               1
                        (       0.898 eV)
    22      22       --         0.033 au  fA            1.00     22 A               1
                        (       0.905 eV)
    23      23       --         0.040 au  fA            1.00     23 A               1
                        (       1.076 eV)
    24      24       --         0.065 au  fA            1.00     24 A               1
                        (       1.775 eV)
    25      25       --         0.079 au  fA            1.00     25 A               1
                        (       2.139 eV)
    26      26       --         0.093 au  fA            1.00     26 A               1
                        (       2.524 eV)
    27      27       --         0.130 au  fA            1.00     27 A               1
                        (       3.527 eV)
    28      28       --         0.134 au  fA            1.00     28 A               1
                        (       3.639 eV)
    29      29       --         0.139 au  fA            1.00     29 A               1
                        (       3.777 eV)
    30      30       --         0.167 au  fA            1.00     30 A               1
                        (       4.541 eV)
    31      31       --         0.177 au  fA            1.00     31 A               1
                        (       4.810 eV)
    32      32       --         0.214 au  fA            1.00     32 A               1
                        (       5.823 eV)
    33      33       --         0.229 au  fA            1.00     33 A               1
                        (       6.237 eV)
    34      34       --         0.263 au  fA            1.00     34 A               1
                        (       7.150 eV)
    35      35       --         0.266 au  fA            1.00     35 A               1
                        (       7.249 eV)
    36      36       --         0.308 au  fA            1.00     36 A               1
                        (       8.369 eV)
    37      37       --         0.333 au  fA            1.00     37 A               1
                        (       9.048 eV)
    38      38       --         0.336 au  fA            1.00     38 A               1
                        (       9.132 eV)
    39      39       --         0.352 au  fA            1.00     39 A               1
                        (       9.571 eV)
    40      40       --         0.413 au  fA            1.00     40 A               1
                        (      11.232 eV)
    41      41       --         0.422 au  fA            1.00     41 A               1
                        (      11.494 eV)
    42      42       --         0.466 au  fA            1.00     42 A               1
                        (      12.684 eV)
    43      43       --         0.548 au  fA            1.00     43 A               1
                        (      14.922 eV)
    44      44       --         0.555 au  fA            1.00     44 A               1
                        (      15.114 eV)
    45      45       --         0.639 au  fA            1.00     45 A               1
                        (      17.387 eV)
    46      46       --         0.663 au  fA            1.00     46 A               1
                        (      18.053 eV)
    47      47       --         0.709 au  fA            1.00     47 A               1
                        (      19.299 eV)
    48      48       --         0.718 au  fA            1.00     48 A               1
                        (      19.535 eV)
    49      49       --         0.782 au  fA            1.00     49 A               1
                        (      21.275 eV)
    50      50       --         0.884 au  fA            1.00     50 A               1
                        (      24.067 eV)
    51      51       --         0.910 au  fA            1.00     51 A               1
                        (      24.752 eV)
    52      52       --         0.923 au  fA            1.00     52 A               1
                        (      25.111 eV)
    53      53       --         0.961 au  fA            1.00     53 A               1
                        (      26.162 eV)
    54      54       --         0.977 au  fA            1.00     54 A               1
                        (      26.576 eV)
    55      55       --         1.002 au  fA            1.00     55 A               1
                        (      27.268 eV)
    56      56       --         1.011 au  fA            1.00     56 A               1
                        (      27.516 eV)
    57      57       --         1.057 au  fA            1.00     57 A               1
                        (      28.765 eV)
    58      58       --         1.069 au  fA            1.00     58 A               1
                        (      29.096 eV)
    59      59       --         1.097 au  fA            1.00     59 A               1
                        (      29.864 eV)
    60      60       --         1.111 au  fA            1.00     60 A               1
                        (      30.221 eV)
    61      61       --         1.162 au  fA            1.00     61 A               1
                        (      31.631 eV)
    62      62       --         1.221 au  fA            1.00     62 A               1
                        (      33.214 eV)
    63      63       --         1.228 au  fA            1.00     63 A               1
                        (      33.408 eV)
    64      64       --         1.257 au  fA            1.00     64 A               1
                        (      34.216 eV)
    65      65       --         1.367 au  fA            1.00     65 A               1
                        (      37.210 eV)
    66      66       --         1.428 au  fA            1.00     66 A               1
                        (      38.860 eV)
    67      67       --         1.495 au  fA            1.00     67 A               1
                        (      40.676 eV)
    68      68       --         1.516 au  fA            1.00     68 A               1
                        (      41.264 eV)
    69      69       --         1.537 au  fA            1.00     69 A               1
                        (      41.834 eV)
    70      70       --         1.570 au  fA            1.00     70 A               1
                        (      42.714 eV)
    71      71       --         1.703 au  fA            1.00     71 A               1
                        (      46.351 eV)
    72      72       --         1.748 au  fA            1.00     72 A               1
                        (      47.558 eV)
    73      73       --         1.759 au  fA            1.00     73 A               1
                        (      47.871 eV)
    74      74       --         1.779 au  fA            1.00     74 A               1
                        (      48.403 eV)
    75      75       --         1.822 au  fA            1.00     75 A               1
                        (      49.575 eV)
    76      76       --         1.872 au  fA            1.00     76 A               1
                        (      50.946 eV)
    77      77       --         1.876 au  fA            1.00     77 A               1
                        (      51.060 eV)
    78      78       --         1.919 au  fA            1.00     78 A               1
                        (      52.216 eV)
    79      79       --         1.947 au  fA            1.00     79 A               1
                        (      52.990 eV)
    80      80       --         2.057 au  fA            1.00     80 A               1
                        (      55.969 eV)
    81      81       --         2.072 au  fA            1.00     81 A               1
                        (      56.385 eV)
    82      82       --         2.153 au  fA            1.00     82 A               1
                        (      58.583 eV)
    83      83       --         2.239 au  fA            1.00     83 A               1
                        (      60.921 eV)
    84      84       --         2.355 au  fA            1.00     84 A               1
                        (      64.086 eV)
    85      85       --         2.361 au  fA            1.00     85 A               1
                        (      64.244 eV)
    86      86       --         2.398 au  fA            1.00     86 A               1
                        (      65.258 eV)
    87      87       --         2.443 au  fA            1.00     87 A               1
                        (      66.469 eV)
    88      88       --         2.602 au  fA            1.00     88 A               1
                        (      70.811 eV)
    89      89       --         2.742 au  fA            1.00     89 A               1
                        (      74.619 eV)
    90      90       --         2.764 au  fA            1.00     90 A               1
                        (      75.212 eV)
    91      91       --         2.801 au  fA            1.00     91 A               1
                        (      76.216 eV)
    92      92       --         2.831 au  fA            1.00     92 A               1
                        (      77.023 eV)
    93      93       --         2.869 au  fA            1.00     93 A               1
                        (      78.076 eV)
    94      94       --         2.885 au  fA            1.00     94 A               1
                        (      78.513 eV)
    95      95       --         2.967 au  fA            1.00     95 A               1
                        (      80.741 eV)
    96      96       --         2.982 au  fA            1.00     96 A               1
                        (      81.138 eV)
    97      97       --         3.031 au  fA            1.00     97 A               1
                        (      82.478 eV)
    98      98       --         3.063 au  fA            1.00     98 A               1
                        (      83.343 eV)
    99      99       --         3.102 au  fA            1.00     99 A               1
                        (      84.408 eV)
   100     100       --         3.114 au  fA            1.00    100 A               1
                        (      84.724 eV)
   101     101       --         3.285 au  fA            1.00    101 A               1
                        (      89.391 eV)
   102     102       --         3.302 au  fA            1.00    102 A               1
                        (      89.845 eV)
   103     103       --         3.426 au  fA            1.00    103 A               1
                        (      93.235 eV)
   104     104       --         3.431 au  fA            1.00    104 A               1
                        (      93.358 eV)
   105     105       --         3.470 au  fA            1.00    105 A               1
                        (      94.435 eV)
   106     106       --         3.512 au  fA            1.00    106 A               1
                        (      95.554 eV)
   107     107       --         3.714 au  fA            1.00    107 A               1
                        (     101.052 eV)
   108     108       --         3.717 au  fA            1.00    108 A               1
                        (     101.136 eV)
   109     109       --         3.718 au  fA            1.00    109 A               1
                        (     101.159 eV)
   110     110       --         3.800 au  fA            1.00    110 A               1
                        (     103.404 eV)
   111     111       --         3.817 au  fA            1.00    111 A               1
                        (     103.873 eV)
   112     112       --         3.847 au  fA            1.00    112 A               1
                        (     104.686 eV)
   113     113       --         3.859 au  fA            1.00    113 A               1
                        (     105.013 eV)
   114     114       --         3.879 au  fA            1.00    114 A               1
                        (     105.561 eV)
   115     115       --         3.882 au  fA            1.00    115 A               1
                        (     105.634 eV)
   116     116       --         4.074 au  fA            1.00    116 A               1
                        (     110.854 eV)
   117     117       --         4.103 au  fA            1.00    117 A               1
                        (     111.639 eV)
   118     118       --         4.135 au  fA            1.00    118 A               1
                        (     112.519 eV)
   119     119       --         4.203 au  fA            1.00    119 A               1
                        (     114.381 eV)
   120     120       --         4.231 au  fA            1.00    120 A               1
                        (     115.123 eV)
   121     121       --         4.284 au  fA            1.00    121 A               1
                        (     116.574 eV)
   122     122       --         4.360 au  fA            1.00    122 A               1
                        (     118.634 eV)
   123     123       --         4.438 au  fA            1.00    123 A               1
                        (     120.774 eV)
   124     124       --         4.472 au  fA            1.00    124 A               1
                        (     121.677 eV)
   125     125       --         4.513 au  fA            1.00    125 A               1
                        (     122.804 eV)
   126     126       --         4.560 au  fA            1.00    126 A               1
                        (     124.085 eV)
   127     127       --         4.587 au  fA            1.00    127 A               1
                        (     124.823 eV)
   128     128       --         4.655 au  fA            1.00    128 A               1
                        (     126.669 eV)
   129     129       --         4.924 au  fA            1.00    129 A               1
                        (     133.983 eV)
   130     130       --         4.996 au  fA            1.00    130 A               1
                        (     135.950 eV)
   131     131       --         5.019 au  fA            1.00    131 A               1
                        (     136.584 eV)
   132     132       --         5.158 au  fA            1.00    132 A               1
                        (     140.370 eV)
   133     133       --         5.199 au  fA            1.00    133 A               1
                        (     141.473 eV)
   134     134       --         5.275 au  fA            1.00    134 A               1
                        (     143.548 eV)
   135     135       --         5.488 au  fA            1.00    135 A               1
                        (     149.341 eV)
   136     136       --         5.509 au  fA            1.00    136 A               1
                        (     149.915 eV)
   137     137       --         5.601 au  fA            1.00    137 A               1
                        (     152.404 eV)
   138     138       --         5.785 au  fA            1.00    138 A               1
                        (     157.409 eV)
   139     139       --         5.827 au  fA            1.00    139 A               1
                        (     158.572 eV)
   140     140       --         5.995 au  fA            1.00    140 A               1
                        (     163.132 eV)
   141     141       --         6.213 au  fA            1.00    141 A               1
                        (     169.064 eV)
   142     142       --         6.328 au  fA            1.00    142 A               1
                        (     172.201 eV)
   143     143       --         6.397 au  fA            1.00    143 A               1
                        (     174.075 eV)
   144     144       --         6.462 au  fA            1.00    144 A               1
                        (     175.837 eV)
   145     145       --         6.600 au  fA            1.00    145 A               1
                        (     179.600 eV)
   146     146       --         6.738 au  fA            1.00    146 A               1
                        (     183.344 eV)
   147     147       --         6.891 au  fA            1.00    147 A               1
                        (     187.511 eV)
   148     148       --         6.901 au  fA            1.00    148 A               1
                        (     187.776 eV)
   149     149       --         7.146 au  fA            1.00    149 A               1
                        (     194.453 eV)
   150     150       --         7.180 au  fA            1.00    150 A               1
                        (     195.368 eV)
   151     151       --         7.209 au  fA            1.00    151 A               1
                        (     196.154 eV)
   152     152       --         7.737 au  fA            1.00    152 A               1
                        (     210.544 eV)
   153     153       --         8.003 au  fA            1.00    153 A               1
                        (     217.759 eV)
   154     154       --         8.082 au  fA            1.00    154 A               1
                        (     219.921 eV)
   155     155       --         8.547 au  fA            1.00    155 A               1
                        (     232.579 eV)
   156     156       --         9.136 au  fA            1.00    156 A               1
                        (     248.604 eV)
   157     157       --        10.222 au  fA            1.00    157 A               1
                        (     278.154 eV)
   158     158       --        11.548 au  fA            1.00    158 A               1
                        (     314.237 eV)
   159     159       --        52.685 au  fA            1.00    159 A               1
                        (    1433.621 eV)
   160     160       --        55.459 au  fA            1.00    160 A               1
                        (    1509.115 eV)
   161     161       --        56.821 au  fA            1.00    161 A               1
                        (    1546.188 eV)
   162     162       --        58.625 au  fA            1.00    162 A               1
                        (    1595.263 eV)
   163     163       --        69.660 au  fA            1.00    163 A               1
                        (    1895.541 eV)
   164     164      2.000     -18.737 au  fB            1.00      1 A               2
                        (    -509.861 eV)
   165     165      2.000     -14.108 au  fB            1.00      2 A               2
                        (    -383.909 eV)
   166     166      2.000     -14.036 au  fB            1.00      3 A               2
                        (    -381.935 eV)
   167     167      2.000      -9.996 au  fB            1.00      4 A               2
                        (    -272.009 eV)
   168     168      2.000      -9.973 au  fB            1.00      5 A               2
                        (    -271.375 eV)
   169     169      2.000      -9.951 au  fB            1.00      6 A               2
                        (    -270.786 eV)
   170     170      2.000      -9.946 au  fB            1.00      7 A               2
                        (    -270.637 eV)
   171     171      2.000      -9.933 au  fB            1.00      8 A               2
                        (    -270.293 eV)
   172     172      2.000      -9.931 au  fB            1.00      9 A               2
                        (    -270.226 eV)
   173     173      2.000      -9.917 au  fB            1.00     10 A               2
                        (    -269.857 eV)
   174     174      2.000      -9.916 au  fB            1.00     11 A               2
                        (    -269.839 eV)
   175     175      2.000      -9.916 au  fB            1.00     12 A               2
                        (    -269.819 eV)
   176     176      2.000      -9.915 au  fB            1.00     13 A               2
                        (    -269.800 eV)
   177     177      2.000      -9.915 au  fB            1.00     14 A               2
                        (    -269.787 eV)
   178     178      2.000      -0.926 au  fB            1.00     15 A               2
                        (     -25.209 eV)
   179     179      2.000      -0.902 au  fB            1.00     16 A               2
                        (     -24.556 eV)
   180     180      2.000      -0.828 au  fB            1.00     17 A               2
                        (     -22.527 eV)
   181     181      2.000      -0.769 au  fB            1.00     18 A               2
                        (     -20.917 eV)
   182     182      2.000      -0.695 au  fB            1.00     19 A               2
                        (     -18.913 eV)
   183     183      2.000      -0.678 au  fB            1.00     20 A               2
                        (     -18.447 eV)
   184     184      2.000      -0.664 au  fB            1.00     21 A               2
                        (     -18.073 eV)
   185     185      2.000      -0.647 au  fB            1.00     22 A               2
                        (     -17.606 eV)
   186     186      2.000      -0.629 au  fB            1.00     23 A               2
                        (     -17.114 eV)
   187     187      2.000      -0.558 au  fB            1.00     24 A               2
                        (     -15.190 eV)
   188     188      2.000      -0.536 au  fB            1.00     25 A               2
                        (     -14.589 eV)
   189     189      2.000      -0.531 au  fB            1.00     26 A               2
                        (     -14.447 eV)
   190     190      2.000      -0.505 au  fB            1.00     27 A               2
                        (     -13.746 eV)
   191     191      2.000      -0.475 au  fB            1.00     28 A               2
                        (     -12.931 eV)
   192     192      2.000      -0.462 au  fB            1.00     29 A               2
                        (     -12.569 eV)
   193     193      2.000      -0.438 au  fB            1.00     30 A               2
                        (     -11.917 eV)
   194     194      2.000      -0.432 au  fB            1.00     31 A               2
                        (     -11.743 eV)
   195     195      2.000      -0.410 au  fB            1.00     32 A               2
                        (     -11.150 eV)
   196     196      2.000      -0.403 au  fB            1.00     33 A               2
                        (     -10.975 eV)
   197     197      2.000      -0.393 au  fB            1.00     34 A               2
                        (     -10.683 eV)
   198     198      2.000      -0.389 au  fB            1.00     35 A               2
                        (     -10.592 eV)
   199     199      2.000      -0.382 au  fB            1.00     36 A               2
                        (     -10.384 eV)
   200     200      2.000      -0.377 au  fB            1.00     37 A               2
                        (     -10.248 eV)
   201     201      2.000      -0.366 au  fB            1.00     38 A               2
                        (      -9.949 eV)
   202     202      2.000      -0.349 au  fB            1.00     39 A               2
                        (      -9.504 eV)
   203     203      2.000      -0.346 au  fB            1.00     40 A               2
                        (      -9.418 eV)
   204     204      2.000      -0.333 au  fB            1.00     41 A               2
                        (      -9.066 eV)
   205     205      2.000      -0.329 au  fB            1.00     42 A               2
                        (      -8.939 eV)
   206     206      2.000      -0.323 au  fB            1.00     43 A               2
                        (      -8.802 eV)
   207     207      2.000      -0.301 au  fB            1.00     44 A               2
                        (      -8.199 eV)
   208     208      2.000      -0.299 au  fB            1.00     45 A               2
                        (      -8.128 eV)
   209     209      2.000      -0.290 au  fB            1.00     46 A               2
                        (      -7.900 eV)
   210     210      2.000      -0.228 au  fB            1.00     47 A               2
                        (      -6.218 eV)
   211     211      2.000      -0.222 au  fB            1.00     48 A               2
                        (      -6.039 eV)
   212     212      2.000      -0.206 au  fB            1.00     49 A               2
                        (      -5.612 eV)
   213     213      2.000      -0.195 au  fB            1.00     50 A               2
                        (      -5.305 eV)
   214     214      2.000      -0.152 au  fB            1.00     51 A               2
                        (      -4.131 eV)
   215     215       --        -0.087 au  fB            1.00     52 A               2
                        (      -2.356 eV)
   216     216       --        -0.031 au  fB            1.00     53 A               2
                        (      -0.833 eV)
   217     217       --        -0.023 au  fB            1.00     54 A               2
                        (      -0.614 eV)
   218     218       --        -0.011 au  fB            1.00     55 A               2
                        (      -0.294 eV)
   219     219       --        -0.006 au  fB            1.00     56 A               2
                        (      -0.176 eV)
   220     220       --         0.004 au  fB            1.00     57 A               2
                        (       0.112 eV)
   221     221       --         0.008 au  fB            1.00     58 A               2
                        (       0.221 eV)
   222     222       --         0.019 au  fB            1.00     59 A               2
                        (       0.509 eV)
   223     223       --         0.022 au  fB            1.00     60 A               2
                        (       0.600 eV)
   224     224       --         0.036 au  fB            1.00     61 A               2
                        (       0.978 eV)
   225     225       --         0.042 au  fB            1.00     62 A               2
                        (       1.134 eV)
   226     226       --         0.049 au  fB            1.00     63 A               2
                        (       1.338 eV)
   227     227       --         0.055 au  fB            1.00     64 A               2
                        (       1.503 eV)
   228     228       --         0.064 au  fB            1.00     65 A               2
                        (       1.749 eV)
   229     229       --         0.072 au  fB            1.00     66 A               2
                        (       1.952 eV)
   230     230       --         0.081 au  fB            1.00     67 A               2
                        (       2.201 eV)
   231     231       --         0.090 au  fB            1.00     68 A               2
                        (       2.453 eV)
   232     232       --         0.099 au  fB            1.00     69 A               2
                        (       2.683 eV)
   233     233       --         0.104 au  fB            1.00     70 A               2
                        (       2.825 eV)
   234     234       --         0.112 au  fB            1.00     71 A               2
                        (       3.041 eV)
   235     235       --         0.122 au  fB            1.00     72 A               2
                        (       3.320 eV)
   236     236       --         0.137 au  fB            1.00     73 A               2
                        (       3.725 eV)
   237     237       --         0.147 au  fB            1.00     74 A               2
                        (       3.996 eV)
   238     238       --         0.155 au  fB            1.00     75 A               2
                        (       4.213 eV)
   239     239       --         0.160 au  fB            1.00     76 A               2
                        (       4.366 eV)
   240     240       --         0.172 au  fB            1.00     77 A               2
                        (       4.685 eV)
   241     241       --         0.176 au  fB            1.00     78 A               2
                        (       4.798 eV)
   242     242       --         0.185 au  fB            1.00     79 A               2
                        (       5.035 eV)
   243     243       --         0.188 au  fB            1.00     80 A               2
                        (       5.121 eV)
   244     244       --         0.191 au  fB            1.00     81 A               2
                        (       5.191 eV)
   245     245       --         0.198 au  fB            1.00     82 A               2
                        (       5.384 eV)
   246     246       --         0.202 au  fB            1.00     83 A               2
                        (       5.498 eV)
   247     247       --         0.213 au  fB            1.00     84 A               2
                        (       5.790 eV)
   248     248       --         0.221 au  fB            1.00     85 A               2
                        (       6.024 eV)
   249     249       --         0.227 au  fB            1.00     86 A               2
                        (       6.167 eV)
   250     250       --         0.234 au  fB            1.00     87 A               2
                        (       6.366 eV)
   251     251       --         0.251 au  fB            1.00     88 A               2
                        (       6.818 eV)
   252     252       --         0.253 au  fB            1.00     89 A               2
                        (       6.885 eV)
   253     253       --         0.263 au  fB            1.00     90 A               2
                        (       7.148 eV)
   254     254       --         0.272 au  fB            1.00     91 A               2
                        (       7.392 eV)
   255     255       --         0.280 au  fB            1.00     92 A               2
                        (       7.612 eV)
   256     256       --         0.283 au  fB            1.00     93 A               2
                        (       7.699 eV)
   257     257       --         0.296 au  fB            1.00     94 A               2
                        (       8.045 eV)
   258     258       --         0.301 au  fB            1.00     95 A               2
                        (       8.183 eV)
   259     259       --         0.308 au  fB            1.00     96 A               2
                        (       8.374 eV)
   260     260       --         0.315 au  fB            1.00     97 A               2
                        (       8.583 eV)
   261     261       --         0.319 au  fB            1.00     98 A               2
                        (       8.674 eV)
   262     262       --         0.322 au  fB            1.00     99 A               2
                        (       8.755 eV)
   263     263       --         0.331 au  fB            1.00    100 A               2
                        (       9.004 eV)
   264     264       --         0.334 au  fB            1.00    101 A               2
                        (       9.077 eV)
   265     265       --         0.340 au  fB            1.00    102 A               2
                        (       9.258 eV)
   266     266       --         0.344 au  fB            1.00    103 A               2
                        (       9.364 eV)
   267     267       --         0.346 au  fB            1.00    104 A               2
                        (       9.427 eV)
   268     268       --         0.360 au  fB            1.00    105 A               2
                        (       9.789 eV)
   269     269       --         0.363 au  fB            1.00    106 A               2
                        (       9.875 eV)
   270     270       --         0.373 au  fB            1.00    107 A               2
                        (      10.153 eV)
   271     271       --         0.380 au  fB            1.00    108 A               2
                        (      10.349 eV)
   272     272       --         0.388 au  fB            1.00    109 A               2
                        (      10.566 eV)
   273     273       --         0.398 au  fB            1.00    110 A               2
                        (      10.823 eV)
   274     274       --         0.405 au  fB            1.00    111 A               2
                        (      11.032 eV)
   275     275       --         0.418 au  fB            1.00    112 A               2
                        (      11.366 eV)
   276     276       --         0.419 au  fB            1.00    113 A               2
                        (      11.398 eV)
   277     277       --         0.433 au  fB            1.00    114 A               2
                        (      11.780 eV)
   278     278       --         0.443 au  fB            1.00    115 A               2
                        (      12.057 eV)
   279     279       --         0.447 au  fB            1.00    116 A               2
                        (      12.166 eV)
   280     280       --         0.460 au  fB            1.00    117 A               2
                        (      12.519 eV)
   281     281       --         0.468 au  fB            1.00    118 A               2
                        (      12.746 eV)
   282     282       --         0.471 au  fB            1.00    119 A               2
                        (      12.810 eV)
   283     283       --         0.477 au  fB            1.00    120 A               2
                        (      12.970 eV)
   284     284       --         0.479 au  fB            1.00    121 A               2
                        (      13.026 eV)
   285     285       --         0.500 au  fB            1.00    122 A               2
                        (      13.611 eV)
   286     286       --         0.518 au  fB            1.00    123 A               2
                        (      14.082 eV)
   287     287       --         0.520 au  fB            1.00    124 A               2
                        (      14.136 eV)
   288     288       --         0.539 au  fB            1.00    125 A               2
                        (      14.671 eV)
   289     289       --         0.545 au  fB            1.00    126 A               2
                        (      14.835 eV)
   290     290       --         0.560 au  fB            1.00    127 A               2
                        (      15.247 eV)
   291     291       --         0.581 au  fB            1.00    128 A               2
                        (      15.802 eV)
   292     292       --         0.594 au  fB            1.00    129 A               2
                        (      16.176 eV)
   293     293       --         0.605 au  fB            1.00    130 A               2
                        (      16.473 eV)
   294     294       --         0.616 au  fB            1.00    131 A               2
                        (      16.752 eV)
   295     295       --         0.651 au  fB            1.00    132 A               2
                        (      17.703 eV)
   296     296       --         0.662 au  fB            1.00    133 A               2
                        (      18.003 eV)
   297     297       --         0.678 au  fB            1.00    134 A               2
                        (      18.451 eV)
   298     298       --         0.695 au  fB            1.00    135 A               2
                        (      18.908 eV)
   299     299       --         0.699 au  fB            1.00    136 A               2
                        (      19.032 eV)
   300     300       --         0.707 au  fB            1.00    137 A               2
                        (      19.245 eV)
   301     301       --         0.716 au  fB            1.00    138 A               2
                        (      19.492 eV)
   302     302       --         0.733 au  fB            1.00    139 A               2
                        (      19.949 eV)
   303     303       --         0.754 au  fB            1.00    140 A               2
                        (      20.531 eV)
   304     304       --         0.761 au  fB            1.00    141 A               2
                        (      20.704 eV)
   305     305       --         0.780 au  fB            1.00    142 A               2
                        (      21.226 eV)
   306     306       --         0.782 au  fB            1.00    143 A               2
                        (      21.291 eV)
   307     307       --         0.804 au  fB            1.00    144 A               2
                        (      21.868 eV)
   308     308       --         0.820 au  fB            1.00    145 A               2
                        (      22.310 eV)
   309     309       --         0.839 au  fB            1.00    146 A               2
                        (      22.833 eV)
   310     310       --         0.840 au  fB            1.00    147 A               2
                        (      22.870 eV)
   311     311       --         0.847 au  fB            1.00    148 A               2
                        (      23.039 eV)
   312     312       --         0.857 au  fB            1.00    149 A               2
                        (      23.332 eV)
   313     313       --         0.868 au  fB            1.00    150 A               2
                        (      23.615 eV)
   314     314       --         0.891 au  fB            1.00    151 A               2
                        (      24.255 eV)
   315     315       --         0.895 au  fB            1.00    152 A               2
                        (      24.354 eV)
   316     316       --         0.914 au  fB            1.00    153 A               2
                        (      24.884 eV)
   317     317       --         0.921 au  fB            1.00    154 A               2
                        (      25.069 eV)
   318     318       --         0.943 au  fB            1.00    155 A               2
                        (      25.654 eV)
   319     319       --         0.956 au  fB            1.00    156 A               2
                        (      26.010 eV)
   320     320       --         0.959 au  fB            1.00    157 A               2
                        (      26.097 eV)
   321     321       --         0.969 au  fB            1.00    158 A               2
                        (      26.376 eV)
   322     322       --         0.974 au  fB            1.00    159 A               2
                        (      26.501 eV)
   323     323       --         0.992 au  fB            1.00    160 A               2
                        (      26.998 eV)
   324     324       --         0.998 au  fB            1.00    161 A               2
                        (      27.151 eV)
   325     325       --         1.007 au  fB            1.00    162 A               2
                        (      27.392 eV)
   326     326       --         1.015 au  fB            1.00    163 A               2
                        (      27.633 eV)
   327     327       --         1.030 au  fB            1.00    164 A               2
                        (      28.034 eV)
   328     328       --         1.048 au  fB            1.00    165 A               2
                        (      28.506 eV)
   329     329       --         1.054 au  fB            1.00    166 A               2
                        (      28.674 eV)
   330     330       --         1.062 au  fB            1.00    167 A               2
                        (      28.902 eV)
   331     331       --         1.075 au  fB            1.00    168 A               2
                        (      29.261 eV)
   332     332       --         1.085 au  fB            1.00    169 A               2
                        (      29.529 eV)
   333     333       --         1.095 au  fB            1.00    170 A               2
                        (      29.803 eV)
   334     334       --         1.102 au  fB            1.00    171 A               2
                        (      29.975 eV)
   335     335       --         1.106 au  fB            1.00    172 A               2
                        (      30.099 eV)
   336     336       --         1.127 au  fB            1.00    173 A               2
                        (      30.680 eV)
   337     337       --         1.135 au  fB            1.00    174 A               2
                        (      30.889 eV)
   338     338       --         1.147 au  fB            1.00    175 A               2
                        (      31.211 eV)
   339     339       --         1.165 au  fB            1.00    176 A               2
                        (      31.698 eV)
   340     340       --         1.177 au  fB            1.00    177 A               2
                        (      32.020 eV)
   341     341       --         1.187 au  fB            1.00    178 A               2
                        (      32.292 eV)
   342     342       --         1.194 au  fB            1.00    179 A               2
                        (      32.497 eV)
   343     343       --         1.228 au  fB            1.00    180 A               2
                        (      33.412 eV)
   344     344       --         1.247 au  fB            1.00    181 A               2
                        (      33.921 eV)
   345     345       --         1.262 au  fB            1.00    182 A               2
                        (      34.334 eV)
   346     346       --         1.276 au  fB            1.00    183 A               2
                        (      34.714 eV)
   347     347       --         1.294 au  fB            1.00    184 A               2
                        (      35.221 eV)
   348     348       --         1.306 au  fB            1.00    185 A               2
                        (      35.536 eV)
   349     349       --         1.320 au  fB            1.00    186 A               2
                        (      35.927 eV)
   350     350       --         1.327 au  fB            1.00    187 A               2
                        (      36.109 eV)
   351     351       --         1.336 au  fB            1.00    188 A               2
                        (      36.364 eV)
   352     352       --         1.348 au  fB            1.00    189 A               2
                        (      36.681 eV)
   353     353       --         1.354 au  fB            1.00    190 A               2
                        (      36.834 eV)
   354     354       --         1.363 au  fB            1.00    191 A               2
                        (      37.094 eV)
   355     355       --         1.367 au  fB            1.00    192 A               2
                        (      37.209 eV)
   356     356       --         1.372 au  fB            1.00    193 A               2
                        (      37.346 eV)
   357     357       --         1.392 au  fB            1.00    194 A               2
                        (      37.885 eV)
   358     358       --         1.402 au  fB            1.00    195 A               2
                        (      38.142 eV)
   359     359       --         1.423 au  fB            1.00    196 A               2
                        (      38.709 eV)
   360     360       --         1.439 au  fB            1.00    197 A               2
                        (      39.157 eV)
   361     361       --         1.447 au  fB            1.00    198 A               2
                        (      39.374 eV)
   362     362       --         1.448 au  fB            1.00    199 A               2
                        (      39.397 eV)
   363     363       --         1.464 au  fB            1.00    200 A               2
                        (      39.834 eV)
   364     364       --         1.470 au  fB            1.00    201 A               2
                        (      40.011 eV)
   365     365       --         1.489 au  fB            1.00    202 A               2
                        (      40.508 eV)
   366     366       --         1.502 au  fB            1.00    203 A               2
                        (      40.864 eV)
   367     367       --         1.507 au  fB            1.00    204 A               2
                        (      41.017 eV)
   368     368       --         1.536 au  fB            1.00    205 A               2
                        (      41.791 eV)
   369     369       --         1.547 au  fB            1.00    206 A               2
                        (      42.083 eV)
   370     370       --         1.557 au  fB            1.00    207 A               2
                        (      42.360 eV)
   371     371       --         1.573 au  fB            1.00    208 A               2
                        (      42.792 eV)
   372     372       --         1.595 au  fB            1.00    209 A               2
                        (      43.414 eV)
   373     373       --         1.610 au  fB            1.00    210 A               2
                        (      43.799 eV)
   374     374       --         1.630 au  fB            1.00    211 A               2
                        (      44.351 eV)
   375     375       --         1.660 au  fB            1.00    212 A               2
                        (      45.165 eV)
   376     376       --         1.685 au  fB            1.00    213 A               2
                        (      45.855 eV)
   377     377       --         1.693 au  fB            1.00    214 A               2
                        (      46.065 eV)
   378     378       --         1.708 au  fB            1.00    215 A               2
                        (      46.466 eV)
   379     379       --         1.722 au  fB            1.00    216 A               2
                        (      46.848 eV)
   380     380       --         1.740 au  fB            1.00    217 A               2
                        (      47.343 eV)
   381     381       --         1.763 au  fB            1.00    218 A               2
                        (      47.985 eV)
   382     382       --         1.783 au  fB            1.00    219 A               2
                        (      48.504 eV)
   383     383       --         1.794 au  fB            1.00    220 A               2
                        (      48.811 eV)
   384     384       --         1.811 au  fB            1.00    221 A               2
                        (      49.270 eV)
   385     385       --         1.824 au  fB            1.00    222 A               2
                        (      49.640 eV)
   386     386       --         1.841 au  fB            1.00    223 A               2
                        (      50.095 eV)
   387     387       --         1.849 au  fB            1.00    224 A               2
                        (      50.310 eV)
   388     388       --         1.855 au  fB            1.00    225 A               2
                        (      50.488 eV)
   389     389       --         1.870 au  fB            1.00    226 A               2
                        (      50.897 eV)
   390     390       --         1.884 au  fB            1.00    227 A               2
                        (      51.260 eV)
   391     391       --         1.891 au  fB            1.00    228 A               2
                        (      51.459 eV)
   392     392       --         1.896 au  fB            1.00    229 A               2
                        (      51.603 eV)
   393     393       --         1.925 au  fB            1.00    230 A               2
                        (      52.371 eV)
   394     394       --         1.942 au  fB            1.00    231 A               2
                        (      52.833 eV)
   395     395       --         1.951 au  fB            1.00    232 A               2
                        (      53.087 eV)
   396     396       --         1.963 au  fB            1.00    233 A               2
                        (      53.411 eV)
   397     397       --         1.978 au  fB            1.00    234 A               2
                        (      53.827 eV)
   398     398       --         2.006 au  fB            1.00    235 A               2
                        (      54.573 eV)
   399     399       --         2.024 au  fB            1.00    236 A               2
                        (      55.088 eV)
   400     400       --         2.037 au  fB            1.00    237 A               2
                        (      55.437 eV)
   401     401       --         2.052 au  fB            1.00    238 A               2
                        (      55.833 eV)
   402     402       --         2.062 au  fB            1.00    239 A               2
                        (      56.111 eV)
   403     403       --         2.075 au  fB            1.00    240 A               2
                        (      56.453 eV)
   404     404       --         2.084 au  fB            1.00    241 A               2
                        (      56.716 eV)
   405     405       --         2.094 au  fB            1.00    242 A               2
                        (      56.973 eV)
[...]
     18      C    0.2061
     19      C    0.2312
     20      C    0.2860
     21      N   -0.2178
     22      C    0.8309
     23      H   -0.1852
     24      H   -0.2367
     25      H   -0.1858
     26      H   -0.0099
     27      H   -0.1731
     28      H   -0.2146
     29      H   -0.2400
     30      H   -0.2197
     31      H   -0.2160
     32      H   -0.2339
     33      H   -0.1927
     34      H   -0.2264
     35      H   -0.2152
     36      H   -0.1720


Dipole moment vector    (Debye):    -0.41887826   -2.29718171    3.94701402
              magnitude (Debye):     4.58600289


-----------------------
Molecular orbitals info
-----------------------
n orbitals:              681
n spin:                    1

Note: only printing virtual orbitals with
      energy smaller than HOMO + 100. eV

HOMO (eV):              -5.0512
LUMO (eV):              -2.5549
HOMO-LUMO gap (eV):      2.4962

   Index   Energy (eV)    Occupation
     429       94.4847         0.000       
     428       94.4154         0.000       
     427       94.2459         0.000       
     426       93.9892         0.000       
     425       93.8402         0.000       
     424       93.6535         0.000       
     423       93.3519         0.000       
     422       93.2246         0.000       
     421       93.1760         0.000       
     420       93.0059         0.000       
     419       92.5641         0.000       
     418       92.1310         0.000       
     417       91.9149         0.000       
     416       91.6170         0.000       
     415       91.0863         0.000       
     414       90.8069         0.000       
     413       90.6427         0.000       
     412       90.2631         0.000       
     411       89.7273         0.000       
     410       89.4997         0.000       
     409       88.4427         0.000       
     408       88.3157         0.000       
     407       87.9414         0.000       
     406       87.5100         0.000       
     405       86.9275         0.000       
     404       86.7172         0.000       
     403       86.6791         0.000       
     402       85.8671         0.000       
     401       85.3548         0.000       
     400       85.0019         0.000       
     399       84.7599         0.000       
     398       84.4596         0.000       
     397       84.3190         0.000       
     396       84.0273         0.000       
     395       83.5652         0.000       
     394       83.4261         0.000       
     393       83.0810         0.000       
     392       82.2902         0.000       
     391       82.1660         0.000       
     390       82.0738         0.000       
     389       81.4885         0.000       
     388       81.2379         0.000       
     387       80.9422         0.000       
     386       80.7193         0.000       
     385       80.4938         0.000       
     384       80.3151         0.000       
     383       80.1008         0.000       
     382       79.8023         0.000       
     381       79.4750         0.000       
     380       79.2066         0.000       
     379       78.8003         0.000       
     378       78.6454         0.000       
     377       78.2336         0.000       
     376       78.1070         0.000       
     375       77.8815         0.000       
     374       77.6209         0.000       
     373       77.1015         0.000       
     372       76.9498         0.000       
     371       76.9153         0.000       
     370       76.5704         0.000       
     369       76.3637         0.000       
     368       76.2618         0.000       
     367       75.9344         0.000       
     366       75.6279         0.000       
     365       75.5918         0.000       
     364       75.1107         0.000       
     363       74.8911         0.000       
     362       74.6047         0.000       
     361       74.1308         0.000       
     360       74.0188         0.000       
     359       73.8669         0.000       
     358       73.3482         0.000       
     357       73.2613         0.000       
     356       72.7650         0.000       
     355       72.6108         0.000       
     354       71.6292         0.000       
     353       70.9119         0.000       
     352       70.3962         0.000       
     351       70.1533         0.000       
     350       69.7634         0.000       
     349       69.5076         0.000       
     348       69.4213         0.000       
     347       68.5697         0.000       
     346       68.5049         0.000       
     345       67.9763         0.000       
     344       66.7443         0.000       
     343       66.5529         0.000       
     342       66.4064         0.000       
     341       66.1220         0.000       
     340       65.3745         0.000       
     339       64.9945         0.000       
     338       64.7689         0.000       
     337       64.6906         0.000       
     336       64.2087         0.000       
     335       64.1933         0.000       
     334       63.7314         0.000       
     333       63.1697         0.000       
     332       62.9131         0.000       
     331       62.4628         0.000       
     330       62.1741         0.000       
     329       61.7157         0.000       
     328       61.4391         0.000       
     327       61.4195         0.000       
     326       60.7819         0.000       
     325       60.2356         0.000       
     324       60.1784         0.000       
     323       59.5475         0.000       
     322       58.7262         0.000       
     321       58.5801         0.000       
     320       58.1646         0.000       
     319       57.9405         0.000       
     318       57.7237         0.000       
     317       57.0377         0.000       
     316       56.5398         0.000       
     315       56.2176         0.000       
     314       56.0806         0.000       
     313       55.7454         0.000       
     312       55.4304         0.000       
     311       55.1419         0.000       
     310       54.6904         0.000       
     309       54.2344         0.000       
     308       54.1552         0.000       
     307       53.9998         0.000       
     306       53.3651         0.000       
     305       53.1769         0.000       
     304       52.9735         0.000       
     303       52.9489         0.000       
     302       52.4191         0.000       
     301       52.0365         0.000       
     300       51.7615         0.000       
     299       51.4615         0.000       
     298       51.3085         0.000       
     297       50.8415         0.000       
     296       50.6659         0.000       
     295       50.4643         0.000       
     294       50.0356         0.000       
     293       49.7549         0.000       
     292       49.4309         0.000       
     291       49.1565         0.000       
     290       48.8992         0.000       
     289       48.5463         0.000       
     288       48.4859         0.000       
     287       48.0486         0.000       
     286       48.0084         0.000       
     285       47.3684         0.000       
     284       47.1015         0.000       
     283       46.9541         0.000       
     282       46.7588         0.000       
     281       46.4424         0.000       
     280       46.2628         0.000       
     279       45.5764         0.000       
     278       45.0535         0.000       
     277       44.8197         0.000       
     276       44.5246         0.000       
     275       44.1440         0.000       
     274       43.7883         0.000       
     273       43.2913         0.000       
     272       42.9669         0.000       
     271       42.8382         0.000       
     270       42.5717         0.000       
     269       42.2068         0.000       
     268       41.8904         0.000       
     267       41.7447         0.000       
     266       41.5376         0.000       
     265       40.7474         0.000       
     264       40.4965         0.000       
     263       40.2527         0.000       
     262       40.0038         0.000       
     261       39.8462         0.000       
     260       39.6545         0.000       
     259       39.4645         0.000       
     258       38.9912         0.000       
     257       38.6782         0.000       
     256       38.6237         0.000       
     255       38.3333         0.000       
     254       38.2615         0.000       
     253       37.7225         0.000       
     252       37.6894         0.000       
     251       37.3381         0.000       
     250       37.1630         0.000       
     249       36.9719         0.000       
     248       36.7908         0.000       
     247       36.6195         0.000       
     246       36.3603         0.000       
     245       35.8870         0.000       
     244       35.7552         0.000       
     243       35.4866         0.000       
     242       34.8866         0.000       
     241       34.7702         0.000       
     240       34.5104         0.000       
     239       34.2221         0.000       
     238       34.0030         0.000       
     237       33.8097         0.000       
     236       33.3719         0.000       
     235       33.3439         0.000       
     234       32.7411         0.000       
     233       32.6595         0.000       
     232       32.6058         0.000       
     231       31.9478         0.000       
     230       31.7239         0.000       
     229       31.2765         0.000       
     228       30.9774         0.000       
     227       30.8977         0.000       
     226       30.4178         0.000       
     225       30.1095         0.000       
     224       30.0054         0.000       
     223       29.9098         0.000       
     222       29.7269         0.000       
     221       29.5223         0.000       
     220       29.3384         0.000       
     219       29.2875         0.000       
     218       29.0543         0.000       
     217       28.6853         0.000       
     216       28.4747         0.000       
     215       28.2449         0.000       
     214       28.1737         0.000       
     213       28.0879         0.000       
     212       27.8431         0.000       
     211       27.5484         0.000       
     210       27.2208         0.000       
     209       26.9601         0.000       
     208       26.7386         0.000       
     207       26.4826         0.000       
     206       26.4602         0.000       
     205       26.2589         0.000       
     204       26.2115         0.000       
     203       25.6392         0.000       
     202       25.5023         0.000       
     201       25.2888         0.000       
     200       25.0015         0.000       
     199       24.7982         0.000       
     198       24.1661         0.000       
     197       24.0139         0.000       
     196       23.9215         0.000       
     195       23.3679         0.000       
     194       23.1847         0.000       
     193       23.1015         0.000       
     192       22.8603         0.000       
     191       22.6032         0.000       
     190       22.4644         0.000       
     189       22.0543         0.000       
     188       21.8685         0.000       
     187       21.5760         0.000       
     186       21.3466         0.000       
     185       21.1526         0.000       
     184       20.8402         0.000       
     183       20.6074         0.000       
     182       20.4073         0.000       
     181       20.1693         0.000       
     180       19.8159         0.000       
     179       19.4344         0.000       
     178       19.0646         0.000       
     177       18.7070         0.000       
     176       18.3300         0.000       
     175       17.9847         0.000       
     174       17.9015         0.000       
     173       17.6848         0.000       
     172       17.4537         0.000       
     171       17.0329         0.000       
     170       16.5198         0.000       
     169       16.2020         0.000       
     168       15.7371         0.000       
     167       15.6604         0.000       
     166       15.3506         0.000       
     165       15.0284         0.000       
     164       14.7224         0.000       
     163       14.5909         0.000       
     162       14.4787         0.000       
     161       14.2990         0.000       
     160       13.8741         0.000       
     159       13.6504         0.000       
     158       13.5501         0.000       
     157       13.2117         0.000       
     156       12.9881         0.000       
     155       12.7443         0.000       
     154       12.5695         0.000       
     153       12.2660         0.000       
     152       12.0515         0.000       
     151       11.9039         0.000       
     150       11.7914         0.000       
     149       11.7086         0.000       
     148       11.4754         0.000       
     147       11.2301         0.000       
     146       11.0606         0.000       
     145       10.9101         0.000       
     144       10.7760         0.000       
     143       10.6750         0.000       
     142       10.4880         0.000       
     141       10.2360         0.000       
     140       10.1230         0.000       
     139       10.0090         0.000       
     138        9.9114         0.000       
     137        9.6144         0.000       
     136        9.5447         0.000       
     135        9.4282         0.000       
     134        9.1682         0.000       
     133        9.0325         0.000       
     132        8.8960         0.000       
     131        8.8341         0.000       
     130        8.7094         0.000       
     129        8.5695         0.000       
     128        8.4073         0.000       
     127        8.2540         0.000       
     126        8.1524         0.000       
     125        7.8578         0.000       
     124        7.7125         0.000       
     123        7.6395         0.000       
     122        7.4191         0.000       
     121        7.3173         0.000       
     120        7.0543         0.000       
     119        6.8815         0.000       
     118        6.8053         0.000       
     117        6.4572         0.000       
     116        6.3528         0.000       
     115        6.2761         0.000       
     114        6.0956         0.000       
     113        5.9322         0.000       
     112        5.7120         0.000       
     111        5.5232         0.000       
     110        5.2839         0.000       
     109        5.2414         0.000       
     108        5.1468         0.000       
     107        5.0394         0.000       
     106        4.9665         0.000       
     105        4.7910         0.000       
     104        4.6833         0.000       
     103        4.4937         0.000       
     102        4.2959         0.000       
     101        4.1580         0.000       
     100        3.8820         0.000       
      99        3.8435         0.000       
      98        3.7267         0.000       
      97        3.3569         0.000       
      96        3.1177         0.000       
      95        3.0585         0.000       
      94        2.8978         0.000       
      93        2.7044         0.000       
      92        2.6027         0.000       
      91        2.2879         0.000       
      90        2.2140         0.000       
      89        1.9792         0.000       
      88        1.8592         0.000       
      87        1.6692         0.000       
      86        1.6398         0.000       
      85        1.3908         0.000       
      84        1.2850         0.000       
      83        1.1870         0.000       
      82        1.0654         0.000       
      81        0.9225         0.000       
      80        0.5451         0.000       
      79        0.4369         0.000       
      78        0.3779         0.000       
      77        0.0781         0.000       
      76       -0.1342         0.000       
      75       -0.1982         0.000       
      74       -0.3704         0.000       
      73       -0.7170         0.000       
      72       -1.1345         0.000       
      71       -1.6177         0.000       
      70       -1.9131         0.000       
      69       -2.5549         0.000 < LUMO
      68       -5.0512         2.000 < HOMO
      67       -5.6761         2.000       
      66       -5.8299         2.000       
      65       -6.2722         2.000       
      64       -6.3117         2.000       
      63       -6.5152         2.000       
      62       -6.7527         2.000       
      61       -8.2290         2.000       
      60       -8.4750         2.000       
      59       -8.5071         2.000       
      58       -8.5696         2.000       
      57       -8.7218         2.000       
      56       -8.9854         2.000       
      55       -9.1785         2.000       
      54       -9.3392         2.000       
      53       -9.4852         2.000       
      52       -9.7151         2.000       
      51       -9.8587         2.000       
      50      -10.2701         2.000       
      49      -10.4940         2.000       
      48      -10.6621         2.000       
      47      -10.7528         2.000       
      46      -10.7973         2.000       
      45      -11.0127         2.000       
      44      -11.0411         2.000       
      43      -11.3552         2.000       
      42      -11.4341         2.000       
      41      -11.6103         2.000       
      40      -12.0984         2.000       
      39      -12.3610         2.000       
      38      -12.9954         2.000       
      37      -13.3264         2.000       
      36      -13.9518         2.000       
      35      -14.7562         2.000       
      34      -14.9383         2.000       
      33      -15.5725         2.000       
      32      -15.6130         2.000       
      31      -17.3609         2.000       
      30      -17.9317         2.000       
      29      -18.0754         2.000       
      28      -18.4278         2.000       
      27      -18.8549         2.000       
      26      -19.3352         2.000       
      25      -19.9385         2.000       
      24      -21.3140         2.000       
      23      -22.1625         2.000       
      22      -22.7273         2.000       
      21      -24.9107         2.000       
      20      -25.5831         2.000       
      19     -270.1080         2.000       
      18     -270.1533         2.000       
      17     -270.1626         2.000       
      16     -270.1660         2.000       
      15     -270.2546         2.000       
      14     -270.5114         2.000       
      13     -270.6486         2.000       
      12     -270.6944         2.000       
      11     -270.7941         2.000       
      10     -270.9765         2.000       
       9     -271.0891         2.000       
       8     -271.2075         2.000       
       7     -271.5846         2.000       
       6     -271.6441         2.000       
       5     -272.4128         2.000       
       4     -381.2268         2.000       
       3     -382.0664         2.000       
       2     -383.8747         2.000       
       1     -510.2598         2.000       

AMS application finished. Exiting.
NORMAL TERMINATION
     Total cpu time:     320.29
  Total system time:       0.63
 Total elapsed time:     322.60
NORMAL TERMINATION
