
 *******************************************************************************
 *                                                                             *
 *  --------------------------------                                           *
 *   Amsterdam Modeling Suite (AMS)              2026.103                      *
 *  --------------------------------                                           *
 *                                               r260501 2026-05-01 873454b5   *
 *                                                                             *
 *                                                                             *
 *                              =================                              *
 *                              |               |                              *
 *                              |     A M S     |                              *
 *                              |               |                              *
 *                              =================                              *
 *                                                                             *
 *                                                                             *
 *   Online information and documentation:  https://www.scm.com/support/       *
 *   E-mail:  support@scm.com   info@scm.com                                   *
 *                                                                             *
 *   Scientific publications using AMS results must be properly referenced     *
 *   See the User Manuals (or the web site) for recommended citations          *
 *   The terms and conditions of the End User License Agreement apply to       *
 *   the use of AMS, https://www.scm.com/license-terms/                        *
 *                                                                             *
 **********************  x86_64_linux_intel / intelmpi  ************************
 
 Licensed to: Jong-June Jeon / University of Seoul 2026-05-13 16:10:32
 SCM User ID: u30731
  
 AMS 2026.103  RunTime: May30-2026 09:00:02  ShM Nodes: 1  Procs: 1

 AMS jobname: c3_eda
 AMS jobid  : 2137715470

 Start   directory: /gpfs/home1/yeseo1ee/projects/eda-asm-prediction/adf_outputs/batch_000/dipolar_000440/
 Results directory: /gpfs/home1/yeseo1ee/projects/eda-asm-prediction/adf_outputs/batch_000/dipolar_000440/c3_eda.results/
 Scratch directory: /tmp/amstmp_c3_eda_kid0.2137715470/

 RNG seed: -234059723 -1376002014 -27072087 40754081 -1571482986 1435240855 -1049661151 -450524475



                      ************************************************************************
                      *  ADF 2026.103  RunTime: May30-2026 09:00:02  ShM Nodes: 1  Procs: 1  *
                      ************************************************************************
  

       ****************************
       * SINGLE POINT CALCULATION *
       ****************************

--------
Geometry
--------
Formula: C16H14ClNO2
Atoms
  Index Symbol   x (angstrom)   y (angstrom)   z (angstrom)
      1      C     1.40061000     2.56458000     0.90150000 adf.f=fA
      2      O     1.67695000     1.81913000    -0.31125000 adf.f=fA
      3      C     0.65211000     1.31210000    -0.91099000 adf.f=fA
      4      C    -0.30214000     0.94817000    -1.60993000 adf.f=fA
      5     Cl    -1.35247000     1.27620000    -2.89377000 adf.f=fA
      6      H     2.37588000     2.86167000     1.30219000 adf.f=fA
      7      H     0.79557000     3.44911000     0.65460000 adf.f=fA
      8      H     0.86597000     1.92304000     1.61416000 adf.f=fA
      9      C    -1.20534000    -0.97349000    -0.66792000 adf.f=fB
     10      C    -2.20791000    -0.28216000     0.12134000 adf.f=fB
     11      C    -3.49318000    -0.19060000    -0.46179000 adf.f=fB
     12      C    -4.53143000     0.45388000     0.20460000 adf.f=fB
     13      C    -4.31207000     1.01127000     1.46998000 adf.f=fB
     14      C    -3.04574000     0.92130000     2.05958000 adf.f=fB
     15      C    -1.99376000     0.29376000     1.39434000 adf.f=fB
     16      O    -0.04347000    -1.42455000    -0.28829000 adf.f=fB
     17      N     0.65310000    -0.72356000     0.65521000 adf.f=fB
     18      C     1.94510000    -1.20803000     0.71689000 adf.f=fB
     19      C     2.79918000    -0.56952000     1.64914000 adf.f=fB
     20      C     4.13288000    -0.95213000     1.76916000 adf.f=fB
     21      C     4.65478000    -1.98340000     0.97766000 adf.f=fB
     22      C     3.81358000    -2.62725000     0.06072000 adf.f=fB
     23      C     2.47838000    -2.25232000    -0.07821000 adf.f=fB
     24      H    -1.54890000    -1.51315000    -1.55425000 adf.f=fB
     25      H    -3.66659000    -0.63612000    -1.44366000 adf.f=fB
     26      H    -5.51784000     0.51799000    -0.26008000 adf.f=fB
     27      H    -5.12647000     1.51599000     1.99481000 adf.f=fB
     28      H    -2.87256000     1.35613000     3.04676000 adf.f=fB
     29      H    -1.00272000     0.23992000     1.83683000 adf.f=fB
     30      H     2.39166000     0.22439000     2.27697000 adf.f=fB
     31      H     4.77255000    -0.44216000     2.49423000 adf.f=fB
     32      H     5.69999000    -2.28418000     1.07671000 adf.f=fB
     33      H     4.20562000    -3.43736000    -0.56028000 adf.f=fB
     34      H     1.83988000    -2.76312000    -0.79847000 adf.f=fB

Total System Charge              0.00000


----------------
ADF Engine Input
----------------
 
   Basis
     Type TZ2P
     Core None
   End
   XC
     GGA BLYP
     Dispersion GRIMME3 BJDAMP
   End
   Symmetry NOSYM
   NumericalQuality Normal
   Unrestricted No
   SCF
     Iterations 200
     Converge 1.0e-6
   End
   fragments
     fA c1_fragA_ts.results/adf.rkf
     fB c2_fragB_ts.results/adf.rkf
   end
   etsnocv
     enocv 0.05
     ekmin 0.5
   end
   print etslowdin
   Save TAPE21
 

 Title: *** (NO TITLE) ***

 *** adf ***



 ===========================
 A T T A C H E D   F I L E S
 ===========================
  



 ===============================
 M O D E L   P A R A M E T E R S
 ===============================
  
 DENSITY FUNCTIONAL POTENTIAL (scf)
    LDA:                               Exchange only                           == Not Default ==
    Gradient Corrections:              Becke88 LYP                             == Not Default ==

 SPIN  (restricted / unrestr.)
    Molecule:                          Restricted                               
    Fragments:                         Restricted                               

 OTHER ASPECTS
    Relativistic Corrections:          scalar (ZORA,MAPA)                       

    Nuclear Charge Density Model:      Point Charge Nuclei                      
    Core Treatment:                    Frozen Orbital(s)                        

    Hyperfine or Zeeman Interaction:   ---                                      

 Settings for Grimme D3 dispersion correction

      damping                        BJ
      s6                          1.000
      s8                          2.700
      a1                          0.430
      a2                          4.236

 Other (technical) parameters

      alpha                      14.000
      version                         4
 


 Fragment File(s)
 ----------------
 fA:
         file : c1_fragA_ts.results/adf.rkf
         jobid: 230481014
         title: *** adf ***
 fB:
         file : c2_fragB_ts.results/adf.rkf
         jobid: 2060986047
         title: *** adf ***



 ===============
 G E O M E T R Y  ***  3D  Molecule  ***
 ===============
  

 ATOMS
 =====                            X Y Z                    CHARGE
                                (Angstrom)             Nucl     +Core       At.Mass
                       --------------------------    ----------------       -------
    1  C               1.4006    2.5646    0.9015      6.00      6.00       12.0000
    2  O               1.6769    1.8191   -0.3113      8.00      8.00       15.9949
    3  C               0.6521    1.3121   -0.9110      6.00      6.00       12.0000
    4  C              -0.3021    0.9482   -1.6099      6.00      6.00       12.0000
    5  Cl             -1.3525    1.2762   -2.8938     17.00     17.00       34.9689
    6  H               2.3759    2.8617    1.3022      1.00      1.00        1.0078
    7  H               0.7956    3.4491    0.6546      1.00      1.00        1.0078
    8  H               0.8660    1.9230    1.6142      1.00      1.00        1.0078
    9  C              -1.2053   -0.9735   -0.6679      6.00      6.00       12.0000
   10  C              -2.2079   -0.2822    0.1213      6.00      6.00       12.0000
   11  C              -3.4932   -0.1906   -0.4618      6.00      6.00       12.0000
   12  C              -4.5314    0.4539    0.2046      6.00      6.00       12.0000
   13  C              -4.3121    1.0113    1.4700      6.00      6.00       12.0000
   14  C              -3.0457    0.9213    2.0596      6.00      6.00       12.0000
   15  C              -1.9938    0.2938    1.3943      6.00      6.00       12.0000
   16  O              -0.0435   -1.4245   -0.2883      8.00      8.00       15.9949
   17  N               0.6531   -0.7236    0.6552      7.00      7.00       14.0031
   18  C               1.9451   -1.2080    0.7169      6.00      6.00       12.0000
   19  C               2.7992   -0.5695    1.6491      6.00      6.00       12.0000
   20  C               4.1329   -0.9521    1.7692      6.00      6.00       12.0000
   21  C               4.6548   -1.9834    0.9777      6.00      6.00       12.0000
   22  C               3.8136   -2.6272    0.0607      6.00      6.00       12.0000
   23  C               2.4784   -2.2523   -0.0782      6.00      6.00       12.0000
   24  H              -1.5489   -1.5131   -1.5542      1.00      1.00        1.0078
   25  H              -3.6666   -0.6361   -1.4437      1.00      1.00        1.0078
   26  H              -5.5178    0.5180   -0.2601      1.00      1.00        1.0078
   27  H              -5.1265    1.5160    1.9948      1.00      1.00        1.0078
   28  H              -2.8726    1.3561    3.0468      1.00      1.00        1.0078
   29  H              -1.0027    0.2399    1.8368      1.00      1.00        1.0078
   30  H               2.3917    0.2244    2.2770      1.00      1.00        1.0078
   31  H               4.7725   -0.4422    2.4942      1.00      1.00        1.0078
   32  H               5.7000   -2.2842    1.0767      1.00      1.00        1.0078
   33  H               4.2056   -3.4374   -0.5603      1.00      1.00        1.0078
   34  H               1.8399   -2.7631   -0.7985      1.00      1.00        1.0078


 FRAGMENTS
 =========                                     Atoms in this Fragment     Cart. coord.s (Angstrom)
                                               -------------------------------------------------------
    1  fA                                                1  C            1.4006    2.5646    0.9015
                                                         3  C            0.6521    1.3121   -0.9110
                                                         4  C           -0.3021    0.9482   -1.6099
                                                         2  O            1.6769    1.8191   -0.3113
                                                         5  Cl          -1.3525    1.2762   -2.8938
                                                         6  H            2.3759    2.8617    1.3022
                                                         7  H            0.7956    3.4491    0.6546
                                                         8  H            0.8660    1.9230    1.6142
    2  fB                                                9  C           -1.2053   -0.9735   -0.6679
                                                        10  C           -2.2079   -0.2822    0.1213
                                                        11  C           -3.4932   -0.1906   -0.4618
                                                        12  C           -4.5314    0.4539    0.2046
                                                        13  C           -4.3121    1.0113    1.4700
                                                        14  C           -3.0457    0.9213    2.0596
                                                        15  C           -1.9938    0.2938    1.3943
                                                        18  C            1.9451   -1.2080    0.7169
                                                        19  C            2.7992   -0.5695    1.6491
                                                        20  C            4.1329   -0.9521    1.7692
                                                        21  C            4.6548   -1.9834    0.9777
                                                        22  C            3.8136   -2.6272    0.0607
                                                        23  C            2.4784   -2.2523   -0.0782
                                                        16  O           -0.0435   -1.4245   -0.2883
                                                        17  N            0.6531   -0.7236    0.6552
                                                        24  H           -1.5489   -1.5131   -1.5542
                                                        25  H           -3.6666   -0.6361   -1.4437
                                                        26  H           -5.5178    0.5180   -0.2601
                                                        27  H           -5.1265    1.5160    1.9948
                                                        28  H           -2.8726    1.3561    3.0468
                                                        29  H           -1.0027    0.2399    1.8368
                                                        30  H            2.3917    0.2244    2.2770
                                                        31  H            4.7725   -0.4422    2.4942
                                                        32  H            5.7000   -2.2842    1.0767
                                                        33  H            4.2056   -3.4374   -0.5603
                                                        34  H            1.8399   -2.7631   -0.7985



 =====================================
 S Y M M E T R Y ,   E L E C T R O N S
 =====================================
  
 Symmetry: NOSYM

 Irreducible Representations, including subspecies
 -------------------------------------------------
 A


 Configuration of Valence Electrons
 ==================================
 ( determined in the SCF procedure )

 Total:   150

 Net Charge: 0 (Nuclei minus Electrons)

 Aufbau principle for MO occupations will be applied through SCF cycle no.     100
 Thereafter, the program will assign electrons to MOs that are spatially
 similar to the occupied MOs in a "reference" cycle ("KeepOrbitals").
 The reference cycle is always the PREVIOUS cycle: it will evolve with
 the SCF procedure.
 ***************************************************************************************************



                                      ****************************************
                                      *  B U I L D : (Fragments, Functions)  *
                                      ****************************************
  

 The individual fragments are copies of the corresponding 'Master' fragments defined on the fragment files.
 However, they may have been rotated (and translated) with respect to the Master. The local coordinate axes
 of each fragment (which define for instance the spatial orientation in the current molecule of a fragment
 P:x orbital) are not necessarily those of the molecule.
 The local frame (if different from the molecular one) is printed to enable an interpretation of the expan-
 sion of an MO in Fragment Orbitals.



                                              ************************
                                              *  Fragment Type : fA  *
                                              ************************
  

 Fragment no.    1   (in the list of all fragments)
 -----------------
 The local coordinate frame is identical to the molecular frame.

 Check Atomic Coordinates:

                  Master (on file)          After Computed Tranformation               As specified on Input
           ----------------------------     ----------------------------     ---------------------------------
     1)     1.40061   2.56458   0.90150      1.40061   2.56458   0.90150       1   1.40061   2.56458   0.90150
     2)     0.65211   1.31210  -0.91099      0.65211   1.31210  -0.91099       3   0.65211   1.31210  -0.91099
     3)    -0.30214   0.94817  -1.60993     -0.30214   0.94817  -1.60993       4  -0.30214   0.94817  -1.60993
     4)     1.67695   1.81913  -0.31125      1.67695   1.81913  -0.31125       2   1.67695   1.81913  -0.31125
     5)    -1.35247   1.27620  -2.89377     -1.35247   1.27620  -2.89377       5  -1.35247   1.27620  -2.89377
     6)     2.37588   2.86167   1.30219      2.37588   2.86167   1.30219       6   2.37588   2.86167   1.30219
     7)     0.79557   3.44911   0.65460      0.79557   3.44911   0.65460       7   0.79557   3.44911   0.65460
     8)     0.86597   1.92304   1.61416      0.86597   1.92304   1.61416       8   0.86597   1.92304   1.61416



                                              ************************
                                              *  Fragment Type : fB  *
                                              ************************
  

 Fragment no.    2   (in the list of all fragments)
 -----------------
 The local coordinate frame is identical to the molecular frame.

 Check Atomic Coordinates:

                  Master (on file)          After Computed Tranformation               As specified on Input
           ----------------------------     ----------------------------     ---------------------------------
     1)    -1.20534  -0.97349  -0.66792     -1.20534  -0.97349  -0.66792       9  -1.20534  -0.97349  -0.66792
     2)    -2.20791  -0.28216   0.12134     -2.20791  -0.28216   0.12134      10  -2.20791  -0.28216   0.12134
     3)    -3.49318  -0.19060  -0.46179     -3.49318  -0.19060  -0.46179      11  -3.49318  -0.19060  -0.46179
     4)    -4.53143   0.45388   0.20460     -4.53143   0.45388   0.20460      12  -4.53143   0.45388   0.20460
     5)    -4.31207   1.01127   1.46998     -4.31207   1.01127   1.46998      13  -4.31207   1.01127   1.46998
     6)    -3.04574   0.92130   2.05958     -3.04574   0.92130   2.05958      14  -3.04574   0.92130   2.05958
     7)    -1.99376   0.29376   1.39434     -1.99376   0.29376   1.39434      15  -1.99376   0.29376   1.39434
     8)     1.94510  -1.20803   0.71689      1.94510  -1.20803   0.71689      18   1.94510  -1.20803   0.71689
     9)     2.79918  -0.56952   1.64914      2.79918  -0.56952   1.64914      19   2.79918  -0.56952   1.64914
    10)     4.13288  -0.95213   1.76916      4.13288  -0.95213   1.76916      20   4.13288  -0.95213   1.76916
    11)     4.65478  -1.98340   0.97766      4.65478  -1.98340   0.97766      21   4.65478  -1.98340   0.97766
    12)     3.81358  -2.62725   0.06072      3.81358  -2.62725   0.06072      22   3.81358  -2.62725   0.06072
    13)     2.47838  -2.25232  -0.07821      2.47838  -2.25232  -0.07821      23   2.47838  -2.25232  -0.07821
    14)    -0.04347  -1.42455  -0.28829     -0.04347  -1.42455  -0.28829      16  -0.04347  -1.42455  -0.28829
    15)     0.65310  -0.72356   0.65521      0.65310  -0.72356   0.65521      17   0.65310  -0.72356   0.65521
    16)    -1.54890  -1.51315  -1.55425     -1.54890  -1.51315  -1.55425      24  -1.54890  -1.51315  -1.55425
    17)    -3.66659  -0.63612  -1.44366     -3.66659  -0.63612  -1.44366      25  -3.66659  -0.63612  -1.44366
    18)    -5.51784   0.51799  -0.26008     -5.51784   0.51799  -0.26008      26  -5.51784   0.51799  -0.26008
    19)    -5.12647   1.51599   1.99481     -5.12647   1.51599   1.99481      27  -5.12647   1.51599   1.99481
    20)    -2.87256   1.35613   3.04676     -2.87256   1.35613   3.04676      28  -2.87256   1.35613   3.04676
    21)    -1.00272   0.23992   1.83683     -1.00272   0.23992   1.83683      29  -1.00272   0.23992   1.83683
    22)     2.39166   0.22439   2.27697      2.39166   0.22439   2.27697      30   2.39166   0.22439   2.27697
    23)     4.77255  -0.44216   2.49423      4.77255  -0.44216   2.49423      31   4.77255  -0.44216   2.49423
    24)     5.69999  -2.28418   1.07671      5.69999  -2.28418   1.07671      32   5.69999  -2.28418   1.07671
    25)     4.20562  -3.43736  -0.56028      4.20562  -3.43736  -0.56028      33   4.20562  -3.43736  -0.56028
    26)     1.83988  -2.76312  -0.79847      1.83988  -2.76312  -0.79847      34   1.83988  -2.76312  -0.79847



 =======
 S F O s  ***  (Symmetrized Fragment Orbitals)  ***
 =======
  
 SFOs are linear combinations of (valence) Fragment Orbitals (FOs), such that the SFOs transform as the
 irreducible representations of the (molecular) symmetry group. Each SFO is therefore characterized by
 an irrep of the molecule and by a few (or only one) generating FOs.
 The SFOs constitute a symmetry-adapted basis for the Fock matrix. The MO eigenvector coefficients in
 this basis provide a direct interpretation of the MOs in terms of Frontier Orbital Theory.

 The SFOs are combined with auxiliary Core Functions (CFs) to ensure orthogonalization on the (frozen)
 Core Orbitals (COs). The Core-orthogonalized SFOs (CSFOs) constitute the true Fock basis.

 The FOs, and hence also the (C)SFOs are combinations of the elementary basis functions (BAS). The basis
 functions that participate in the description of the SFOs depend on the irrep. The indices of the
 involved functions are printed below for each irrep.
 (The complete list of primitive basis functions is printed in another section)

 Total nr. of (C)SFOs (summation over all irreps) :   682

 NOTE: a (C)SFO that is defined as a combination of more than one FO is usually NOT normalized.



                                       === A ===
 Nr. of SFOs :  682
 Cartesian basis functions that participate in this irrep (total number =   776) :
      1     2     3     4     5     6     9    12     7    10
     13     8    11    14    15    16    17    18    19    20
     21    22    23    24    25    26    27    28    29    30
     31    32    33    34    35    36    39    42    37    40
     43    38    41    44    45    46    47    48    49    50
     51    52    53    54    55    56    57    58    59    60
     61    62    63    64    65    66    69    72    67    70
     73    68    71    74    75    76    77    78    79    80
     81    82    83    84    85    86    87    88    89    90
     91    92    93    94    95    96    99   102    97   100
    103    98   101   104   105   106   107   108   109   110
    111   112   113   114   115   116   117   118   119   120
    121   122   123   124   131   132   133   125   128   134
    137   140   126   129   135   138   141   127   130   136
    139   142   143   144   145   146   147   148   149   150
    151   152   153   154   155   156   157   158   159   160
    161   162   163   164   165   166   167   168   169   170
    171   172   173   174   175   176   177   178   179   180
    181   182   183   184   185   186   187   188   189   190
    191   192   193   194   195   196   197   198   199   200
    203   206   201   204   207   202   205   208   209   210
    211   212   213   214   215   216   217   218   219   220
    221   222   223   224   225   226   227   228   229   230
    233   236   231   234   237   232   235   238   239   240
    241   242   243   244   245   246   247   248   249   250
    251   252   253   254   255   256   257   258   259   260
    263   266   261   264   267   262   265   268   269   270
    271   272   273   274   275   276   277   278   279   280
    281   282   283   284   285   286   287   288   289   290
    293   296   291   294   297   292   295   298   299   300
    301   302   303   304   305   306   307   308   309   310
    311   312   313   314   315   316   317   318   319   320
    323   326   321   324   327   322   325   328   329   330
    331   332   333   334   335   336   337   338   339   340
    341   342   343   344   345   346   347   348   349   350
    353   356   351   354   357   352   355   358   359   360
    361   362   363   364   365   366   367   368   369   370
    371   372   373   374   375   376   377   378   379   380
    383   386   381   384   387   382   385   388   389   390
    391   392   393   394   395   396   397   398   399   400
    401   402   403   404   405   406   407   408   409   410
    413   416   411   414   417   412   415   418   419   420
    421   422   423   424   425   426   427   428   429   430
    431   432   433   434   435   436   437   438   439   440
    443   446   441   444   447   442   445   448   449   450
    451   452   453   454   455   456   457   458   459   460
    461   462   463   464   465   466   467   468   469   470
    473   476   471   474   477   472   475   478   479   480
    481   482   483   484   485   486   487   488   489   490
    491   492   493   494   495   496   497   498   499   500
    503   506   501   504   507   502   505   508   509   510
    511   512   513   514   515   516   517   518   519   520
    521   522   523   524   525   526   527   528   529   530
    533   536   531   534   537   532   535   538   539   540
    541   542   543   544   545   546   547   548   549   550
    551   552   553   554   555   556   557   558   559   560
    563   566   561   564   567   562   565   568   569   570
    571   572   573   574   575   576   577   578   579   580
    581   582   583   584   585   586   587   588   589   590
    593   596   591   594   597   592   595   598   599   600
    601   602   603   604   605   606   607   608   609   610
    611   612   613   614   615   616   617   618   619   620
    623   626   621   624   627   622   625   628   629   630
    631   632   633   634   635   636   637   638   639   640
    641   642   643   644   645   646   647   648   649   650
    651   652   653   654   655   656   657   658   659   660
    661   662   663   664   665   666   667   668   669   670
    671   672   673   674   675   676   677   678   679   680
    681   682   683   684   685   686   687   688   689   690
    691   692   693   694   695   696   697   698   699   700
    701   702   703   704   705   706   707   708   709   710
    711   712   713   714   715   716   717   718   719   720
    721   722   723   724   725   726   727   728   729   730
    731   732   733   734   735   736   737   738   739   740
    741   742   743   744   745   746   747   748   749   750
    751   752   753   754   755   756   757   758   759   760
    761   762   763   764   765   766   767   768   769   770
    771   772   773   774   775   776

    SFO  (index         Fragment          Generating    Expansion in Fragment Orbitals
  indx  incl.CFs)   Occup   Orb.Energy   FragmentType  Coeff.   Orbital     on Fragment
 --------------------------------------------------------------------------------------
     1       1      2.000    -101.107 au  fA            1.00      1 A               1
                        (   -2751.263 eV)
     2       2      2.000     -18.877 au  fA            1.00      2 A               1
                        (    -513.682 eV)
     3       3      2.000     -10.000 au  fA            1.00      3 A               1
                        (    -272.115 eV)
     4       4      2.000      -9.983 au  fA            1.00      4 A               1
                        (    -271.648 eV)
     5       5      2.000      -9.957 au  fA            1.00      5 A               1
                        (    -270.935 eV)
     6       6      2.000      -9.259 au  fA            1.00      6 A               1
                        (    -251.948 eV)
     7       7      2.000      -7.027 au  fA            1.00      7 A               1
                        (    -191.227 eV)
     8       8      2.000      -7.016 au  fA            1.00      8 A               1
                        (    -190.903 eV)
     9       9      2.000      -7.015 au  fA            1.00      9 A               1
                        (    -190.880 eV)
    10      10      2.000      -1.026 au  fA            1.00     10 A               1
                        (     -27.914 eV)
    11      11      2.000      -0.803 au  fA            1.00     11 A               1
                        (     -21.852 eV)
    12      12      2.000      -0.696 au  fA            1.00     12 A               1
                        (     -18.930 eV)
    13      13      2.000      -0.644 au  fA            1.00     13 A               1
                        (     -17.526 eV)
    14      14      2.000      -0.522 au  fA            1.00     14 A               1
                        (     -14.193 eV)
    15      15      2.000      -0.449 au  fA            1.00     15 A               1
                        (     -12.205 eV)
    16      16      2.000      -0.446 au  fA            1.00     16 A               1
                        (     -12.139 eV)
    17      17      2.000      -0.443 au  fA            1.00     17 A               1
                        (     -12.046 eV)
    18      18      2.000      -0.359 au  fA            1.00     18 A               1
                        (      -9.762 eV)
    19      19      2.000      -0.347 au  fA            1.00     19 A               1
                        (      -9.449 eV)
    20      20      2.000      -0.324 au  fA            1.00     20 A               1
                        (      -8.813 eV)
    21      21      2.000      -0.311 au  fA            1.00     21 A               1
                        (      -8.475 eV)
    22      22      2.000      -0.220 au  fA            1.00     22 A               1
                        (      -5.996 eV)
    23      23      2.000      -0.202 au  fA            1.00     23 A               1
                        (      -5.491 eV)
    24      24       --        -0.067 au  fA            1.00     24 A               1
                        (      -1.819 eV)
    25      25       --        -0.018 au  fA            1.00     25 A               1
                        (      -0.503 eV)
    26      26       --        -0.005 au  fA            1.00     26 A               1
                        (      -0.149 eV)
    27      27       --         0.029 au  fA            1.00     27 A               1
                        (       0.789 eV)
    28      28       --         0.036 au  fA            1.00     28 A               1
                        (       0.975 eV)
    29      29       --         0.038 au  fA            1.00     29 A               1
                        (       1.042 eV)
    30      30       --         0.065 au  fA            1.00     30 A               1
                        (       1.765 eV)
    31      31       --         0.091 au  fA            1.00     31 A               1
                        (       2.473 eV)
    32      32       --         0.133 au  fA            1.00     32 A               1
                        (       3.628 eV)
    33      33       --         0.139 au  fA            1.00     33 A               1
                        (       3.773 eV)
    34      34       --         0.141 au  fA            1.00     34 A               1
                        (       3.830 eV)
    35      35       --         0.168 au  fA            1.00     35 A               1
                        (       4.574 eV)
    36      36       --         0.191 au  fA            1.00     36 A               1
                        (       5.207 eV)
    37      37       --         0.209 au  fA            1.00     37 A               1
                        (       5.675 eV)
    38      38       --         0.244 au  fA            1.00     38 A               1
                        (       6.636 eV)
    39      39       --         0.252 au  fA            1.00     39 A               1
                        (       6.867 eV)
    40      40       --         0.270 au  fA            1.00     40 A               1
                        (       7.335 eV)
    41      41       --         0.295 au  fA            1.00     41 A               1
                        (       8.028 eV)
    42      42       --         0.314 au  fA            1.00     42 A               1
                        (       8.549 eV)
    43      43       --         0.323 au  fA            1.00     43 A               1
                        (       8.787 eV)
    44      44       --         0.333 au  fA            1.00     44 A               1
                        (       9.048 eV)
    45      45       --         0.354 au  fA            1.00     45 A               1
                        (       9.640 eV)
    46      46       --         0.373 au  fA            1.00     46 A               1
                        (      10.159 eV)
    47      47       --         0.402 au  fA            1.00     47 A               1
                        (      10.937 eV)
    48      48       --         0.405 au  fA            1.00     48 A               1
                        (      11.018 eV)
    49      49       --         0.417 au  fA            1.00     49 A               1
                        (      11.340 eV)
    50      50       --         0.455 au  fA            1.00     50 A               1
                        (      12.392 eV)
    51      51       --         0.491 au  fA            1.00     51 A               1
                        (      13.367 eV)
    52      52       --         0.525 au  fA            1.00     52 A               1
                        (      14.274 eV)
    53      53       --         0.579 au  fA            1.00     53 A               1
                        (      15.748 eV)
    54      54       --         0.645 au  fA            1.00     54 A               1
                        (      17.556 eV)
    55      55       --         0.683 au  fA            1.00     55 A               1
                        (      18.588 eV)
    56      56       --         0.710 au  fA            1.00     56 A               1
                        (      19.327 eV)
    57      57       --         0.741 au  fA            1.00     57 A               1
                        (      20.162 eV)
    58      58       --         0.776 au  fA            1.00     58 A               1
                        (      21.128 eV)
    59      59       --         0.797 au  fA            1.00     59 A               1
                        (      21.699 eV)
    60      60       --         0.829 au  fA            1.00     60 A               1
                        (      22.547 eV)
    61      61       --         0.916 au  fA            1.00     61 A               1
                        (      24.936 eV)
    62      62       --         0.929 au  fA            1.00     62 A               1
                        (      25.278 eV)
    63      63       --         0.970 au  fA            1.00     63 A               1
                        (      26.407 eV)
    64      64       --         0.987 au  fA            1.00     64 A               1
                        (      26.869 eV)
    65      65       --         1.010 au  fA            1.00     65 A               1
                        (      27.495 eV)
    66      66       --         1.039 au  fA            1.00     66 A               1
                        (      28.280 eV)
    67      67       --         1.042 au  fA            1.00     67 A               1
                        (      28.357 eV)
    68      68       --         1.081 au  fA            1.00     68 A               1
                        (      29.407 eV)
    69      69       --         1.119 au  fA            1.00     69 A               1
                        (      30.462 eV)
    70      70       --         1.201 au  fA            1.00     70 A               1
                        (      32.687 eV)
    71      71       --         1.209 au  fA            1.00     71 A               1
                        (      32.893 eV)
    72      72       --         1.214 au  fA            1.00     72 A               1
                        (      33.043 eV)
    73      73       --         1.216 au  fA            1.00     73 A               1
                        (      33.095 eV)
    74      74       --         1.255 au  fA            1.00     74 A               1
                        (      34.146 eV)
    75      75       --         1.283 au  fA            1.00     75 A               1
                        (      34.900 eV)
    76      76       --         1.328 au  fA            1.00     76 A               1
                        (      36.138 eV)
    77      77       --         1.370 au  fA            1.00     77 A               1
                        (      37.272 eV)
    78      78       --         1.406 au  fA            1.00     78 A               1
                        (      38.263 eV)
    79      79       --         1.436 au  fA            1.00     79 A               1
                        (      39.067 eV)
    80      80       --         1.485 au  fA            1.00     80 A               1
                        (      40.409 eV)
    81      81       --         1.516 au  fA            1.00     81 A               1
                        (      41.253 eV)
    82      82       --         1.624 au  fA            1.00     82 A               1
                        (      44.185 eV)
    83      83       --         1.723 au  fA            1.00     83 A               1
                        (      46.876 eV)
    84      84       --         1.735 au  fA            1.00     84 A               1
                        (      47.220 eV)
    85      85       --         1.767 au  fA            1.00     85 A               1
                        (      48.085 eV)
    86      86       --         1.772 au  fA            1.00     86 A               1
                        (      48.212 eV)
    87      87       --         1.823 au  fA            1.00     87 A               1
                        (      49.611 eV)
    88      88       --         1.849 au  fA            1.00     88 A               1
                        (      50.311 eV)
    89      89       --         1.905 au  fA            1.00     89 A               1
                        (      51.829 eV)
    90      90       --         2.019 au  fA            1.00     90 A               1
                        (      54.931 eV)
    91      91       --         2.035 au  fA            1.00     91 A               1
                        (      55.371 eV)
    92      92       --         2.071 au  fA            1.00     92 A               1
                        (      56.350 eV)
    93      93       --         2.079 au  fA            1.00     93 A               1
                        (      56.564 eV)
    94      94       --         2.116 au  fA            1.00     94 A               1
                        (      57.583 eV)
    95      95       --         2.121 au  fA            1.00     95 A               1
                        (      57.704 eV)
    96      96       --         2.255 au  fA            1.00     96 A               1
                        (      61.370 eV)
    97      97       --         2.334 au  fA            1.00     97 A               1
                        (      63.501 eV)
    98      98       --         2.409 au  fA            1.00     98 A               1
                        (      65.539 eV)
    99      99       --         2.452 au  fA            1.00     99 A               1
                        (      66.728 eV)
   100     100       --         2.490 au  fA            1.00    100 A               1
                        (      67.747 eV)
   101     101       --         2.594 au  fA            1.00    101 A               1
                        (      70.574 eV)
   102     102       --         2.618 au  fA            1.00    102 A               1
                        (      71.237 eV)
   103     103       --         2.736 au  fA            1.00    103 A               1
                        (      74.461 eV)
   104     104       --         2.771 au  fA            1.00    104 A               1
                        (      75.390 eV)
   105     105       --         2.792 au  fA            1.00    105 A               1
                        (      75.966 eV)
   106     106       --         2.794 au  fA            1.00    106 A               1
                        (      76.023 eV)
   107     107       --         2.851 au  fA            1.00    107 A               1
                        (      77.589 eV)
   108     108       --         2.891 au  fA            1.00    108 A               1
                        (      78.660 eV)
   109     109       --         2.915 au  fA            1.00    109 A               1
                        (      79.334 eV)
   110     110       --         2.993 au  fA            1.00    110 A               1
                        (      81.439 eV)
   111     111       --         3.028 au  fA            1.00    111 A               1
                        (      82.397 eV)
   112     112       --         3.137 au  fA            1.00    112 A               1
                        (      85.367 eV)
   113     113       --         3.145 au  fA            1.00    113 A               1
                        (      85.592 eV)
   114     114       --         3.216 au  fA            1.00    114 A               1
                        (      87.512 eV)
   115     115       --         3.256 au  fA            1.00    115 A               1
                        (      88.605 eV)
   116     116       --         3.377 au  fA            1.00    116 A               1
                        (      91.904 eV)
   117     117       --         3.402 au  fA            1.00    117 A               1
                        (      92.581 eV)
   118     118       --         3.453 au  fA            1.00    118 A               1
                        (      93.965 eV)
   119     119       --         3.525 au  fA            1.00    119 A               1
                        (      95.929 eV)
   120     120       --         3.602 au  fA            1.00    120 A               1
                        (      98.011 eV)
   121     121       --         3.637 au  fA            1.00    121 A               1
                        (      98.957 eV)
   122     122       --         3.773 au  fA            1.00    122 A               1
                        (     102.669 eV)
   123     123       --         3.842 au  fA            1.00    123 A               1
                        (     104.536 eV)
   124     124       --         3.869 au  fA            1.00    124 A               1
                        (     105.269 eV)
   125     125       --         3.964 au  fA            1.00    125 A               1
                        (     107.867 eV)
   126     126       --         4.004 au  fA            1.00    126 A               1
                        (     108.946 eV)
   127     127       --         4.077 au  fA            1.00    127 A               1
                        (     110.950 eV)
   128     128       --         4.115 au  fA            1.00    128 A               1
                        (     111.967 eV)
   129     129       --         4.281 au  fA            1.00    129 A               1
                        (     116.480 eV)
   130     130       --         4.325 au  fA            1.00    130 A               1
                        (     117.688 eV)
   131     131       --         4.377 au  fA            1.00    131 A               1
                        (     119.092 eV)
   132     132       --         4.425 au  fA            1.00    132 A               1
                        (     120.421 eV)
   133     133       --         4.455 au  fA            1.00    133 A               1
                        (     121.219 eV)
   134     134       --         4.514 au  fA            1.00    134 A               1
                        (     122.824 eV)
   135     135       --         4.639 au  fA            1.00    135 A               1
                        (     126.226 eV)
   136     136       --         4.679 au  fA            1.00    136 A               1
                        (     127.330 eV)
   137     137       --         4.752 au  fA            1.00    137 A               1
                        (     129.317 eV)
   138     138       --         4.765 au  fA            1.00    138 A               1
                        (     129.663 eV)
   139     139       --         4.912 au  fA            1.00    139 A               1
                        (     133.672 eV)
   140     140       --         5.229 au  fA            1.00    140 A               1
                        (     142.290 eV)
   141     141       --         5.268 au  fA            1.00    141 A               1
                        (     143.340 eV)
   142     142       --         5.404 au  fA            1.00    142 A               1
                        (     147.041 eV)
   143     143       --         5.479 au  fA            1.00    143 A               1
                        (     149.103 eV)
   144     144       --         5.581 au  fA            1.00    144 A               1
                        (     151.879 eV)
   145     145       --         5.623 au  fA            1.00    145 A               1
                        (     152.997 eV)
   146     146       --         5.700 au  fA            1.00    146 A               1
                        (     155.112 eV)
   147     147       --         5.885 au  fA            1.00    147 A               1
                        (     160.151 eV)
   148     148       --         6.063 au  fA            1.00    148 A               1
                        (     164.975 eV)
   149     149       --         6.368 au  fA            1.00    149 A               1
                        (     173.270 eV)
   150     150       --         6.440 au  fA            1.00    150 A               1
                        (     175.233 eV)
   151     151       --         6.515 au  fA            1.00    151 A               1
                        (     177.284 eV)
   152     152       --         6.539 au  fA            1.00    152 A               1
                        (     177.948 eV)
   153     153       --         6.855 au  fA            1.00    153 A               1
                        (     186.544 eV)
   154     154       --         7.030 au  fA            1.00    154 A               1
                        (     191.284 eV)
   155     155       --         7.135 au  fA            1.00    155 A               1
                        (     194.161 eV)
   156     156       --         7.261 au  fA            1.00    156 A               1
                        (     197.584 eV)
   157     157       --         7.591 au  fA            1.00    157 A               1
                        (     206.554 eV)
   158     158       --         7.646 au  fA            1.00    158 A               1
                        (     208.071 eV)
   159     159       --         8.295 au  fA            1.00    159 A               1
                        (     225.720 eV)
   160     160       --         9.146 au  fA            1.00    160 A               1
                        (     248.878 eV)
   161     161       --        10.208 au  fA            1.00    161 A               1
                        (     277.773 eV)
   162     162       --        13.850 au  fA            1.00    162 A               1
                        (     376.888 eV)
   163     163       --        16.371 au  fA            1.00    163 A               1
                        (     445.466 eV)
   164     164       --        18.924 au  fA            1.00    164 A               1
                        (     514.942 eV)
   165     165       --        18.948 au  fA            1.00    165 A               1
                        (     515.615 eV)
   166     166       --        19.519 au  fA            1.00    166 A               1
                        (     531.141 eV)
   167     167       --        53.928 au  fA            1.00    167 A               1
                        (    1467.455 eV)
   168     168       --        55.421 au  fA            1.00    168 A               1
                        (    1508.084 eV)
   169     169       --        57.626 au  fA            1.00    169 A               1
                        (    1568.070 eV)
   170     170       --       129.798 au  fA            1.00    170 A               1
                        (    3531.987 eV)
   171     171       --       209.721 au  fA            1.00    171 A               1
                        (    5706.806 eV)
   172     172      2.000     -18.913 au  fB            1.00      1 A               2
                        (    -514.648 eV)
   173     173      2.000     -14.056 au  fB            1.00      2 A               2
                        (    -382.490 eV)
   174     174      2.000     -10.003 au  fB            1.00      3 A               2
                        (    -272.192 eV)
   175     175      2.000      -9.955 au  fB            1.00      4 A               2
                        (    -270.894 eV)
   176     176      2.000      -9.952 au  fB            1.00      5 A               2
                        (    -270.801 eV)
   177     177      2.000      -9.943 au  fB            1.00      6 A               2
                        (    -270.561 eV)
   178     178      2.000      -9.939 au  fB            1.00      7 A               2
                        (    -270.445 eV)
   179     179      2.000      -9.938 au  fB            1.00      8 A               2
                        (    -270.428 eV)
   180     180      2.000      -9.936 au  fB            1.00      9 A               2
                        (    -270.360 eV)
   181     181      2.000      -9.933 au  fB            1.00     10 A               2
                        (    -270.282 eV)
   182     182      2.000      -9.921 au  fB            1.00     11 A               2
                        (    -269.976 eV)
   183     183      2.000      -9.921 au  fB            1.00     12 A               2
                        (    -269.953 eV)
   184     184      2.000      -9.919 au  fB            1.00     13 A               2
                        (    -269.907 eV)
   185     185      2.000      -9.918 au  fB            1.00     14 A               2
                        (    -269.874 eV)
   186     186      2.000      -9.916 au  fB            1.00     15 A               2
                        (    -269.841 eV)
   187     187      2.000      -1.068 au  fB            1.00     16 A               2
                        (     -29.074 eV)
   188     188      2.000      -0.815 au  fB            1.00     17 A               2
                        (     -22.190 eV)
   189     189      2.000      -0.790 au  fB            1.00     18 A               2
                        (     -21.502 eV)
   190     190      2.000      -0.754 au  fB            1.00     19 A               2
                        (     -20.505 eV)
   191     191      2.000      -0.706 au  fB            1.00     20 A               2
                        (     -19.200 eV)
   192     192      2.000      -0.686 au  fB            1.00     21 A               2
                        (     -18.666 eV)
   193     193      2.000      -0.669 au  fB            1.00     22 A               2
                        (     -18.217 eV)
   194     194      2.000      -0.657 au  fB            1.00     23 A               2
                        (     -17.877 eV)
   195     195      2.000      -0.598 au  fB            1.00     24 A               2
                        (     -16.264 eV)
   196     196      2.000      -0.561 au  fB            1.00     25 A               2
                        (     -15.277 eV)
   197     197      2.000      -0.560 au  fB            1.00     26 A               2
                        (     -15.231 eV)
   198     198      2.000      -0.537 au  fB            1.00     27 A               2
                        (     -14.605 eV)
   199     199      2.000      -0.512 au  fB            1.00     28 A               2
                        (     -13.928 eV)
   200     200      2.000      -0.491 au  fB            1.00     29 A               2
                        (     -13.348 eV)
   201     201      2.000      -0.467 au  fB            1.00     30 A               2
                        (     -12.696 eV)
   202     202      2.000      -0.454 au  fB            1.00     31 A               2
                        (     -12.355 eV)
   203     203      2.000      -0.438 au  fB            1.00     32 A               2
                        (     -11.922 eV)
   204     204      2.000      -0.433 au  fB            1.00     33 A               2
                        (     -11.780 eV)
   205     205      2.000      -0.412 au  fB            1.00     34 A               2
                        (     -11.214 eV)
   206     206      2.000      -0.405 au  fB            1.00     35 A               2
                        (     -11.022 eV)
   207     207      2.000      -0.394 au  fB            1.00     36 A               2
                        (     -10.721 eV)
   208     208      2.000      -0.386 au  fB            1.00     37 A               2
                        (     -10.509 eV)
   209     209      2.000      -0.380 au  fB            1.00     38 A               2
                        (     -10.333 eV)
   210     210      2.000      -0.371 au  fB            1.00     39 A               2
                        (     -10.082 eV)
   211     211      2.000      -0.364 au  fB            1.00     40 A               2
                        (      -9.900 eV)
   212     212      2.000      -0.346 au  fB            1.00     41 A               2
                        (      -9.412 eV)
   213     213      2.000      -0.329 au  fB            1.00     42 A               2
                        (      -8.964 eV)
   214     214      2.000      -0.328 au  fB            1.00     43 A               2
                        (      -8.913 eV)
   215     215      2.000      -0.315 au  fB            1.00     44 A               2
                        (      -8.559 eV)
   216     216      2.000      -0.313 au  fB            1.00     45 A               2
                        (      -8.519 eV)
   217     217      2.000      -0.300 au  fB            1.00     46 A               2
                        (      -8.150 eV)
   218     218      2.000      -0.269 au  fB            1.00     47 A               2
                        (      -7.307 eV)
   219     219      2.000      -0.248 au  fB            1.00     48 A               2
                        (      -6.750 eV)
   220     220      2.000      -0.241 au  fB            1.00     49 A               2
                        (      -6.570 eV)
   221     221      2.000      -0.237 au  fB            1.00     50 A               2
                        (      -6.448 eV)
   222     222      2.000      -0.224 au  fB            1.00     51 A               2
                        (      -6.089 eV)
   223     223      2.000      -0.166 au  fB            1.00     52 A               2
                        (      -4.516 eV)
   224     224       --        -0.122 au  fB            1.00     53 A               2
                        (      -3.326 eV)
   225     225       --        -0.054 au  fB            1.00     54 A               2
                        (      -1.456 eV)
   226     226       --        -0.036 au  fB            1.00     55 A               2
                        (      -0.988 eV)
   227     227       --        -0.028 au  fB            1.00     56 A               2
                        (      -0.751 eV)
   228     228       --        -0.012 au  fB            1.00     57 A               2
                        (      -0.334 eV)
   229     229       --        -0.009 au  fB            1.00     58 A               2
                        (      -0.245 eV)
   230     230       --         0.002 au  fB            1.00     59 A               2
                        (       0.043 eV)
   231     231       --         0.004 au  fB            1.00     60 A               2
                        (       0.122 eV)
   232     232       --         0.021 au  fB            1.00     61 A               2
                        (       0.561 eV)
   233     233       --         0.023 au  fB            1.00     62 A               2
                        (       0.616 eV)
   234     234       --         0.037 au  fB            1.00     63 A               2
                        (       1.012 eV)
   235     235       --         0.042 au  fB            1.00     64 A               2
                        (       1.137 eV)
   236     236       --         0.058 au  fB            1.00     65 A               2
                        (       1.581 eV)
   237     237       --         0.066 au  fB            1.00     66 A               2
                        (       1.790 eV)
   238     238       --         0.081 au  fB            1.00     67 A               2
                        (       2.217 eV)
   239     239       --         0.087 au  fB            1.00     68 A               2
                        (       2.358 eV)
   240     240       --         0.097 au  fB            1.00     69 A               2
                        (       2.648 eV)
   241     241       --         0.100 au  fB            1.00     70 A               2
                        (       2.734 eV)
   242     242       --         0.109 au  fB            1.00     71 A               2
                        (       2.974 eV)
   243     243       --         0.127 au  fB            1.00     72 A               2
                        (       3.455 eV)
   244     244       --         0.132 au  fB            1.00     73 A               2
                        (       3.586 eV)
   245     245       --         0.134 au  fB            1.00     74 A               2
                        (       3.639 eV)
   246     246       --         0.146 au  fB            1.00     75 A               2
                        (       3.975 eV)
   247     247       --         0.161 au  fB            1.00     76 A               2
                        (       4.375 eV)
   248     248       --         0.167 au  fB            1.00     77 A               2
                        (       4.545 eV)
   249     249       --         0.171 au  fB            1.00     78 A               2
                        (       4.649 eV)
   250     250       --         0.178 au  fB            1.00     79 A               2
                        (       4.840 eV)
   251     251       --         0.182 au  fB            1.00     80 A               2
                        (       4.956 eV)
   252     252       --         0.187 au  fB            1.00     81 A               2
                        (       5.089 eV)
   253     253       --         0.189 au  fB            1.00     82 A               2
                        (       5.156 eV)
   254     254       --         0.191 au  fB            1.00     83 A               2
                        (       5.200 eV)
   255     255       --         0.199 au  fB            1.00     84 A               2
                        (       5.407 eV)
   256     256       --         0.202 au  fB            1.00     85 A               2
                        (       5.502 eV)
   257     257       --         0.207 au  fB            1.00     86 A               2
                        (       5.629 eV)
   258     258       --         0.211 au  fB            1.00     87 A               2
                        (       5.737 eV)
   259     259       --         0.227 au  fB            1.00     88 A               2
                        (       6.190 eV)
   260     260       --         0.239 au  fB            1.00     89 A               2
                        (       6.512 eV)
   261     261       --         0.241 au  fB            1.00     90 A               2
                        (       6.564 eV)
   262     262       --         0.258 au  fB            1.00     91 A               2
                        (       7.027 eV)
   263     263       --         0.268 au  fB            1.00     92 A               2
                        (       7.289 eV)
   264     264       --         0.271 au  fB            1.00     93 A               2
                        (       7.361 eV)
   265     265       --         0.280 au  fB            1.00     94 A               2
                        (       7.607 eV)
   266     266       --         0.283 au  fB            1.00     95 A               2
                        (       7.693 eV)
   267     267       --         0.293 au  fB            1.00     96 A               2
                        (       7.985 eV)
   268     268       --         0.304 au  fB            1.00     97 A               2
                        (       8.265 eV)
   269     269       --         0.305 au  fB            1.00     98 A               2
                        (       8.310 eV)
   270     270       --         0.310 au  fB            1.00     99 A               2
                        (       8.432 eV)
   271     271       --         0.316 au  fB            1.00    100 A               2
                        (       8.591 eV)
   272     272       --         0.318 au  fB            1.00    101 A               2
                        (       8.652 eV)
   273     273       --         0.326 au  fB            1.00    102 A               2
                        (       8.868 eV)
   274     274       --         0.329 au  fB            1.00    103 A               2
                        (       8.955 eV)
   275     275       --         0.335 au  fB            1.00    104 A               2
                        (       9.109 eV)
   276     276       --         0.339 au  fB            1.00    105 A               2
                        (       9.237 eV)
   277     277       --         0.349 au  fB            1.00    106 A               2
                        (       9.493 eV)
   278     278       --         0.352 au  fB            1.00    107 A               2
                        (       9.576 eV)
   279     279       --         0.354 au  fB            1.00    108 A               2
                        (       9.633 eV)
   280     280       --         0.366 au  fB            1.00    109 A               2
                        (       9.953 eV)
   281     281       --         0.372 au  fB            1.00    110 A               2
                        (      10.125 eV)
   282     282       --         0.374 au  fB            1.00    111 A               2
                        (      10.170 eV)
   283     283       --         0.395 au  fB            1.00    112 A               2
                        (      10.754 eV)
   284     284       --         0.401 au  fB            1.00    113 A               2
                        (      10.913 eV)
   285     285       --         0.415 au  fB            1.00    114 A               2
                        (      11.285 eV)
   286     286       --         0.429 au  fB            1.00    115 A               2
                        (      11.674 eV)
   287     287       --         0.438 au  fB            1.00    116 A               2
                        (      11.929 eV)
   288     288       --         0.447 au  fB            1.00    117 A               2
                        (      12.168 eV)
   289     289       --         0.460 au  fB            1.00    118 A               2
                        (      12.510 eV)
   290     290       --         0.470 au  fB            1.00    119 A               2
                        (      12.793 eV)
   291     291       --         0.476 au  fB            1.00    120 A               2
                        (      12.954 eV)
   292     292       --         0.491 au  fB            1.00    121 A               2
                        (      13.356 eV)
   293     293       --         0.500 au  fB            1.00    122 A               2
                        (      13.608 eV)
   294     294       --         0.505 au  fB            1.00    123 A               2
                        (      13.733 eV)
   295     295       --         0.510 au  fB            1.00    124 A               2
                        (      13.868 eV)
   296     296       --         0.538 au  fB            1.00    125 A               2
                        (      14.630 eV)
   297     297       --         0.571 au  fB            1.00    126 A               2
                        (      15.524 eV)
   298     298       --         0.591 au  fB            1.00    127 A               2
                        (      16.081 eV)
   299     299       --         0.602 au  fB            1.00    128 A               2
                        (      16.385 eV)
   300     300       --         0.621 au  fB            1.00    129 A               2
                        (      16.894 eV)
   301     301       --         0.628 au  fB            1.00    130 A               2
                        (      17.084 eV)
   302     302       --         0.641 au  fB            1.00    131 A               2
                        (      17.445 eV)
   303     303       --         0.646 au  fB            1.00    132 A               2
                        (      17.569 eV)
   304     304       --         0.655 au  fB            1.00    133 A               2
                        (      17.832 eV)
   305     305       --         0.666 au  fB            1.00    134 A               2
                        (      18.117 eV)
   306     306       --         0.667 au  fB            1.00    135 A               2
                        (      18.157 eV)
   307     307       --         0.673 au  fB            1.00    136 A               2
                        (      18.319 eV)
   308     308       --         0.675 au  fB            1.00    137 A               2
                        (      18.381 eV)
   309     309       --         0.696 au  fB            1.00    138 A               2
                        (      18.945 eV)
   310     310       --         0.705 au  fB            1.00    139 A               2
                        (      19.178 eV)
   311     311       --         0.729 au  fB            1.00    140 A               2
                        (      19.832 eV)
   312     312       --         0.733 au  fB            1.00    141 A               2
                        (      19.955 eV)
   313     313       --         0.742 au  fB            1.00    142 A               2
                        (      20.192 eV)
   314     314       --         0.754 au  fB            1.00    143 A               2
                        (      20.528 eV)
   315     315       --         0.762 au  fB            1.00    144 A               2
                        (      20.734 eV)
   316     316       --         0.775 au  fB            1.00    145 A               2
                        (      21.075 eV)
   317     317       --         0.780 au  fB            1.00    146 A               2
                        (      21.236 eV)
   318     318       --         0.789 au  fB            1.00    147 A               2
                        (      21.480 eV)
   319     319       --         0.816 au  fB            1.00    148 A               2
                        (      22.201 eV)
   320     320       --         0.834 au  fB            1.00    149 A               2
                        (      22.693 eV)
   321     321       --         0.848 au  fB            1.00    150 A               2
                        (      23.072 eV)
   322     322       --         0.862 au  fB            1.00    151 A               2
                        (      23.458 eV)
   323     323       --         0.865 au  fB            1.00    152 A               2
                        (      23.525 eV)
   324     324       --         0.891 au  fB            1.00    153 A               2
                        (      24.232 eV)
   325     325       --         0.900 au  fB            1.00    154 A               2
                        (      24.485 eV)
   326     326       --         0.914 au  fB            1.00    155 A               2
                        (      24.882 eV)
   327     327       --         0.922 au  fB            1.00    156 A               2
                        (      25.076 eV)
   328     328       --         0.930 au  fB            1.00    157 A               2
                        (      25.295 eV)
   329     329       --         0.944 au  fB            1.00    158 A               2
                        (      25.692 eV)
   330     330       --         0.958 au  fB            1.00    159 A               2
                        (      26.058 eV)
   331     331       --         0.977 au  fB            1.00    160 A               2
                        (      26.588 eV)
   332     332       --         0.984 au  fB            1.00    161 A               2
                        (      26.769 eV)
   333     333       --         0.997 au  fB            1.00    162 A               2
                        (      27.117 eV)
   334     334       --         1.006 au  fB            1.00    163 A               2
                        (      27.364 eV)
   335     335       --         1.009 au  fB            1.00    164 A               2
                        (      27.449 eV)
   336     336       --         1.023 au  fB            1.00    165 A               2
                        (      27.830 eV)
   337     337       --         1.028 au  fB            1.00    166 A               2
                        (      27.969 eV)
   338     338       --         1.041 au  fB            1.00    167 A               2
                        (      28.330 eV)
   339     339       --         1.046 au  fB            1.00    168 A               2
                        (      28.468 eV)
   340     340       --         1.051 au  fB            1.00    169 A               2
                        (      28.612 eV)
   341     341       --         1.076 au  fB            1.00    170 A               2
                        (      29.274 eV)
   342     342       --         1.090 au  fB            1.00    171 A               2
                        (      29.655 eV)
   343     343       --         1.100 au  fB            1.00    172 A               2
                        (      29.933 eV)
   344     344       --         1.109 au  fB            1.00    173 A               2
                        (      30.178 eV)
   345     345       --         1.119 au  fB            1.00    174 A               2
                        (      30.447 eV)
   346     346       --         1.142 au  fB            1.00    175 A               2
                        (      31.085 eV)
   347     347       --         1.155 au  fB            1.00    176 A               2
                        (      31.420 eV)
   348     348       --         1.169 au  fB            1.00    177 A               2
                        (      31.800 eV)
   349     349       --         1.178 au  fB            1.00    178 A               2
                        (      32.061 eV)
   350     350       --         1.195 au  fB            1.00    179 A               2
                        (      32.506 eV)
   351     351       --         1.222 au  fB            1.00    180 A               2
                        (      33.263 eV)
   352     352       --         1.236 au  fB            1.00    181 A               2
                        (      33.640 eV)
   353     353       --         1.266 au  fB            1.00    182 A               2
                        (      34.445 eV)
   354     354       --         1.283 au  fB            1.00    183 A               2
                        (      34.910 eV)
   355     355       --         1.291 au  fB            1.00    184 A               2
                        (      35.120 eV)
   356     356       --         1.310 au  fB            1.00    185 A               2
                        (      35.646 eV)
   357     357       --         1.319 au  fB            1.00    186 A               2
                        (      35.903 eV)
   358     358       --         1.324 au  fB            1.00    187 A               2
                        (      36.035 eV)
   359     359       --         1.333 au  fB            1.00    188 A               2
                        (      36.280 eV)
   360     360       --         1.351 au  fB            1.00    189 A               2
                        (      36.753 eV)
   361     361       --         1.353 au  fB            1.00    190 A               2
                        (      36.806 eV)
   362     362       --         1.358 au  fB            1.00    191 A               2
                        (      36.941 eV)
   363     363       --         1.380 au  fB            1.00    192 A               2
                        (      37.553 eV)
   364     364       --         1.394 au  fB            1.00    193 A               2
                        (      37.920 eV)
   365     365       --         1.404 au  fB            1.00    194 A               2
                        (      38.203 eV)
   366     366       --         1.417 au  fB            1.00    195 A               2
                        (      38.550 eV)
   367     367       --         1.424 au  fB            1.00    196 A               2
                        (      38.754 eV)
   368     368       --         1.433 au  fB            1.00    197 A               2
                        (      38.996 eV)
   369     369       --         1.446 au  fB            1.00    198 A               2
                        (      39.351 eV)
   370     370       --         1.470 au  fB            1.00    199 A               2
                        (      39.999 eV)
   371     371       --         1.484 au  fB            1.00    200 A               2
                        (      40.376 eV)
   372     372       --         1.490 au  fB            1.00    201 A               2
                        (      40.541 eV)
   373     373       --         1.490 au  fB            1.00    202 A               2
                        (      40.558 eV)
   374     374       --         1.497 au  fB            1.00    203 A               2
                        (      40.741 eV)
   375     375       --         1.515 au  fB            1.00    204 A               2
                        (      41.222 eV)
   376     376       --         1.542 au  fB            1.00    205 A               2
                        (      41.970 eV)
   377     377       --         1.567 au  fB            1.00    206 A               2
                        (      42.641 eV)
   378     378       --         1.594 au  fB            1.00    207 A               2
                        (      43.379 eV)
   379     379       --         1.618 au  fB            1.00    208 A               2
                        (      44.023 eV)
   380     380       --         1.631 au  fB            1.00    209 A               2
                        (      44.372 eV)
   381     381       --         1.654 au  fB            1.00    210 A               2
                        (      45.000 eV)
   382     382       --         1.664 au  fB            1.00    211 A               2
                        (      45.277 eV)
   383     383       --         1.691 au  fB            1.00    212 A               2
                        (      46.023 eV)
   384     384       --         1.698 au  fB            1.00    213 A               2
                        (      46.194 eV)
   385     385       --         1.753 au  fB            1.00    214 A               2
                        (      47.688 eV)
   386     386       --         1.774 au  fB            1.00    215 A               2
                        (      48.274 eV)
   387     387       --         1.796 au  fB            1.00    216 A               2
                        (      48.869 eV)
   388     388       --         1.802 au  fB            1.00    217 A               2
                        (      49.030 eV)
   389     389       --         1.806 au  fB            1.00    218 A               2
                        (      49.153 eV)
   390     390       --         1.821 au  fB            1.00    219 A               2
                        (      49.553 eV)
   391     391       --         1.838 au  fB            1.00    220 A               2
                        (      50.023 eV)
   392     392       --         1.848 au  fB            1.00    221 A               2
                        (      50.277 eV)
   393     393       --         1.852 au  fB            1.00    222 A               2
                        (      50.385 eV)
   394     394       --         1.863 au  fB            1.00    223 A               2
                        (      50.694 eV)
   395     395       --         1.873 au  fB            1.00    224 A               2
                        (      50.975 eV)
   396     396       --         1.884 au  fB            1.00    225 A               2
                        (      51.260 eV)
   397     397       --         1.890 au  fB            1.00    226 A               2
                        (      51.419 eV)
   398     398       --         1.911 au  fB            1.00    227 A               2
                        (      52.002 eV)
   399     399       --         1.916 au  fB            1.00    228 A               2
                        (      52.128 eV)
   400     400       --         1.952 au  fB            1.00    229 A               2
                        (      53.123 eV)
   401     401       --         1.957 au  fB            1.00    230 A               2
                        (      53.263 eV)
   402     402       --         1.971 au  fB            1.00    231 A               2
                        (      53.639 eV)
   403     403       --         1.989 au  fB            1.00    232 A               2
                        (      54.123 eV)
   404     404       --         2.000 au  fB            1.00    233 A               2
                        (      54.417 eV)
   405     405       --         2.016 au  fB            1.00    234 A               2
                        (      54.855 eV)
   406     406       --         2.035 au  fB            1.00    235 A               2
                        (      55.381 eV)
   407     407       --         2.039 au  fB            1.00    236 A               2
                        (      55.480 eV)
   408     408       --         2.052 au  fB            1.00    237 A               2
                        (      55.826 eV)
   409     409       --         2.054 au  fB            1.00    238 A               2
                        (      55.901 eV)
   410     410       --         2.141 au  fB            1.00    239 A               2
                        (      58.266 eV)
   411     411       --         2.175 au  fB            1.00    240 A               2
                        (      59.188 eV)
[...]
     34      H   -0.2011


Dipole moment vector    (Debye):    -1.30733408    1.63929156    1.01742611
              magnitude (Debye):     2.33056969


-----------------------
Molecular orbitals info
-----------------------
n orbitals:              682
n spin:                    1

Note: only printing virtual orbitals with
      energy smaller than HOMO + 100. eV

HOMO (eV):              -4.5626
LUMO (eV):              -2.9657
HOMO-LUMO gap (eV):      1.5969

   Index   Energy (eV)    Occupation
     439       95.1100         0.000       
     438       94.7793         0.000       
     437       94.5783         0.000       
     436       94.5273         0.000       
     435       93.7502         0.000       
     434       93.4628         0.000       
     433       93.2061         0.000       
     432       92.8625         0.000       
     431       92.6017         0.000       
     430       92.5164         0.000       
     429       92.1636         0.000       
     428       91.6359         0.000       
     427       91.5315         0.000       
     426       91.1998         0.000       
     425       90.8163         0.000       
     424       90.6709         0.000       
     423       90.1716         0.000       
     422       89.3436         0.000       
     421       89.1090         0.000       
     420       88.6381         0.000       
     419       88.0787         0.000       
     418       87.9261         0.000       
     417       87.5200         0.000       
     416       87.3299         0.000       
     415       87.0440         0.000       
     414       86.8278         0.000       
     413       86.7426         0.000       
     412       86.4790         0.000       
     411       86.1206         0.000       
     410       85.8784         0.000       
     409       85.3864         0.000       
     408       85.1620         0.000       
     407       84.7357         0.000       
     406       84.5099         0.000       
     405       84.0300         0.000       
     404       83.4215         0.000       
     403       82.8745         0.000       
     402       82.7037         0.000       
     401       82.6664         0.000       
     400       82.3891         0.000       
     399       82.2151         0.000       
     398       81.4488         0.000       
     397       81.2801         0.000       
     396       81.0188         0.000       
     395       80.5503         0.000       
     394       80.3506         0.000       
     393       80.1991         0.000       
     392       79.8592         0.000       
     391       79.5370         0.000       
     390       79.3433         0.000       
     389       78.8999         0.000       
     388       78.5193         0.000       
     387       78.0060         0.000       
     386       77.8129         0.000       
     385       77.4744         0.000       
     384       77.3263         0.000       
     383       76.7335         0.000       
     382       76.3526         0.000       
     381       76.0164         0.000       
     380       75.8447         0.000       
     379       75.5538         0.000       
     378       74.9936         0.000       
     377       74.8947         0.000       
     376       74.5987         0.000       
     375       74.2919         0.000       
     374       74.0084         0.000       
     373       73.6155         0.000       
     372       73.4326         0.000       
     371       73.3054         0.000       
     370       72.6430         0.000       
     369       72.4933         0.000       
     368       72.1186         0.000       
     367       71.9616         0.000       
     366       71.4121         0.000       
     365       71.0249         0.000       
     364       70.9635         0.000       
     363       70.6156         0.000       
     362       69.9030         0.000       
     361       69.6481         0.000       
     360       68.8048         0.000       
     359       68.5820         0.000       
     358       68.3326         0.000       
     357       68.1841         0.000       
     356       67.3721         0.000       
     355       67.2556         0.000       
     354       66.7686         0.000       
     353       66.3411         0.000       
     352       66.1892         0.000       
     351       65.2886         0.000       
     350       65.0090         0.000       
     349       64.8829         0.000       
     348       64.5856         0.000       
     347       64.4253         0.000       
     346       64.3173         0.000       
     345       63.8812         0.000       
     344       63.5488         0.000       
     343       63.2949         0.000       
     342       62.9732         0.000       
     341       62.5361         0.000       
     340       62.4443         0.000       
     339       62.2290         0.000       
     338       61.5575         0.000       
     337       61.4598         0.000       
     336       61.2061         0.000       
     335       60.9795         0.000       
     334       60.5410         0.000       
     333       60.5063         0.000       
     332       60.0330         0.000       
     331       59.0875         0.000       
     330       58.5897         0.000       
     329       58.0754         0.000       
     328       57.6880         0.000       
     327       57.1466         0.000       
     326       56.7449         0.000       
     325       56.3223         0.000       
     324       56.2020         0.000       
     323       55.9125         0.000       
     322       55.8193         0.000       
     321       55.4605         0.000       
     320       55.2652         0.000       
     319       54.6255         0.000       
     318       54.2318         0.000       
     317       53.9058         0.000       
     316       53.4141         0.000       
     315       53.1755         0.000       
     314       52.7475         0.000       
     313       52.4390         0.000       
     312       52.0903         0.000       
     311       51.7855         0.000       
     310       51.5656         0.000       
     309       51.1771         0.000       
     308       51.0918         0.000       
     307       50.9190         0.000       
     306       50.5635         0.000       
     305       50.4559         0.000       
     304       50.3831         0.000       
     303       50.1481         0.000       
     302       49.9750         0.000       
     301       49.6011         0.000       
     300       49.2128         0.000       
     299       49.1542         0.000       
     298       49.0297         0.000       
     297       48.9487         0.000       
     296       48.0767         0.000       
     295       47.5249         0.000       
     294       47.4256         0.000       
     293       46.7325         0.000       
     292       46.1978         0.000       
     291       45.7586         0.000       
     290       45.4450         0.000       
     289       45.0354         0.000       
     288       44.6414         0.000       
     287       44.4382         0.000       
     286       44.1697         0.000       
     285       43.7736         0.000       
     284       43.1743         0.000       
     283       42.5728         0.000       
     282       41.8314         0.000       
     281       41.6470         0.000       
     280       41.3544         0.000       
     279       41.1327         0.000       
     278       40.8636         0.000       
     277       40.7911         0.000       
     276       40.3543         0.000       
     275       40.1626         0.000       
     274       39.6988         0.000       
     273       39.5114         0.000       
     272       39.3998         0.000       
     271       39.0613         0.000       
     270       38.9842         0.000       
     269       38.5517         0.000       
     268       38.4898         0.000       
     267       38.3594         0.000       
     266       38.1195         0.000       
     265       38.0411         0.000       
     264       37.3203         0.000       
     263       37.0305         0.000       
     262       36.6701         0.000       
     261       36.3692         0.000       
     260       36.2771         0.000       
     259       36.1941         0.000       
     258       35.9476         0.000       
     257       35.8929         0.000       
     256       35.7321         0.000       
     255       35.5075         0.000       
     254       35.3216         0.000       
     253       35.0106         0.000       
     252       34.8747         0.000       
     251       34.5243         0.000       
     250       34.2373         0.000       
     249       34.0575         0.000       
     248       33.6618         0.000       
     247       33.5162         0.000       
     246       33.0032         0.000       
     245       32.7298         0.000       
     244       32.3848         0.000       
     243       32.2738         0.000       
     242       32.1677         0.000       
     241       31.9076         0.000       
     240       31.6072         0.000       
     239       31.3418         0.000       
     238       31.2457         0.000       
     237       30.7132         0.000       
     236       30.6126         0.000       
     235       30.5283         0.000       
     234       30.0257         0.000       
     233       29.8611         0.000       
     232       29.6172         0.000       
     231       29.4330         0.000       
     230       28.9972         0.000       
     229       28.7915         0.000       
     228       28.6325         0.000       
     227       28.3917         0.000       
     226       28.1944         0.000       
     225       28.1457         0.000       
     224       27.8716         0.000       
     223       27.6689         0.000       
     222       27.4450         0.000       
     221       27.1817         0.000       
     220       26.7451         0.000       
     219       26.4860         0.000       
     218       26.3447         0.000       
     217       26.2119         0.000       
     216       25.9110         0.000       
     215       25.5626         0.000       
     214       25.3762         0.000       
     213       25.1863         0.000       
     212       25.0146         0.000       
     211       24.8108         0.000       
     210       24.3194         0.000       
     209       24.0333         0.000       
     208       23.5195         0.000       
     207       23.3155         0.000       
     206       23.2371         0.000       
     205       23.0554         0.000       
     204       22.8924         0.000       
     203       22.5404         0.000       
     202       22.2773         0.000       
     201       21.9783         0.000       
     200       21.6771         0.000       
     199       21.5150         0.000       
     198       21.2036         0.000       
     197       21.0890         0.000       
     196       20.6688         0.000       
     195       20.4442         0.000       
     194       20.2937         0.000       
     193       20.1893         0.000       
     192       19.9170         0.000       
     191       19.7632         0.000       
     190       19.5730         0.000       
     189       19.1920         0.000       
     188       19.1041         0.000       
     187       18.7990         0.000       
     186       18.6003         0.000       
     185       18.2758         0.000       
     184       18.0976         0.000       
     183       18.0009         0.000       
     182       17.9456         0.000       
     181       17.5112         0.000       
     180       17.4459         0.000       
     179       17.3764         0.000       
     178       17.1607         0.000       
     177       16.8907         0.000       
     176       16.0952         0.000       
     175       15.6180         0.000       
     174       15.3639         0.000       
     173       15.2459         0.000       
     172       14.9591         0.000       
     171       14.6641         0.000       
     170       14.5776         0.000       
     169       13.9191         0.000       
     168       13.8402         0.000       
     167       13.6582         0.000       
     166       13.5479         0.000       
     165       13.2120         0.000       
     164       13.1583         0.000       
     163       12.8197         0.000       
     162       12.6082         0.000       
     161       12.1316         0.000       
     160       11.9259         0.000       
     159       11.6179         0.000       
     158       11.5356         0.000       
     157       11.3301         0.000       
     156       11.1817         0.000       
     155       11.0993         0.000       
     154       10.8610         0.000       
     153       10.6240         0.000       
     152       10.5103         0.000       
     151       10.3218         0.000       
     150       10.2713         0.000       
     149       10.1841         0.000       
     148        9.8975         0.000       
     147        9.7180         0.000       
     146        9.6380         0.000       
     145        9.5517         0.000       
     144        9.4040         0.000       
     143        9.3140         0.000       
     142        9.1385         0.000       
     141        9.0546         0.000       
     140        8.9688         0.000       
     139        8.8816         0.000       
     138        8.6464         0.000       
     137        8.5249         0.000       
     136        8.4553         0.000       
     135        8.3071         0.000       
     134        8.2851         0.000       
     133        8.1259         0.000       
     132        7.9180         0.000       
     131        7.8828         0.000       
     130        7.7107         0.000       
     129        7.4774         0.000       
     128        7.4151         0.000       
     127        7.3539         0.000       
     126        6.9305         0.000       
     125        6.9092         0.000       
     124        6.6754         0.000       
     123        6.6344         0.000       
     122        6.3145         0.000       
     121        6.0073         0.000       
     120        5.9039         0.000       
     119        5.7252         0.000       
     118        5.5921         0.000       
     117        5.4509         0.000       
     116        5.3999         0.000       
     115        5.2914         0.000       
     114        5.1284         0.000       
     113        5.0313         0.000       
     112        5.0043         0.000       
     111        4.9377         0.000       
     110        4.7947         0.000       
     109        4.7156         0.000       
     108        4.4292         0.000       
     107        4.3256         0.000       
     106        4.0874         0.000       
     105        3.8208         0.000       
     104        3.5729         0.000       
     103        3.3227         0.000       
     102        3.1490         0.000       
     101        3.0685         0.000       
     100        2.8936         0.000       
      99        2.6867         0.000       
      98        2.6488         0.000       
      97        2.5167         0.000       
      96        2.3145         0.000       
      95        1.8598         0.000       
      94        1.8524         0.000       
      93        1.6453         0.000       
      92        1.3792         0.000       
      91        1.1466         0.000       
      90        1.0085         0.000       
      89        0.9460         0.000       
      88        0.5996         0.000       
      87        0.5549         0.000       
      86        0.3206         0.000       
      85        0.1519         0.000       
      84        0.0137         0.000       
      83       -0.1112         0.000       
      82       -0.2225         0.000       
      81       -0.4324         0.000       
      80       -0.5199         0.000       
      79       -0.9832         0.000       
      78       -1.3449         0.000       
      77       -1.5173         0.000       
      76       -2.9657         0.000 < LUMO
      75       -4.5626         2.000 < HOMO
      74       -5.5237         2.000       
      73       -5.9540         2.000       
      72       -6.0872         2.000       
      71       -6.4044         2.000       
      70       -6.4938         2.000       
      69       -6.7086         2.000       
      68       -7.2379         2.000       
      67       -8.1350         2.000       
      66       -8.4072         2.000       
      65       -8.4964         2.000       
      64       -8.5095         2.000       
      63       -8.7579         2.000       
      62       -8.8822         2.000       
      61       -8.9614         2.000       
      60       -9.2379         2.000       
      59       -9.4451         2.000       
      58       -9.6428         2.000       
      57       -9.8350         2.000       
      56      -10.0684         2.000       
      55      -10.3019         2.000       
      54      -10.4409         2.000       
      53      -10.6769         2.000       
      52      -10.9387         2.000       
      51      -11.1303         2.000       
      50      -11.5286         2.000       
      49      -11.8634         2.000       
      48      -12.0031         2.000       
      47      -12.0973         2.000       
      46      -12.1484         2.000       
      45      -12.3440         2.000       
      44      -12.6022         2.000       
      43      -13.2970         2.000       
      42      -13.8751         2.000       
      41      -14.0436         2.000       
      40      -14.5907         2.000       
      39      -15.1340         2.000       
      38      -15.2141         2.000       
      37      -16.2165         2.000       
      36      -17.6155         2.000       
      35      -17.8158         2.000       
      34      -18.2118         2.000       
      33      -18.5725         2.000       
      32      -18.8585         2.000       
      31      -19.1289         2.000       
      30      -20.4657         2.000       
      29      -21.3904         2.000       
      28      -21.9071         2.000       
      27      -22.1454         2.000       
      26      -27.7191         2.000       
      25      -28.7888         2.000       
      24     -190.8310         2.000       
      23     -190.8543         2.000       
      22     -191.1645         2.000       
      21     -251.8959         2.000       
      20     -269.8264         2.000       
      19     -269.8382         2.000       
      18     -269.9296         2.000       
      17     -269.9472         2.000       
      16     -269.9660         2.000       
      15     -270.2027         2.000       
      14     -270.2828         2.000       
      13     -270.3091         2.000       
      12     -270.3344         2.000       
      11     -270.4104         2.000       
      10     -270.7157         2.000       
       9     -270.7612         2.000       
       8     -271.0202         2.000       
       7     -271.7274         2.000       
       6     -271.9209         2.000       
       5     -272.3361         2.000       
       4     -382.4851         2.000       
       3     -513.4384         2.000       
       2     -514.0489         2.000       
       1    -2751.1946         2.000       

AMS application finished. Exiting.
NORMAL TERMINATION
     Total cpu time:     385.36
  Total system time:       1.81
 Total elapsed time:     389.30
NORMAL TERMINATION
