srun: Job 662829 step creation temporarily disabled, retrying (Requested nodes are busy)
srun: Job 662829 step creation still disabled, retrying (Requested nodes are busy)
srun: Job 662829 step creation still disabled, retrying (Requested nodes are busy)
srun: Job 662829 step creation still disabled, retrying (Requested nodes are busy)
srun: Job 662829 step creation still disabled, retrying (Requested nodes are busy)
srun: Job 662829 step creation still disabled, retrying (Requested nodes are busy)
srun: Job 662829 step creation still disabled, retrying (Requested nodes are busy)
srun: Job 662829 step creation still disabled, retrying (Requested nodes are busy)
srun: Job 662829 step creation still disabled, retrying (Requested nodes are busy)
srun: Job 662829 step creation still disabled, retrying (Requested nodes are busy)
srun: Job 662829 step creation still disabled, retrying (Requested nodes are busy)
srun: Step created for StepId=662829.104

 *******************************************************************************
 *                                                                             *
 *  --------------------------------                                           *
 *   Amsterdam Modeling Suite (AMS)              2026.103                      *
 *  --------------------------------                                           *
 *                                               r260501 2026-05-01 873454b5   *
 *                                                                             *
 *                                                                             *
 *                              =================                              *
 *                              |               |                              *
 *                              |     A M S     |                              *
 *                              |               |                              *
 *                              =================                              *
 *                                                                             *
 *                                                                             *
 *   Online information and documentation:  https://www.scm.com/support/       *
 *   E-mail:  support@scm.com   info@scm.com                                   *
 *                                                                             *
 *   Scientific publications using AMS results must be properly referenced     *
 *   See the User Manuals (or the web site) for recommended citations          *
 *   The terms and conditions of the End User License Agreement apply to       *
 *   the use of AMS, https://www.scm.com/license-terms/                        *
 *                                                                             *
 **********************  x86_64_linux_intel / intelmpi  ************************
 
 Licensed to: Jong-June Jeon / University of Seoul 2026-06-02 13:44:15
 SCM User ID: u30731
  
 AMS 2026.103  RunTime: Jun04-2026 00:24:13  ShM Nodes: 1  Procs: 1

 AMS jobname: c2_fragB_ts
 AMS jobid  : 1984594692

 Start   directory: /gpfs/home1/yeseo1ee/projects/eda-asm-prediction/ADF_800/adf_outputs/batch_004/qmrxn20_e2_C_E_B_A_C_B/
 Results directory: /gpfs/home1/yeseo1ee/projects/eda-asm-prediction/ADF_800/adf_outputs/batch_004/qmrxn20_e2_C_E_B_A_C_B/c2_fragB_ts.results/
 Scratch directory: /tmp/amstmp_c2_fragB_ts_kid0.1984594692/

 RNG seed: 1476193098 503060519 268218719 -128233149 1312163844 -240531151 -595515993 -113685386



                      ************************************************************************
                      *  ADF 2026.103  RunTime: Jun04-2026 00:24:14  ShM Nodes: 1  Procs: 1  *
                      ************************************************************************
  

       ****************************
       * SINGLE POINT CALCULATION *
       ****************************

--------
Geometry
--------
Formula: C3H3BrN3O2
Atoms
  Index Symbol   x (angstrom)   y (angstrom)   z (angstrom)
      1      C    -0.23665970     0.07506615    -0.39368459
      2      C    -0.11664602    -0.04947647     1.10681377
      3     Br     1.57571015     0.27329683    -1.26938599
      4      H     0.33804678    -0.98289068     1.43146225
      5      N    -1.08408110     1.12677395    -0.90646177
      6      H    -0.67556143     1.99231195    -0.56780664
      7      H    -1.94672512     0.99711916    -0.36046760
      8      N     0.59051488     1.03276142     1.75266798
      9      O     1.18424977     0.77997828     2.80713121
     10      O     0.52859373     2.17143229     1.26838422
     11      C    -0.72938368    -1.22013058    -0.88345918
     12      N    -1.11335012    -2.27183621    -1.23964500

Total System Charge              0.00000


----------------
ADF Engine Input
----------------
 
   Basis
     Type TZ2P
     Core None
   End
   XC
     GGA BLYP
     Dispersion GRIMME3 BJDAMP
   End
   Symmetry NOSYM
   NumericalQuality Normal
   Unrestricted No
   SCF
     Iterations 200
     Converge 1.0e-6
   End
   Save TAPE21
 

 Title: *** (NO TITLE) ***

 *** adf ***



 ===========================
 A T T A C H E D   F I L E S
 ===========================
  



 ===============================
 M O D E L   P A R A M E T E R S
 ===============================
  
 DENSITY FUNCTIONAL POTENTIAL (scf)
    LDA:                               Exchange only                           == Not Default ==
    Gradient Corrections:              Becke88 LYP                             == Not Default ==

 SPIN  (restricted / unrestr.)
    Molecule:                          Restricted                               
    Fragments:                         Restricted                               

 OTHER ASPECTS
    Relativistic Corrections:          scalar (ZORA,MAPA)                       

    Nuclear Charge Density Model:      Point Charge Nuclei                      
    Core Treatment:                    Frozen Orbital(s)                        

    Hyperfine or Zeeman Interaction:   ---                                      

 Settings for Grimme D3 dispersion correction

      damping                        BJ
      s6                          1.000
      s8                          2.700
      a1                          0.430
      a2                          4.236

 Other (technical) parameters

      alpha                      14.000
      version                         4
 


 Fragment File(s)
 ----------------
 C:
         file : /gpfs/home1/yeseo1ee/projects/eda-asm-prediction/ADF_800/adf_outputs/batch_004/qmrxn20_e2_C_E_B_A_C_B/c2_fragB_ts.results/t21.50BA88D5.C
         jobid: 0
         title: Carbon (TZ2P)
 Br:
         file : /gpfs/home1/yeseo1ee/projects/eda-asm-prediction/ADF_800/adf_outputs/batch_004/qmrxn20_e2_C_E_B_A_C_B/c2_fragB_ts.results/t21.42F58B50.Br
         jobid: 0
         title: Bromine (TZ2P)
 H:
         file : /gpfs/home1/yeseo1ee/projects/eda-asm-prediction/ADF_800/adf_outputs/batch_004/qmrxn20_e2_C_E_B_A_C_B/c2_fragB_ts.results/t21.6F35CCAB.H
         jobid: 0
         title: Hydrogen (TZ2P)
 N:
         file : /gpfs/home1/yeseo1ee/projects/eda-asm-prediction/ADF_800/adf_outputs/batch_004/qmrxn20_e2_C_E_B_A_C_B/c2_fragB_ts.results/t21.44EAA48D.N
         jobid: 0
         title: Nitrogen (TZ2P)
 O:
         file : /gpfs/home1/yeseo1ee/projects/eda-asm-prediction/ADF_800/adf_outputs/batch_004/qmrxn20_e2_C_E_B_A_C_B/c2_fragB_ts.results/t21.6E90ABAE.O
         jobid: 0
         title: Oxygen (TZ2P)



 ===============
 G E O M E T R Y  ***  3D  Molecule  ***
 ===============
  

 ATOMS
 =====                            X Y Z                    CHARGE
                                (Angstrom)             Nucl     +Core       At.Mass
                       --------------------------    ----------------       -------
    1  C              -0.2367    0.0751   -0.3937      6.00      6.00       12.0000
    2  C              -0.1166   -0.0495    1.1068      6.00      6.00       12.0000
    3  Br              1.5757    0.2733   -1.2694     35.00     35.00       78.9183
    4  H               0.3380   -0.9829    1.4315      1.00      1.00        1.0078
    5  N              -1.0841    1.1268   -0.9065      7.00      7.00       14.0031
    6  H              -0.6756    1.9923   -0.5678      1.00      1.00        1.0078
    7  H              -1.9467    0.9971   -0.3605      1.00      1.00        1.0078
    8  N               0.5905    1.0328    1.7527      7.00      7.00       14.0031
    9  O               1.1842    0.7800    2.8071      8.00      8.00       15.9949
   10  O               0.5286    2.1714    1.2684      8.00      8.00       15.9949
   11  C              -0.7294   -1.2201   -0.8835      6.00      6.00       12.0000
   12  N              -1.1134   -2.2718   -1.2396      7.00      7.00       14.0031


 FRAGMENTS
 =========                                     Atoms in this Fragment     Cart. coord.s (Angstrom)
                                               -------------------------------------------------------
    1  C                                                 1  C           -0.2367    0.0751   -0.3937
    2  C                                                 2  C           -0.1166   -0.0495    1.1068
    3  C                                                11  C           -0.7294   -1.2201   -0.8835
    4  Br                                                3  Br           1.5757    0.2733   -1.2694
    5  H                                                 4  H            0.3380   -0.9829    1.4315
    6  H                                                 6  H           -0.6756    1.9923   -0.5678
    7  H                                                 7  H           -1.9467    0.9971   -0.3605
    8  N                                                 5  N           -1.0841    1.1268   -0.9065
    9  N                                                 8  N            0.5905    1.0328    1.7527
   10  N                                                12  N           -1.1134   -2.2718   -1.2396
   11  O                                                 9  O            1.1842    0.7800    2.8071
   12  O                                                10  O            0.5286    2.1714    1.2684


 Interatomic Distance Matrix (Angstrom)
 --------------------------------------

   1)     0.000
   2)     1.510   0.000
   3)     2.023   2.935   0.000
   4)     2.186   1.088   3.226   0.000
   5)     1.445   2.524   2.817   3.455   0.000
   6)     1.975   2.699   2.918   3.725   1.015   0.000
   7)     1.943   2.569   3.709   3.514   1.029   1.628   0.000
   8)     2.492   1.445   3.268   2.057   3.144   2.812   3.302   0.000
   9)     3.572   2.296   4.126   2.391   4.365   4.040   4.459   1.236   0.000
  10)     2.783   2.318   3.338   3.164   2.902   2.203   3.187   1.239   2.176   0.000
  11)     1.470   2.389   2.774   2.560   2.374   3.228   2.583   3.710   4.613   4.209
          0.000
  12)     2.644   3.382   3.703   3.302   3.415   4.339   3.486   4.773   5.565   5.360
          1.175   0.000

 Min. Distance =    1.0152
 Max. Distance =    5.5650



 =====================================
 S Y M M E T R Y ,   E L E C T R O N S
 =====================================
  
 Symmetry: NOSYM

 Irreducible Representations, including subspecies
 -------------------------------------------------
 A


 Configuration of Valence Electrons
 ==================================
 ( determined in the SCF procedure )

 Total:   93

 ===============
 W A R N I N G :
 ===============

 The number of electrons does not correspond to doubly occupied orbitals,
 i.e. there would be one orbital with 0.5-alpha and 0.5-beta electrons.

 Normally, this corresponds to a doublet that should be treated within
 the UNRESTRICTED framework. For example, for a doublet:

   CHARGE   0.0 1.0
   Unrestricted

 See the online manual (http://www.scm.com) for more information on
 how to use the UNRESTRICTED framework.

 If you are definitely certain that for this job the restricted open-shell
 is appropriate, you can overcome this warning by placing on input:
   ALLOW ROKS

 In case of doubt, contact support@scm.com with this problem.

 Net Charge: 0 (Nuclei minus Electrons)

 Aufbau principle for MO occupations will be applied through SCF cycle no.     100
 Thereafter, the program will assign electrons to MOs that are spatially
 similar to the occupied MOs in a "reference" cycle ("KeepOrbitals").
 The reference cycle is always the PREVIOUS cycle: it will evolve with
 the SCF procedure.
 ***************************************************************************************************



                                      ****************************************
                                      *  B U I L D : (Fragments, Functions)  *
                                      ****************************************
  



 =======
 S F O s  ***  (Symmetrized Fragment Orbitals)  ***
 =======
  
 SFOs are linear combinations of (valence) Fragment Orbitals (FOs), such that the SFOs transform as the
 irreducible representations of the (molecular) symmetry group. Each SFO is therefore characterized by
 an irrep of the molecule and by a few (or only one) generating FOs.
 The SFOs constitute a symmetry-adapted basis for the Fock matrix. The MO eigenvector coefficients in
 this basis provide a direct interpretation of the MOs in terms of Frontier Orbital Theory.

 The SFOs are combined with auxiliary Core Functions (CFs) to ensure orthogonalization on the (frozen)
 Core Orbitals (COs). The Core-orthogonalized SFOs (CSFOs) constitute the true Fock basis.

 The FOs, and hence also the (C)SFOs are combinations of the elementary basis functions (BAS). The basis
 functions that participate in the description of the SFOs depend on the irrep. The indices of the
 involved functions are printed below for each irrep.
 (The complete list of primitive basis functions is printed in another section)

 Total nr. of (C)SFOs (summation over all irreps) :   297

 NOTE: a (C)SFO that is defined as a combination of more than one FO is usually NOT normalized.



                                       === A ===
 Nr. of SFOs :  297
 Cartesian basis functions that participate in this irrep (total number =   339) :
      1     2     3     4     5     6     9    12     7    10
     13     8    11    14    15    16    17    18    19    20
     21    22    23    24    25    26    27    28    29    30
     31    32    33    34    35    36    39    42    37    40
     43    38    41    44    45    46    47    48    49    50
     51    52    53    54    55    56    57    58    59    60
     61    62    63    64    65    66    69    72    67    70
     73    68    71    74    75    76    77    78    79    80
     81    82    83    84    85    86    87    88    89    90
     91    92    93   100   101   126   127   128    94    97
    102   105   129   132   135    95    98   103   106   130
    133   136    96    99   104   107   131   134   137   108
    114   120   138   109   115   121   139   110   116   122
    140   111   117   123   141   112   118   124   142   113
    119   125   143   144   145   146   147   148   149   150
    151   152   153   154   155   156   157   158   159   160
    161   162   163   164   165   166   167   168   169   170
    171   172   173   174   175   176   177   178   179   180
    181   182   183   184   185   186   187   188   189   190
    191   192   193   194   195   198   201   196   199   202
    197   200   203   204   205   206   207   208   209   210
    211   212   213   214   215   216   217   218   219   220
    221   222   223   224   225   228   231   226   229   232
    227   230   233   234   235   236   237   238   239   240
    241   242   243   244   245   246   247   248   249   250
    251   252   253   254   255   258   261   256   259   262
    257   260   263   264   265   266   267   268   269   270
    271   272   273   274   275   276   277   278   279   280
    281   282   283   284   285   288   291   286   289   292
    287   290   293   294   295   296   297   298   299   300
    301   302   303   304   305   306   307   308   309   310
    311   312   313   314   315   318   321   316   319   322
    317   320   323   324   325   326   327   328   329   330
    331   332   333   334   335   336   337   338   339

    SFO  (index         Fragment          Generating    Expansion in Fragment Orbitals
  indx  incl.CFs)   Occup   Orb.Energy   FragmentType  Coeff.   Orbital     on Fragment
 --------------------------------------------------------------------------------------
     1       1      2.000     -10.066 au  C             1.00      1 S               1
                        (    -273.921 eV)
     2       2      2.000      -0.501 au  C             1.00      2 S               1
                        (     -13.620 eV)
     3       3       --         0.373 au  C             1.00      3 S               1
                        (      10.158 eV)
     4       4       --         5.405 au  C             1.00      4 S               1
                        (     147.073 eV)
     5       5       --        49.848 au  C             1.00      5 S               1
                        (    1356.422 eV)
     6       6      0.667      -0.193 au  C             1.00      1 P:x             1
                        (      -5.239 eV)
     7       7       --         0.169 au  C             1.00      2 P:x             1
                        (       4.589 eV)
     8       8       --         2.013 au  C             1.00      3 P:x             1
                        (      54.789 eV)
     9       9      0.667      -0.193 au  C             1.00      1 P:y             1
                        (      -5.239 eV)
    10      10       --         0.169 au  C             1.00      2 P:y             1
                        (       4.589 eV)
    11      11       --         2.013 au  C             1.00      3 P:y             1
                        (      54.789 eV)
    12      12      0.667      -0.193 au  C             1.00      1 P:z             1
                        (      -5.239 eV)
    13      13       --         0.169 au  C             1.00      2 P:z             1
                        (       4.589 eV)
    14      14       --         2.013 au  C             1.00      3 P:z             1
                        (      54.789 eV)
    15      15       --         1.243 au  C             1.00      1 D:z2            1
                        (      33.824 eV)
    16      16       --         1.243 au  C             1.00      1 D:x2-y2         1
                        (      33.824 eV)
    17      17       --         1.243 au  C             1.00      1 D:xy            1
                        (      33.824 eV)
    18      18       --         1.243 au  C             1.00      1 D:xz            1
                        (      33.824 eV)
    19      19       --         1.243 au  C             1.00      1 D:yz            1
                        (      33.824 eV)
    20      20       --         4.016 au  C             1.00      1 F:z3            1
                        (     109.271 eV)
    21      21       --         4.016 au  C             1.00      1 F:z             1
                        (     109.271 eV)
    22      22       --         4.016 au  C             1.00      1 F:xyz           1
                        (     109.271 eV)
    23      23       --         4.016 au  C             1.00      1 F:z2x           1
                        (     109.271 eV)
    24      24       --         4.016 au  C             1.00      1 F:z2y           1
                        (     109.271 eV)
    25      25       --         4.016 au  C             1.00      1 F:x             1
                        (     109.271 eV)
    26      26       --         4.016 au  C             1.00      1 F:y             1
                        (     109.271 eV)
    27      27      2.000     -10.066 au  C             1.00      1 S               2
                        (    -273.921 eV)
    28      28      2.000      -0.501 au  C             1.00      2 S               2
                        (     -13.620 eV)
    29      29       --         0.373 au  C             1.00      3 S               2
                        (      10.158 eV)
    30      30       --         5.405 au  C             1.00      4 S               2
                        (     147.073 eV)
    31      31       --        49.848 au  C             1.00      5 S               2
                        (    1356.422 eV)
    32      32      0.667      -0.193 au  C             1.00      1 P:x             2
                        (      -5.239 eV)
    33      33       --         0.169 au  C             1.00      2 P:x             2
                        (       4.589 eV)
    34      34       --         2.013 au  C             1.00      3 P:x             2
                        (      54.789 eV)
    35      35      0.667      -0.193 au  C             1.00      1 P:y             2
                        (      -5.239 eV)
    36      36       --         0.169 au  C             1.00      2 P:y             2
                        (       4.589 eV)
    37      37       --         2.013 au  C             1.00      3 P:y             2
                        (      54.789 eV)
    38      38      0.667      -0.193 au  C             1.00      1 P:z             2
                        (      -5.239 eV)
    39      39       --         0.169 au  C             1.00      2 P:z             2
                        (       4.589 eV)
    40      40       --         2.013 au  C             1.00      3 P:z             2
                        (      54.789 eV)
    41      41       --         1.243 au  C             1.00      1 D:z2            2
                        (      33.824 eV)
    42      42       --         1.243 au  C             1.00      1 D:x2-y2         2
                        (      33.824 eV)
    43      43       --         1.243 au  C             1.00      1 D:xy            2
                        (      33.824 eV)
    44      44       --         1.243 au  C             1.00      1 D:xz            2
                        (      33.824 eV)
    45      45       --         1.243 au  C             1.00      1 D:yz            2
                        (      33.824 eV)
    46      46       --         4.016 au  C             1.00      1 F:z3            2
                        (     109.271 eV)
    47      47       --         4.016 au  C             1.00      1 F:z             2
                        (     109.271 eV)
    48      48       --         4.016 au  C             1.00      1 F:xyz           2
                        (     109.271 eV)
    49      49       --         4.016 au  C             1.00      1 F:z2x           2
                        (     109.271 eV)
    50      50       --         4.016 au  C             1.00      1 F:z2y           2
                        (     109.271 eV)
    51      51       --         4.016 au  C             1.00      1 F:x             2
                        (     109.271 eV)
    52      52       --         4.016 au  C             1.00      1 F:y             2
                        (     109.271 eV)
    53      53      2.000     -10.066 au  C             1.00      1 S               3
                        (    -273.921 eV)
    54      54      2.000      -0.501 au  C             1.00      2 S               3
                        (     -13.620 eV)
    55      55       --         0.373 au  C             1.00      3 S               3
                        (      10.158 eV)
    56      56       --         5.405 au  C             1.00      4 S               3
                        (     147.073 eV)
    57      57       --        49.848 au  C             1.00      5 S               3
                        (    1356.422 eV)
    58      58      0.667      -0.193 au  C             1.00      1 P:x             3
                        (      -5.239 eV)
    59      59       --         0.169 au  C             1.00      2 P:x             3
                        (       4.589 eV)
    60      60       --         2.013 au  C             1.00      3 P:x             3
                        (      54.789 eV)
    61      61      0.667      -0.193 au  C             1.00      1 P:y             3
                        (      -5.239 eV)
    62      62       --         0.169 au  C             1.00      2 P:y             3
                        (       4.589 eV)
    63      63       --         2.013 au  C             1.00      3 P:y             3
                        (      54.789 eV)
    64      64      0.667      -0.193 au  C             1.00      1 P:z             3
                        (      -5.239 eV)
    65      65       --         0.169 au  C             1.00      2 P:z             3
                        (       4.589 eV)
    66      66       --         2.013 au  C             1.00      3 P:z             3
                        (      54.789 eV)
    67      67       --         1.243 au  C             1.00      1 D:z2            3
                        (      33.824 eV)
    68      68       --         1.243 au  C             1.00      1 D:x2-y2         3
                        (      33.824 eV)
    69      69       --         1.243 au  C             1.00      1 D:xy            3
                        (      33.824 eV)
    70      70       --         1.243 au  C             1.00      1 D:xz            3
                        (      33.824 eV)
    71      71       --         1.243 au  C             1.00      1 D:yz            3
                        (      33.824 eV)
    72      72       --         4.016 au  C             1.00      1 F:z3            3
                        (     109.271 eV)
    73      73       --         4.016 au  C             1.00      1 F:z             3
                        (     109.271 eV)
    74      74       --         4.016 au  C             1.00      1 F:xyz           3
                        (     109.271 eV)
    75      75       --         4.016 au  C             1.00      1 F:z2x           3
                        (     109.271 eV)
    76      76       --         4.016 au  C             1.00      1 F:z2y           3
                        (     109.271 eV)
    77      77       --         4.016 au  C             1.00      1 F:x             3
                        (     109.271 eV)
    78      78       --         4.016 au  C             1.00      1 F:y             3
                        (     109.271 eV)
    79      79      2.000    -488.642 au  Br            1.00      1 S               4
                        (  -13296.634 eV)
    80      80      2.000     -63.585 au  Br            1.00      2 S               4
                        (   -1730.246 eV)
    81      81      2.000      -8.709 au  Br            1.00      3 S               4
                        (    -236.987 eV)
    82      82      2.000      -0.733 au  Br            1.00      4 S               4
                        (     -19.946 eV)
    83      83       --         0.224 au  Br            1.00      5 S               4
                        (       6.099 eV)
    84      84       --         2.414 au  Br            1.00      6 S               4
                        (      65.683 eV)
    85      85       --        13.546 au  Br            1.00      7 S               4
                        (     368.609 eV)
    86      86       --       615.209 au  Br            1.00      8 S               4
                        (   16740.684 eV)
    87      87      2.000     -56.116 au  Br            1.00      1 P:x             4
                        (   -1526.987 eV)
    88      88      2.000      -6.365 au  Br            1.00      2 P:x             4
                        (    -173.205 eV)
    89      89      1.667      -0.284 au  Br            1.00      3 P:x             4
                        (      -7.716 eV)
    90      90       --         0.137 au  Br            1.00      4 P:x             4
                        (       3.720 eV)
    91      91       --         1.208 au  Br            1.00      5 P:x             4
                        (      32.874 eV)
    92      92       --         8.734 au  Br            1.00      6 P:x             4
                        (     237.661 eV)
    93      93       --        95.627 au  Br            1.00      7 P:x             4
                        (    2602.141 eV)
    94      94      2.000     -56.116 au  Br            1.00      1 P:y             4
                        (   -1526.987 eV)
    95      95      2.000      -6.365 au  Br            1.00      2 P:y             4
                        (    -173.205 eV)
    96      96      1.667      -0.284 au  Br            1.00      3 P:y             4
                        (      -7.716 eV)
    97      97       --         0.137 au  Br            1.00      4 P:y             4
                        (       3.720 eV)
    98      98       --         1.208 au  Br            1.00      5 P:y             4
                        (      32.874 eV)
    99      99       --         8.734 au  Br            1.00      6 P:y             4
                        (     237.661 eV)
   100     100       --        95.627 au  Br            1.00      7 P:y             4
                        (    2602.141 eV)
   101     101      2.000     -56.116 au  Br            1.00      1 P:z             4
                        (   -1526.987 eV)
   102     102      2.000      -6.365 au  Br            1.00      2 P:z             4
                        (    -173.205 eV)
   103     103      1.667      -0.284 au  Br            1.00      3 P:z             4
                        (      -7.716 eV)
   104     104       --         0.137 au  Br            1.00      4 P:z             4
                        (       3.720 eV)
   105     105       --         1.208 au  Br            1.00      5 P:z             4
                        (      32.874 eV)
   106     106       --         8.734 au  Br            1.00      6 P:z             4
                        (     237.661 eV)
   107     107       --        95.627 au  Br            1.00      7 P:z             4
                        (    2602.141 eV)
   108     108      2.000      -2.452 au  Br            1.00      1 D:z2            4
                        (     -66.719 eV)
   109     109       --         0.270 au  Br            1.00      2 D:z2            4
                        (       7.341 eV)
   110     110       --         2.706 au  Br            1.00      3 D:z2            4
                        (      73.633 eV)
   111     111       --        20.525 au  Br            1.00      4 D:z2            4
                        (     558.519 eV)
   112     112      2.000      -2.452 au  Br            1.00      1 D:x2-y2         4
                        (     -66.719 eV)
   113     113       --         0.270 au  Br            1.00      2 D:x2-y2         4
                        (       7.341 eV)
   114     114       --         2.706 au  Br            1.00      3 D:x2-y2         4
                        (      73.633 eV)
   115     115       --        20.525 au  Br            1.00      4 D:x2-y2         4
                        (     558.519 eV)
   116     116      2.000      -2.452 au  Br            1.00      1 D:xy            4
                        (     -66.719 eV)
   117     117       --         0.270 au  Br            1.00      2 D:xy            4
                        (       7.341 eV)
   118     118       --         2.706 au  Br            1.00      3 D:xy            4
                        (      73.633 eV)
   119     119       --        20.525 au  Br            1.00      4 D:xy            4
                        (     558.519 eV)
   120     120      2.000      -2.452 au  Br            1.00      1 D:xz            4
                        (     -66.719 eV)
   121     121       --         0.270 au  Br            1.00      2 D:xz            4
                        (       7.341 eV)
   122     122       --         2.706 au  Br            1.00      3 D:xz            4
                        (      73.633 eV)
   123     123       --        20.525 au  Br            1.00      4 D:xz            4
                        (     558.519 eV)
   124     124      2.000      -2.452 au  Br            1.00      1 D:yz            4
                        (     -66.719 eV)
   125     125       --         0.270 au  Br            1.00      2 D:yz            4
                        (       7.341 eV)
   126     126       --         2.706 au  Br            1.00      3 D:yz            4
                        (      73.633 eV)
   127     127       --        20.525 au  Br            1.00      4 D:yz            4
                        (     558.519 eV)
   128     128       --         0.857 au  Br            1.00      1 F:z3            4
                        (      23.313 eV)
   129     129       --         0.857 au  Br            1.00      1 F:z             4
                        (      23.313 eV)
   130     130       --         0.857 au  Br            1.00      1 F:xyz           4
                        (      23.313 eV)
   131     131       --         0.857 au  Br            1.00      1 F:z2x           4
                        (      23.313 eV)
   132     132       --         0.857 au  Br            1.00      1 F:z2y           4
                        (      23.313 eV)
   133     133       --         0.857 au  Br            1.00      1 F:x             4
                        (      23.313 eV)
   134     134       --         0.857 au  Br            1.00      1 F:y             4
                        (      23.313 eV)
   135     135      1.000      -0.240 au  H             1.00      1 S               5
                        (      -6.532 eV)
   136     136       --         0.088 au  H             1.00      2 S               5
                        (       2.394 eV)
   137     137       --         1.502 au  H             1.00      3 S               5
                        (      40.869 eV)
   138     138       --         0.406 au  H             1.00      1 P:x             5
                        (      11.051 eV)
   139     139       --         0.406 au  H             1.00      1 P:y             5
                        (      11.051 eV)
   140     140       --         0.406 au  H             1.00      1 P:z             5
                        (      11.051 eV)
   141     141       --         2.569 au  H             1.00      1 D:z2            5
                        (      69.917 eV)
   142     142       --         2.569 au  H             1.00      1 D:x2-y2         5
                        (      69.917 eV)
   143     143       --         2.569 au  H             1.00      1 D:xy            5
                        (      69.917 eV)
   144     144       --         2.569 au  H             1.00      1 D:xz            5
                        (      69.917 eV)
   145     145       --         2.569 au  H             1.00      1 D:yz            5
                        (      69.917 eV)
   146     146      1.000      -0.240 au  H             1.00      1 S               6
                        (      -6.532 eV)
   147     147       --         0.088 au  H             1.00      2 S               6
                        (       2.394 eV)
   148     148       --         1.502 au  H             1.00      3 S               6
                        (      40.869 eV)
   149     149       --         0.406 au  H             1.00      1 P:x             6
                        (      11.051 eV)
   150     150       --         0.406 au  H             1.00      1 P:y             6
                        (      11.051 eV)
   151     151       --         0.406 au  H             1.00      1 P:z             6
                        (      11.051 eV)
   152     152       --         2.569 au  H             1.00      1 D:z2            6
                        (      69.917 eV)
   153     153       --         2.569 au  H             1.00      1 D:x2-y2         6
                        (      69.917 eV)
   154     154       --         2.569 au  H             1.00      1 D:xy            6
                        (      69.917 eV)
   155     155       --         2.569 au  H             1.00      1 D:xz            6
                        (      69.917 eV)
   156     156       --         2.569 au  H             1.00      1 D:yz            6
                        (      69.917 eV)
   157     157      1.000      -0.240 au  H             1.00      1 S               7
                        (      -6.532 eV)
   158     158       --         0.088 au  H             1.00      2 S               7
                        (       2.394 eV)
   159     159       --         1.502 au  H             1.00      3 S               7
                        (      40.869 eV)
   160     160       --         0.406 au  H             1.00      1 P:x             7
                        (      11.051 eV)
   161     161       --         0.406 au  H             1.00      1 P:y             7
                        (      11.051 eV)
   162     162       --         0.406 au  H             1.00      1 P:z             7
                        (      11.051 eV)
   163     163       --         2.569 au  H             1.00      1 D:z2            7
                        (      69.917 eV)
   164     164       --         2.569 au  H             1.00      1 D:x2-y2         7
                        (      69.917 eV)
   165     165       --         2.569 au  H             1.00      1 D:xy            7
                        (      69.917 eV)
   166     166       --         2.569 au  H             1.00      1 D:xz            7
                        (      69.917 eV)
   167     167       --         2.569 au  H             1.00      1 D:yz            7
                        (      69.917 eV)
   168     168      2.000     -14.160 au  N             1.00      1 S               8
                        (    -385.319 eV)
   169     169      2.000      -0.678 au  N             1.00      2 S               8
                        (     -18.450 eV)
   170     170       --         0.517 au  N             1.00      3 S               8
                        (      14.073 eV)
   171     171       --         6.872 au  N             1.00      4 S               8
                        (     186.990 eV)
   172     172       --        63.432 au  N             1.00      5 S               8
                        (    1726.082 eV)
   173     173      1.000      -0.260 au  N             1.00      1 P:x             8
                        (      -7.062 eV)
   174     174       --         0.281 au  N             1.00      2 P:x             8
                        (       7.649 eV)
   175     175       --         3.275 au  N             1.00      3 P:x             8
                        (      89.105 eV)
   176     176      1.000      -0.260 au  N             1.00      1 P:y             8
                        (      -7.062 eV)
   177     177       --         0.281 au  N             1.00      2 P:y             8
                        (       7.649 eV)
   178     178       --         3.275 au  N             1.00      3 P:y             8
                        (      89.105 eV)
   179     179      1.000      -0.260 au  N             1.00      1 P:z             8
                        (      -7.062 eV)
   180     180       --         0.281 au  N             1.00      2 P:z             8
                        (       7.649 eV)
   181     181       --         3.275 au  N             1.00      3 P:z             8
                        (      89.105 eV)
   182     182       --         1.250 au  N             1.00      1 D:z2            8
                        (      34.005 eV)
   183     183       --         1.250 au  N             1.00      1 D:x2-y2         8
                        (      34.005 eV)
   184     184       --         1.250 au  N             1.00      1 D:xy            8
                        (      34.005 eV)
   185     185       --         1.250 au  N             1.00      1 D:xz            8
                        (      34.005 eV)
   186     186       --         1.250 au  N             1.00      1 D:yz            8
                        (      34.005 eV)
   187     187       --         4.013 au  N             1.00      1 F:z3            8
                        (     109.190 eV)
   188     188       --         4.013 au  N             1.00      1 F:z             8
                        (     109.190 eV)
   189     189       --         4.013 au  N             1.00      1 F:xyz           8
                        (     109.190 eV)
   190     190       --         4.013 au  N             1.00      1 F:z2x           8
                        (     109.190 eV)
   191     191       --         4.013 au  N             1.00      1 F:z2y           8
                        (     109.190 eV)
   192     192       --         4.013 au  N             1.00      1 F:x             8
                        (     109.190 eV)
   193     193       --         4.013 au  N             1.00      1 F:y             8
                        (     109.190 eV)
   194     194      2.000     -14.160 au  N             1.00      1 S               9
                        (    -385.319 eV)
   195     195      2.000      -0.678 au  N             1.00      2 S               9
                        (     -18.450 eV)
   196     196       --         0.517 au  N             1.00      3 S               9
                        (      14.073 eV)
   197     197       --         6.872 au  N             1.00      4 S               9
                        (     186.990 eV)
   198     198       --        63.432 au  N             1.00      5 S               9
                        (    1726.082 eV)
   199     199      1.000      -0.260 au  N             1.00      1 P:x             9
                        (      -7.062 eV)
   200     200       --         0.281 au  N             1.00      2 P:x             9
                        (       7.649 eV)
   201     201       --         3.275 au  N             1.00      3 P:x             9
                        (      89.105 eV)
   202     202      1.000      -0.260 au  N             1.00      1 P:y             9
                        (      -7.062 eV)
   203     203       --         0.281 au  N             1.00      2 P:y             9
                        (       7.649 eV)
   204     204       --         3.275 au  N             1.00      3 P:y             9
                        (      89.105 eV)
   205     205      1.000      -0.260 au  N             1.00      1 P:z             9
                        (      -7.062 eV)
   206     206       --         0.281 au  N             1.00      2 P:z             9
                        (       7.649 eV)
   207     207       --         3.275 au  N             1.00      3 P:z             9
                        (      89.105 eV)
   208     208       --         1.250 au  N             1.00      1 D:z2            9
                        (      34.005 eV)
   209     209       --         1.250 au  N             1.00      1 D:x2-y2         9
                        (      34.005 eV)
   210     210       --         1.250 au  N             1.00      1 D:xy            9
                        (      34.005 eV)
   211     211       --         1.250 au  N             1.00      1 D:xz            9
                        (      34.005 eV)
   212     212       --         1.250 au  N             1.00      1 D:yz            9
                        (      34.005 eV)
   213     213       --         4.013 au  N             1.00      1 F:z3            9
                        (     109.190 eV)
   214     214       --         4.013 au  N             1.00      1 F:z             9
                        (     109.190 eV)
   215     215       --         4.013 au  N             1.00      1 F:xyz           9
                        (     109.190 eV)
   216     216       --         4.013 au  N             1.00      1 F:z2x           9
                        (     109.190 eV)
   217     217       --         4.013 au  N             1.00      1 F:z2y           9
                        (     109.190 eV)
   218     218       --         4.013 au  N             1.00      1 F:x             9
                        (     109.190 eV)
   219     219       --         4.013 au  N             1.00      1 F:y             9
                        (     109.190 eV)
   220     220      2.000     -14.160 au  N             1.00      1 S              10
                        (    -385.319 eV)
   221     221      2.000      -0.678 au  N             1.00      2 S              10
                        (     -18.450 eV)
   222     222       --         0.517 au  N             1.00      3 S              10
                        (      14.073 eV)
   223     223       --         6.872 au  N             1.00      4 S              10
                        (     186.990 eV)
   224     224       --        63.432 au  N             1.00      5 S              10
                        (    1726.082 eV)
   225     225      1.000      -0.260 au  N             1.00      1 P:x            10
                        (      -7.062 eV)
   226     226       --         0.281 au  N             1.00      2 P:x            10
                        (       7.649 eV)
   227     227       --         3.275 au  N             1.00      3 P:x            10
                        (      89.105 eV)
   228     228      1.000      -0.260 au  N             1.00      1 P:y            10
                        (      -7.062 eV)
   229     229       --         0.281 au  N             1.00      2 P:y            10
                        (       7.649 eV)
   230     230       --         3.275 au  N             1.00      3 P:y            10
                        (      89.105 eV)
   231     231      1.000      -0.260 au  N             1.00      1 P:z            10
                        (      -7.062 eV)
   232     232       --         0.281 au  N             1.00      2 P:z            10
                        (       7.649 eV)
   233     233       --         3.275 au  N             1.00      3 P:z            10
                        (      89.105 eV)
   234     234       --         1.250 au  N             1.00      1 D:z2           10
                        (      34.005 eV)
   235     235       --         1.250 au  N             1.00      1 D:x2-y2        10
                        (      34.005 eV)
   236     236       --         1.250 au  N             1.00      1 D:xy           10
                        (      34.005 eV)
   237     237       --         1.250 au  N             1.00      1 D:xz           10
                        (      34.005 eV)
   238     238       --         1.250 au  N             1.00      1 D:yz           10
                        (      34.005 eV)
   239     239       --         4.013 au  N             1.00      1 F:z3           10
                        (     109.190 eV)
   240     240       --         4.013 au  N             1.00      1 F:z            10
                        (     109.190 eV)
   241     241       --         4.013 au  N             1.00      1 F:xyz          10
                        (     109.190 eV)
   242     242       --         4.013 au  N             1.00      1 F:z2x          10
                        (     109.190 eV)
   243     243       --         4.013 au  N             1.00      1 F:z2y          10
                        (     109.190 eV)
   244     244       --         4.013 au  N             1.00      1 F:x            10
                        (     109.190 eV)
   245     245       --         4.013 au  N             1.00      1 F:y            10
                        (     109.190 eV)
   246     246      2.000     -18.941 au  O             1.00      1 S              11
                        (    -515.403 eV)
   247     247      2.000      -0.876 au  O             1.00      2 S              11
                        (     -23.838 eV)
   248     248       --         0.791 au  O             1.00      3 S              11
                        (      21.524 eV)
   249     249       --        13.422 au  O             1.00      4 S              11
                        (     365.226 eV)
   250     250       --       121.561 au  O             1.00      5 S              11
                        (    3307.838 eV)
   251     251      1.333      -0.331 au  O             1.00      1 P:x            11
                        (      -9.020 eV)
   252     252       --         0.347 au  O             1.00      2 P:x            11
                        (       9.437 eV)
   253     253       --         3.820 au  O             1.00      3 P:x            11
                        (     103.939 eV)
   254     254      1.333      -0.331 au  O             1.00      1 P:y            11
                        (      -9.020 eV)
   255     255       --         0.347 au  O             1.00      2 P:y            11
                        (       9.437 eV)
   256     256       --         3.820 au  O             1.00      3 P:y            11
                        (     103.939 eV)
   257     257      1.333      -0.331 au  O             1.00      1 P:z            11
                        (      -9.020 eV)
   258     258       --         0.347 au  O             1.00      2 P:z            11
                        (       9.437 eV)
   259     259       --         3.820 au  O             1.00      3 P:z            11
                        (     103.939 eV)
   260     260       --         1.071 au  O             1.00      1 D:z2           11
                        (      29.134 eV)
   261     261       --         1.071 au  O             1.00      1 D:x2-y2        11
                        (      29.134 eV)
   262     262       --         1.071 au  O             1.00      1 D:xy           11
                        (      29.134 eV)
   263     263       --         1.071 au  O             1.00      1 D:xz           11
                        (      29.134 eV)
   264     264       --         1.071 au  O             1.00      1 D:yz           11
                        (      29.134 eV)
   265     265       --         3.359 au  O             1.00      1 F:z3           11
                        (      91.410 eV)
   266     266       --         3.359 au  O             1.00      1 F:z            11
                        (      91.410 eV)
   267     267       --         3.359 au  O             1.00      1 F:xyz          11
                        (      91.410 eV)
   268     268       --         3.359 au  O             1.00      1 F:z2x          11
                        (      91.410 eV)
   269     269       --         3.359 au  O             1.00      1 F:z2y          11
                        (      91.410 eV)
   270     270       --         3.359 au  O             1.00      1 F:x            11
                        (      91.410 eV)
   271     271       --         3.359 au  O             1.00      1 F:y            11
                        (      91.410 eV)
   272     272      2.000     -18.941 au  O             1.00      1 S              12
                        (    -515.403 eV)
   273     273      2.000      -0.876 au  O             1.00      2 S              12
                        (     -23.838 eV)
   274     274       --         0.791 au  O             1.00      3 S              12
                        (      21.524 eV)
   275     275       --        13.422 au  O             1.00      4 S              12
                        (     365.226 eV)
   276     276       --       121.561 au  O             1.00      5 S              12
                        (    3307.838 eV)
   277     277      1.333      -0.331 au  O             1.00      1 P:x            12
                        (      -9.020 eV)
   278     278       --         0.347 au  O             1.00      2 P:x            12
                        (       9.437 eV)
   279     279       --         3.820 au  O             1.00      3 P:x            12
                        (     103.939 eV)
   280     280      1.333      -0.331 au  O             1.00      1 P:y            12
                        (      -9.020 eV)
   281     281       --         0.347 au  O             1.00      2 P:y            12
                        (       9.437 eV)
   282     282       --         3.820 au  O             1.00      3 P:y            12
                        (     103.939 eV)
   283     283      1.333      -0.331 au  O             1.00      1 P:z            12
                        (      -9.020 eV)
   284     284       --         0.347 au  O             1.00      2 P:z            12
                        (       9.437 eV)
   285     285       --         3.820 au  O             1.00      3 P:z            12
                        (     103.939 eV)
   286     286       --         1.071 au  O             1.00      1 D:z2           12
                        (      29.134 eV)
   287     287       --         1.071 au  O             1.00      1 D:x2-y2        12
                        (      29.134 eV)
   288     288       --         1.071 au  O             1.00      1 D:xy           12
                        (      29.134 eV)
   289     289       --         1.071 au  O             1.00      1 D:xz           12
                        (      29.134 eV)
   290     290       --         1.071 au  O             1.00      1 D:yz           12
                        (      29.134 eV)
   291     291       --         3.359 au  O             1.00      1 F:z3           12
                        (      91.410 eV)
   292     292       --         3.359 au  O             1.00      1 F:z            12
                        (      91.410 eV)
   293     293       --         3.359 au  O             1.00      1 F:xyz          12
                        (      91.410 eV)
   294     294       --         3.359 au  O             1.00      1 F:z2x          12
                        (      91.410 eV)
   295     295       --         3.359 au  O             1.00      1 F:z2y          12
                        (      91.410 eV)
   296     296       --         3.359 au  O             1.00      1 F:x            12
                        (      91.410 eV)
   297     297       --         3.359 au  O             1.00      1 F:y            12
                        (      91.410 eV)



 ================================
 (Slater-type)  F U N C T I O N S  ***  (Basis and Fit)  ***
 ================================
  

 Atom Type    1  (C)
 ==============

 Valence Basis Sets:  10
 -----------------------
   1 S    7.680000
   1 S    5.000000
   2 S    1.280000
   2 S    2.100000
   2 S    4.600000
   2 P    0.820000
   2 P    1.480000
   2 P    2.940000
   3 D    2.200000
   4 F    3.300000

 Atom Type    2  (Br)
 ==============

 Valence Basis Sets:  20
 -----------------------
   1 S   41.300000
   1 S   32.800000
   2 S   13.900000
   2 P   19.450000
   2 P   13.100000
   3 S    7.200000
   3 S    4.950000
   3 P    7.900000
   3 P    5.050000
   3 D   10.900000
   3 D    6.050000
   3 D    3.500000
   4 S    4.500000
   4 S    2.800000
   4 S    1.800000
   4 P    3.250000
   4 P    1.950000
   4 P    1.200000
   4 D    1.800000
   4 F    1.800000

 Atom Type    3  (H)
 ==============

 Valence Basis Sets:   5
 -----------------------
   1 S    0.690000
   1 S    0.920000
   1 S    1.580000
   2 P    1.250000
   3 D    2.500000

 Atom Type    4  (N)
 ==============

 Valence Basis Sets:  10
 -----------------------
   1 S    8.740000
   1 S    5.900000
   2 S    5.150000
   2 S    2.500000
   2 S    1.500000
   2 P    3.680000
   2 P    1.880000
   2 P    1.000000
   3 D    2.200000
   4 F    3.300000

 Atom Type    5  (O)
 ==============

 Valence Basis Sets:  10
 -----------------------
   1 S    9.800000
   1 S    6.800000
   2 S    7.580000
   2 S    2.880000
   2 S    1.720000
   2 P    4.080000
   2 P    2.080000
   2 P    1.120000
   3 D    2.000000
   4 F    3.000000


 BAS: List of all Elementary Cartesian Basis Functions
 =====================================================

 The numbering in the list below (to the right of the function characteristics) is referred
 to in print-outs of MO eigenvectors and Mulliken populations in the BAS representation
 (as contrasted to the SFO representation).

 Notes:
 1. The functions are characterized by a polynomial prefactor (powers of x,y,z and r) and
    an exponential decay factor alpha.
 2. Since the basis sets are specific for an atom TYPE, the individual functions occur on
    all atoms of that type.
 3. The word 'Core' in the left margin signals that it is a Core Function (CF) : not a
    degree of freedom in the valence set, but only used to ensure orthogonalization of
    the other valence basis functions on the frozen Core Orbitals.


 (power of) X  Y  Z  R     Alpha  on Atom
            ==========     =====     ==========

 C                                    1    2    3
                                  ---------------------------------------------------------------------------
            0  0  0  0     7.680      1   31   61
            0  0  0  0     5.000      2   32   62
            0  0  0  1     1.280      3   33   63
            0  0  0  1     2.100      4   34   64
            0  0  0  1     4.600      5   35   65
            1  0  0  0     0.820      6   36   66
            0  1  0  0     0.820      7   37   67
            0  0  1  0     0.820      8   38   68
            1  0  0  0     1.480      9   39   69
            0  1  0  0     1.480     10   40   70
            0  0  1  0     1.480     11   41   71
            1  0  0  0     2.940     12   42   72
            0  1  0  0     2.940     13   43   73
            0  0  1  0     2.940     14   44   74
            2  0  0  0     2.200     15   45   75
            1  1  0  0     2.200     16   46   76
            1  0  1  0     2.200     17   47   77
            0  2  0  0     2.200     18   48   78
            0  1  1  0     2.200     19   49   79
            0  0  2  0     2.200     20   50   80
            3  0  0  0     3.300     21   51   81
            2  1  0  0     3.300     22   52   82
            2  0  1  0     3.300     23   53   83
            1  2  0  0     3.300     24   54   84
            1  1  1  0     3.300     25   55   85
            1  0  2  0     3.300     26   56   86
            0  3  0  0     3.300     27   57   87
            0  2  1  0     3.300     28   58   88
            0  1  2  0     3.300     29   59   89
            0  0  3  0     3.300     30   60   90

 Br                                   4
                                  ---------------------------------------------------------------------------
            0  0  0  0    41.300     91
            0  0  0  0    32.800     92
            0  0  0  1    13.900     93
            1  0  0  0    19.450     94
            0  1  0  0    19.450     95
            0  0  1  0    19.450     96
            1  0  0  0    13.100     97
            0  1  0  0    13.100     98
            0  0  1  0    13.100     99
            0  0  0  2     7.200    100
            0  0  0  2     4.950    101
            1  0  0  1     7.900    102
            0  1  0  1     7.900    103
            0  0  1  1     7.900    104
            1  0  0  1     5.050    105
            0  1  0  1     5.050    106
            0  0  1  1     5.050    107
            2  0  0  0    10.900    108
            1  1  0  0    10.900    109
            1  0  1  0    10.900    110
            0  2  0  0    10.900    111
            0  1  1  0    10.900    112
            0  0  2  0    10.900    113
            2  0  0  0     6.050    114
            1  1  0  0     6.050    115
            1  0  1  0     6.050    116
            0  2  0  0     6.050    117
            0  1  1  0     6.050    118
            0  0  2  0     6.050    119
            2  0  0  0     3.500    120
            1  1  0  0     3.500    121
            1  0  1  0     3.500    122
            0  2  0  0     3.500    123
            0  1  1  0     3.500    124
            0  0  2  0     3.500    125
            0  0  0  3     4.500    126
            0  0  0  3     2.800    127
            0  0  0  3     1.800    128
            1  0  0  2     3.250    129
            0  1  0  2     3.250    130
            0  0  1  2     3.250    131
            1  0  0  2     1.950    132
            0  1  0  2     1.950    133
            0  0  1  2     1.950    134
            1  0  0  2     1.200    135
            0  1  0  2     1.200    136
            0  0  1  2     1.200    137
            2  0  0  1     1.800    138
            1  1  0  1     1.800    139
            1  0  1  1     1.800    140
            0  2  0  1     1.800    141
            0  1  1  1     1.800    142
            0  0  2  1     1.800    143
            3  0  0  0     1.800    144
            2  1  0  0     1.800    145
            2  0  1  0     1.800    146
            1  2  0  0     1.800    147
            1  1  1  0     1.800    148
            1  0  2  0     1.800    149
            0  3  0  0     1.800    150
            0  2  1  0     1.800    151
            0  1  2  0     1.800    152
            0  0  3  0     1.800    153

 H                                    5    6    7
                                  ---------------------------------------------------------------------------
            0  0  0  0     0.690    154  166  178
            0  0  0  0     0.920    155  167  179
            0  0  0  0     1.580    156  168  180
            1  0  0  0     1.250    157  169  181
            0  1  0  0     1.250    158  170  182
            0  0  1  0     1.250    159  171  183
            2  0  0  0     2.500    160  172  184
            1  1  0  0     2.500    161  173  185
            1  0  1  0     2.500    162  174  186
            0  2  0  0     2.500    163  175  187
            0  1  1  0     2.500    164  176  188
            0  0  2  0     2.500    165  177  189

 N                                    8    9   10
                                  ---------------------------------------------------------------------------
            0  0  0  0     8.740    190  220  250
            0  0  0  0     5.900    191  221  251
            0  0  0  1     5.150    192  222  252
            0  0  0  1     2.500    193  223  253
            0  0  0  1     1.500    194  224  254
            1  0  0  0     3.680    195  225  255
            0  1  0  0     3.680    196  226  256
            0  0  1  0     3.680    197  227  257
            1  0  0  0     1.880    198  228  258
            0  1  0  0     1.880    199  229  259
            0  0  1  0     1.880    200  230  260
            1  0  0  0     1.000    201  231  261
            0  1  0  0     1.000    202  232  262
            0  0  1  0     1.000    203  233  263
            2  0  0  0     2.200    204  234  264
            1  1  0  0     2.200    205  235  265
            1  0  1  0     2.200    206  236  266
            0  2  0  0     2.200    207  237  267
            0  1  1  0     2.200    208  238  268
            0  0  2  0     2.200    209  239  269
            3  0  0  0     3.300    210  240  270
            2  1  0  0     3.300    211  241  271
            2  0  1  0     3.300    212  242  272
            1  2  0  0     3.300    213  243  273
            1  1  1  0     3.300    214  244  274
            1  0  2  0     3.300    215  245  275
            0  3  0  0     3.300    216  246  276
            0  2  1  0     3.300    217  247  277
            0  1  2  0     3.300    218  248  278
            0  0  3  0     3.300    219  249  279

 O                                   11   12
                                  ---------------------------------------------------------------------------
            0  0  0  0     9.800    280  310
            0  0  0  0     6.800    281  311
            0  0  0  1     7.580    282  312
            0  0  0  1     2.880    283  313
            0  0  0  1     1.720    284  314
            1  0  0  0     4.080    285  315
            0  1  0  0     4.080    286  316
            0  0  1  0     4.080    287  317
            1  0  0  0     2.080    288  318
            0  1  0  0     2.080    289  319
            0  0  1  0     2.080    290  320
            1  0  0  0     1.120    291  321
            0  1  0  0     1.120    292  322
            0  0  1  0     1.120    293  323
            2  0  0  0     2.000    294  324
            1  1  0  0     2.000    295  325
            1  0  1  0     2.000    296  326
            0  2  0  0     2.000    297  327
            0  1  1  0     2.000    298  328
            0  0  2  0     2.000    299  329
            3  0  0  0     3.000    300  330
            2  1  0  0     3.000    301  331
            2  0  1  0     3.000    302  332
            1  2  0  0     3.000    303  333
            1  1  1  0     3.000    304  334
            1  0  2  0     3.000    305  335
            0  3  0  0     3.000    306  336
            0  2  1  0     3.000    307  337
            0  1  2  0     3.000    308  338
            0  0  3  0     3.000    309  339

 Total number of charge fitting functions (nprimf)       992
 Total number of Cartesian basis functions (naos)        339
 Total number of Cartesian core functions  (ncos)          0

 ***************************************************************************************************



                                              ***********************
                                              *  T E C H N I C A L  *
                                              ***********************
  



 =============================================================
 P A R A L L E L I Z A T I O N  and  V E C T O R I Z A T I O N
 =============================================================
  
 Nr of parallel processes:                                1
 Maximum vector length in NumInt loops:                 128



 =====================
 S C F   U P D A T E S
 =====================
  
 Max. nr. of cycles:                               200
 Convergence criterion:                              0.0000010000
   secondary criterion:                              0.0010000000

 Mix parameter (when DIIS does not apply):           0.2000000000
 Mixed ADIIS+SDIIS will be used                  
    Max number of expansion vectors:                10
    Pure ADIIS when Max([F,P]) is above              0.1000000000
    Pure SDIIS when Max([F,P]) is below              0.0010000000
 Automatic ElectronSmearing (in case of problematic SCF convergence) disabled



 =================
 P R E C I S I O N  ***  (General: NumInt, NeglectFunctionTails, ...)  ***
 =================
  

 NumInt:           Target precision:                 4.0000000000
 -------           Initial precision:                4.0000000000
                   Min. precision (optimization):    4.0000000000

 Neglect Functions:          Basis functions:        0.1000000000E-05
 ------------------          Fit functions:          0.1000000000E-05



 ===========================
 L I N E A R   S C A L I N G
 ===========================
  

 Cut-off radii density fit:                        0.1000000000E-07
 Overlap cut-off criterion AO matrix elements:     0.1000000000E-05
 Cut-offs for Coulomb potential and fitted density:0.1000000000E-07
 Cut-off criterion for Coulomb multipole terms:    0.1000000000E-07
 Progressive Convergence parameter:                 0.000000000    
 ***************************************************************************************************



                                            ***************************
                                            *  C O M P U T A T I O N  *
                                            ***************************
  

 Number of elements of the density matrix on this node (used, total):     57630     57630



 ===========================================
 Numerical Integration : Fuzzy Cells (Becke)
 ===========================================
  
 Becke grid quality: NORMAL         
  
 Lebedev angular grid order:             min:  11 max:  23
 Nr. of radial points:                   min:  46 max:  77

 Total nr. of points:      84192
 Nr. of blocks:              658
 Block length:               128
 Nr. of dummy points:         32


 Test of Precision of the Numerical Integration Grid
 ===================================================

 Integral of the Total Core Density:                   0.00000000000000



 ========================
 Density Fitting (zlmFit)
 ========================
  
 ZlmFit Fit Quality: NORMAL         
  
 Max L-expansion:                        min:   6 max:   7
 Nr. of radial interpolation points:     min:  39 max:  72



 =====
 S C F  ***  ScaSCF  ***
 =====
  
 Initial density matrix is calculated as sum of fragments

 CYCLE    1
 SCF Error: norm([F,P])=      6.867157788318, max([F,P])=      1.436143955347
 orbitals (Q,E):
 ---------------
 A :37...57          ( 2.00    -0.4901)  ( 2.00    -0.4712)  ( 2.00    -0.4512)  ( 2.00    -0.4303)
                     ( 2.00    -0.4049)  ( 2.00    -0.3905)  ( 2.00    -0.3848)  ( 2.00    -0.3729)
                     ( 2.00    -0.3201)  ( 2.00    -0.2980)  ( 1.00    -0.2889)  ( 0.00    -0.1798)
                     ( 0.00    -0.1549)  ( 0.00    -0.1458)  ( 0.00    -0.0891)  ( 0.00    -0.0573)
                     ( 0.00    -0.0260)  ( 0.00    -0.0076)  ( 0.00     0.0184)  ( 0.00     0.0212)
                     ( 0.00     0.0545)

 CYCLE    2
   MIX coefficients:  0.8000  0.2000
 SCF Error: norm([F,P])=      1.420822166316, max([F,P])=      0.217380925536
 orbitals (Q,E):
 ---------------
 A :37...48          ( 2.00    -0.4548)  ( 2.00    -0.4166)  ( 2.00    -0.3955)  ( 2.00    -0.3920)
                     ( 2.00    -0.3513)  ( 2.00    -0.3432)  ( 2.00    -0.3408)  ( 2.00    -0.3307)
                     ( 2.00    -0.3254)  ( 2.00    -0.3121)  ( 1.00    -0.2760)  ( 0.00    -0.1677)

 CYCLE    3
  SDIIS (wt  0.000): -0.1664  1.1664
 A-DIIS (wt  1.000):  0.0000  1.0000
  DIIS coefficients:  0.0000  1.0000
 SCF Error: norm([F,P])=      0.540158848630, max([F,P])=      0.117786862837
 orbitals (Q,E):
 ---------------
 A :37...48          ( 2.00    -0.3720)  ( 2.00    -0.3087)  ( 2.00    -0.2936)  ( 2.00    -0.2834)
                     ( 2.00    -0.2829)  ( 2.00    -0.2774)  ( 2.00    -0.2726)  ( 2.00    -0.2512)
                     ( 2.00    -0.2451)  ( 2.00    -0.2394)  ( 1.00    -0.1963)  ( 0.00    -0.1314)

 CYCLE    4
  SDIIS (wt  0.000): -0.0418  0.8099  0.2319
 A-DIIS (wt  1.000):  0.0000  0.8450  0.1550
  DIIS coefficients:  0.0000  0.8450  0.1550
 SCF Error: norm([F,P])=      1.528748238294, max([F,P])=      0.381081342095
 orbitals (Q,E):
 ---------------
 A :37...48          ( 2.00    -0.3937)  ( 2.00    -0.3153)  ( 2.00    -0.3052)  ( 2.00    -0.3023)
                     ( 2.00    -0.2885)  ( 2.00    -0.2860)  ( 2.00    -0.2755)  ( 2.00    -0.2670)
                     ( 2.00    -0.2553)  ( 2.00    -0.2492)  ( 1.00    -0.2399)  ( 0.00    -0.1207)

 CYCLE    5
  SDIIS (wt  0.034): -0.0198  0.5555  0.0868  0.3775
 A-DIIS (wt  0.966):  0.0000  0.4432  0.0000  0.5568
  DIIS coefficients: -0.0007  0.4470  0.0030  0.5507
 SCF Error: norm([F,P])=      0.486043246239, max([F,P])=      0.096615429982
 orbitals (Q,E):
 ---------------
 A :37...48          ( 2.00    -0.4016)  ( 2.00    -0.3462)  ( 2.00    -0.3391)  ( 2.00    -0.3316)
                     ( 2.00    -0.3222)  ( 2.00    -0.3200)  ( 2.00    -0.3103)  ( 2.00    -0.2973)
                     ( 2.00    -0.2706)  ( 2.00    -0.2595)  ( 1.00    -0.2391)  ( 0.00    -0.1377)

 CYCLE    6
  SDIIS (wt  0.000): -0.0117  0.3469 -0.0600  0.5163  0.2085
 A-DIIS (wt  1.000):  0.0000  0.3909  0.0000  0.4801  0.1290
  DIIS coefficients:  0.0000  0.3909  0.0000  0.4801  0.1290
 SCF Error: norm([F,P])=      0.868027737176, max([F,P])=      0.152679574098
 orbitals (Q,E):
 ---------------
 A :37...48          ( 2.00    -0.4132)  ( 2.00    -0.3465)  ( 2.00    -0.3365)  ( 2.00    -0.3328)
                     ( 2.00    -0.3117)  ( 2.00    -0.3090)  ( 2.00    -0.3027)  ( 2.00    -0.2925)
                     ( 2.00    -0.2854)  ( 2.00    -0.2732)  ( 1.00    -0.2480)  ( 0.00    -0.1364)

 CYCLE    7
  SDIIS (wt  0.468):  0.0055  0.2445  0.0119  0.3531  0.0570  0.3279
 A-DIIS (wt  0.532):  0.0000  0.0000  0.0000  0.2725  0.0000  0.7275
  DIIS coefficients:  0.0026  0.1144  0.0056  0.3102  0.0267  0.5406
 SCF Error: norm([F,P])=      0.236108441646, max([F,P])=      0.053688776059
 orbitals (Q,E):
 ---------------
 A :37...48          ( 2.00    -0.4189)  ( 2.00    -0.3591)  ( 2.00    -0.3467)  ( 2.00    -0.3455)
                     ( 2.00    -0.3131)  ( 2.00    -0.3111)  ( 2.00    -0.3055)  ( 2.00    -0.2948)
                     ( 2.00    -0.2859)  ( 2.00    -0.2752)  ( 1.00    -0.2645)  ( 0.00    -0.1420)

 CYCLE    8
  SDIIS (wt  0.000):  0.0141  0.0892  0.0273  0.1678 -0.0056  0.5013  0.2058
 A-DIIS (wt  1.000):  0.0000  0.0000  0.0000  0.0000  0.0000  0.5794  0.4206
  DIIS coefficients:  0.0000  0.0000  0.0000  0.0000  0.0000  0.5794  0.4206
 SCF Error: norm([F,P])=      0.307663618879, max([F,P])=      0.061971481505
 orbitals (Q,E):
 ---------------
 A :37...48          ( 2.00    -0.4124)  ( 2.00    -0.3466)  ( 2.00    -0.3347)  ( 2.00    -0.3344)
                     ( 2.00    -0.3103)  ( 2.00    -0.3090)  ( 2.00    -0.2938)  ( 2.00    -0.2895)
                     ( 2.00    -0.2788)  ( 2.00    -0.2715)  ( 1.00    -0.2596)  ( 0.00    -0.1396)

 CYCLE    9
  SDIIS (wt  0.461): -0.0031  0.0446  0.0076  0.0760 -0.0075  0.4632  0.2779  0.1414
 A-DIIS (wt  0.539):  0.0000  0.0000  0.0000  0.0000  0.0000  0.4884  0.3463  0.1654
  DIIS coefficients: -0.0014  0.0206  0.0035  0.0351 -0.0035  0.4767  0.3147  0.1543
 SCF Error: norm([F,P])=      0.260723486425, max([F,P])=      0.054343876629
 orbitals (Q,E):
 ---------------
 A :37...48          ( 2.00    -0.4139)  ( 2.00    -0.3492)  ( 2.00    -0.3371)  ( 2.00    -0.3350)
                     ( 2.00    -0.3086)  ( 2.00    -0.3074)  ( 2.00    -0.3004)  ( 2.00    -0.2895)
                     ( 2.00    -0.2834)  ( 2.00    -0.2734)  ( 1.00    -0.2561)  ( 0.00    -0.1380)

 CYCLE   10
  SDIIS (wt  0.934): -0.0021  0.0052  0.0031 -0.0014 -0.0007  0.2490  0.1694  0.0964  0.4811
 A-DIIS (wt  0.066):  0.0000  0.0000  0.0000  0.0000  0.0000  0.0000  0.0000  0.0000  1.0000
  DIIS coefficients: -0.0020  0.0049  0.0029 -0.0013 -0.0007  0.2327  0.1583  0.0901  0.5151
 SCF Error: norm([F,P])=      0.031723351800, max([F,P])=      0.007487911173
 orbitals (Q,E):
 ---------------
 A :37...48          ( 2.00    -0.4147)  ( 2.00    -0.3495)  ( 2.00    -0.3381)  ( 2.00    -0.3359)
                     ( 2.00    -0.3085)  ( 2.00    -0.3077)  ( 2.00    -0.3010)  ( 2.00    -0.2902)
                     ( 2.00    -0.2842)  ( 2.00    -0.2730)  ( 1.00    -0.2573)  ( 0.00    -0.1376)

 CYCLE   11
  SDIIS (wt  0.956): -0.0009 -0.0057  0.0002 -0.0172 -0.0002  0.0548  0.0514  0.0247  0.4398  0.4532
 A-DIIS (wt  0.044):  0.0000  0.0000  0.0000  0.0000  0.0000  0.0000  0.0000  0.0000  0.3693  0.6307
  DIIS coefficients: -0.0009 -0.0054  0.0002 -0.0165 -0.0002  0.0524  0.0491  0.0236  0.4367  0.4610
 SCF Error: norm([F,P])=      0.021065666161, max([F,P])=      0.005362285780
 orbitals (Q,E):
 ---------------
 A :37...48          ( 2.00    -0.4146)  ( 2.00    -0.3502)  ( 2.00    -0.3383)  ( 2.00    -0.3362)
                     ( 2.00    -0.3089)  ( 2.00    -0.3078)  ( 2.00    -0.3010)  ( 2.00    -0.2903)
                     ( 2.00    -0.2841)  ( 2.00    -0.2734)  ( 1.00    -0.2573)  ( 0.00    -0.1382)

 CYCLE   12
  SDIIS (wt  1.000): -0.0018  0.0009 -0.0059 -0.0007  0.0149  0.0113 -0.0001  0.1815  0.2518  0.5480
  DIIS coefficients: -0.0018  0.0009 -0.0059 -0.0007  0.0149  0.0113 -0.0001  0.1815  0.2518  0.5480
 SCF Error: norm([F,P])=      0.003990094129, max([F,P])=      0.000960128601
 orbitals (Q,E):
 ---------------
 A :37...48          ( 2.00    -0.4147)  ( 2.00    -0.3499)  ( 2.00    -0.3382)  ( 2.00    -0.3361)
                     ( 2.00    -0.3090)  ( 2.00    -0.3079)  ( 2.00    -0.3011)  ( 2.00    -0.2903)
                     ( 2.00    -0.2841)  ( 2.00    -0.2734)  ( 1.00    -0.2572)  ( 0.00    -0.1382)

 CYCLE   13
  SDIIS (wt  1.000): -0.0001 -0.0014  0.0011  0.0025  0.0018 -0.0030  0.0951  0.1384  0.4360  0.3296
  DIIS coefficients: -0.0001 -0.0014  0.0011  0.0025  0.0018 -0.0030  0.0951  0.1384  0.4360  0.3296
 SCF Error: norm([F,P])=      0.003228356147, max([F,P])=      0.001251931700
 orbitals (Q,E):
 ---------------
 A :37...48          ( 2.00    -0.4147)  ( 2.00    -0.3500)  ( 2.00    -0.3383)  ( 2.00    -0.3361)
                     ( 2.00    -0.3088)  ( 2.00    -0.3078)  ( 2.00    -0.3010)  ( 2.00    -0.2903)
                     ( 2.00    -0.2841)  ( 2.00    -0.2733)  ( 1.00    -0.2572)  ( 0.00    -0.1381)

 CYCLE   14
  SDIIS (wt  1.000): -0.0003  0.0003  0.0003 -0.0002 -0.0015  0.0244  0.0393  0.1637  0.1825  0.5915
  DIIS coefficients: -0.0003  0.0003  0.0003 -0.0002 -0.0015  0.0244  0.0393  0.1637  0.1825  0.5915
 SCF Error: norm([F,P])=      0.000516168015, max([F,P])=      0.000148370437
 orbitals (Q,E):
 ---------------
 A :37...48          ( 2.00    -0.4146)  ( 2.00    -0.3500)  ( 2.00    -0.3382)  ( 2.00    -0.3361)
                     ( 2.00    -0.3089)  ( 2.00    -0.3078)  ( 2.00    -0.3010)  ( 2.00    -0.2903)
                     ( 2.00    -0.2841)  ( 2.00    -0.2733)  ( 1.00    -0.2572)  ( 0.00    -0.1381)

 CYCLE   15
  SDIIS (wt  1.000):  0.0001 -0.0000 -0.0003 -0.0007  0.0072  0.0132  0.0652  0.0816  0.3385  0.4951
  DIIS coefficients:  0.0001 -0.0000 -0.0003 -0.0007  0.0072  0.0132  0.0652  0.0816  0.3385  0.4951
 SCF Error: norm([F,P])=      0.000149539988, max([F,P])=      0.000034537827
 orbitals (Q,E):
 ---------------
 A :37...48          ( 2.00    -0.4146)  ( 2.00    -0.3500)  ( 2.00    -0.3382)  ( 2.00    -0.3361)
                     ( 2.00    -0.3089)  ( 2.00    -0.3078)  ( 2.00    -0.3011)  ( 2.00    -0.2903)
                     ( 2.00    -0.2841)  ( 2.00    -0.2733)  ( 1.00    -0.2572)  ( 0.00    -0.1381)

 CYCLE   16
  SDIIS (wt  1.000): -0.0000 -0.0000 -0.0001  0.0003  0.0010  0.0046  0.0109  0.0908  0.3022  0.5903
  DIIS coefficients: -0.0000 -0.0000 -0.0001  0.0003  0.0010  0.0046  0.0109  0.0908  0.3022  0.5903
 SCF Error: norm([F,P])=      0.000063885519, max([F,P])=      0.000013469359
 orbitals (Q,E):
 ---------------
 A :37...48          ( 2.00    -0.4146)  ( 2.00    -0.3500)  ( 2.00    -0.3382)  ( 2.00    -0.3361)
                     ( 2.00    -0.3089)  ( 2.00    -0.3078)  ( 2.00    -0.3010)  ( 2.00    -0.2903)
                     ( 2.00    -0.2841)  ( 2.00    -0.2733)  ( 1.00    -0.2572)  ( 0.00    -0.1381)

 CYCLE   17
  SDIIS (wt  1.000): -0.0000 -0.0001  0.0010  0.0021  0.0091  0.0126  0.0669  0.1863  0.3739  0.3483
  DIIS coefficients: -0.0000 -0.0001  0.0010  0.0021  0.0091  0.0126  0.0669  0.1863  0.3739  0.3483
 SCF Error: norm([F,P])=      0.000047446261, max([F,P])=      0.000013941015
 orbitals (Q,E):
 ---------------
 A :37...48          ( 2.00    -0.4146)  ( 2.00    -0.3500)  ( 2.00    -0.3382)  ( 2.00    -0.3361)
                     ( 2.00    -0.3089)  ( 2.00    -0.3078)  ( 2.00    -0.3011)  ( 2.00    -0.2903)
                     ( 2.00    -0.2841)  ( 2.00    -0.2733)  ( 1.00    -0.2572)  ( 0.00    -0.1381)

 CYCLE   18
  SDIIS (wt  1.000):  0.0000 -0.0000  0.0000 -0.0004  0.0005  0.0122  0.0563  0.1367  0.1065  0.6883
[...]
      -0.660  0.00    52 A         21.50%     2 S               2.394  0.00     5 H
                                   20.17%     1 S              -6.532  1.00     5 H
                                   13.38%     1 P:x            -5.239  0.67     3 C
                                   13.05%     1 P:x            -7.062  1.00    10 N
                                    6.56%     2 S               2.394  0.00     7 H
                                   -5.45%     2 P:y             4.589  0.00     2 C
                                    5.13%     1 P:z            -5.239  0.67     2 C
                                    4.89%     2 S               2.394  0.00     6 H
                                   -4.14%     3 S              10.158  0.00     1 C
                                    3.71%     2 P:y             4.589  0.00     1 C
                                    3.61%     1 S              -6.532  1.00     7 H
                                    3.25%     2 S             -13.620  2.00     1 C
                                    2.47%     2 D:x2-y2         7.341  0.00     4 Br
                                    2.44%     1 P:y            -5.239  0.67     2 C
                                    2.37%     2 P:x             4.589  0.00     1 C
                                    2.07%     2 D:xz            7.341  0.00     4 Br
                                   -2.04%     2 P:x             7.649  0.00    10 N
                                    2.01%     1 P:z            -5.239  0.67     3 C
                                    1.95%     1 P:y            -5.239  0.67     3 C
                                   -1.77%     3 S              14.073  0.00    10 N
                                    1.73%     2 P:z             4.589  0.00     1 C
                                    1.61%     1 P:y            -7.062  1.00     8 N
                                    1.57%     1 S              -6.532  1.00     6 H
                                    1.52%     1 P:x            -7.062  1.00     8 N
                                   -1.34%     5 S               6.099  0.00     4 Br
                                    1.00%     1 P:z            -7.062  1.00    10 N
       0.234  0.00    53 A         31.59%     1 S              -6.532  1.00     5 H
                                   30.19%     2 S               2.394  0.00     5 H
                                   11.88%     1 S              -6.532  1.00     7 H
                                   11.63%     2 S               2.394  0.00     6 H
                                  -10.66%     2 P:y             4.589  0.00     1 C
                                   10.39%     1 S              -6.532  1.00     6 H
                                   10.06%     2 S               2.394  0.00     7 H
                                   -6.00%     2 P:y             4.589  0.00     2 C
                                    4.86%     2 P:y             4.589  0.00     3 C
                                    3.54%     2 S             -13.620  2.00     3 C
                                   -3.48%     2 P:z             4.589  0.00     2 C
                                    3.19%     1 P:x            -5.239  0.67     3 C
                                   -2.92%     2 P:x             7.649  0.00     8 N
                                   -2.71%     2 P:z             4.589  0.00     1 C
                                   -2.57%     2 P:x             4.589  0.00     3 C
                                   -2.53%     2 P:x             4.589  0.00     2 C
                                    2.35%     1 P:x            -7.062  1.00     8 N
                                   -2.22%     2 P:y             7.649  0.00     8 N
                                    2.11%     4 P:y             3.720  0.00     4 Br
                                    1.79%     1 P:x            -7.062  1.00    10 N
                                    1.59%     1 P:y            11.051  0.00     6 H
                                   -1.42%     3 S              14.073  0.00    10 N
                                   -1.37%     1 P:z            -5.239  0.67     2 C
                                   -1.19%     1 P:z            -5.239  0.67     1 C
                                   -1.09%     3 S              10.158  0.00     2 C
                                    1.08%     1 P:y            11.051  0.00     5 H
                                    1.03%     1 P:y            -7.062  1.00     8 N
       0.682  0.00    54 A         29.21%     1 S              -6.532  1.00     6 H
                                   21.71%     2 S               2.394  0.00     6 H
                                   13.97%     1 S              -6.532  1.00     7 H
                                   -5.42%     2 P:x             7.649  0.00     8 N
                                    5.22%     4 P:x             3.720  0.00     4 Br
                                    5.14%     2 S             -13.620  2.00     3 C
                                    4.38%     2 P:x             4.589  0.00     3 C
                                    3.86%     2 S               2.394  0.00     5 H
                                    3.76%     1 P:x            -7.062  1.00     8 N
                                    3.22%     1 S              -6.532  1.00     5 H
                                   -2.96%     3 S              14.073  0.00    10 N
                                   -2.88%     2 P:y             7.649  0.00     8 N
                                    2.74%     2 P:x             4.589  0.00     2 C
                                    2.36%     2 P:y             4.589  0.00     3 C
                                    2.27%     2 S             -13.620  2.00     1 C
                                    2.27%     2 P:x             4.589  0.00     1 C
                                    2.16%     2 P:y             4.589  0.00     2 C
                                    1.86%     1 P:y            11.051  0.00     6 H
                                    1.85%     4 P:y             3.720  0.00     4 Br
                                   -1.63%     5 S               6.099  0.00     4 Br
                                    1.62%     2 P:z             4.589  0.00     2 C
                                    1.61%     1 P:z            -5.239  0.67     2 C
                                   -1.49%     2 P:y             4.589  0.00     1 C
                                   -1.29%     3 S              21.524  0.00    12 O
                                   -1.20%     3 S              21.524  0.00    11 O
                                    1.18%     3 S              40.869  0.00     7 H
                                    1.09%     1 P:z            -5.239  0.67     3 C
                                    1.07%     1 P:y            -5.239  0.67     2 C
       1.492  0.00    55 A         24.14%     2 P:z             4.589  0.00     2 C
                                   12.77%     2 P:z             4.589  0.00     1 C
                                    8.99%     1 S              -6.532  1.00     6 H
                                    8.63%     4 P:z             3.720  0.00     4 Br
                                   -7.77%     3 S              14.073  0.00    10 N
                                    6.99%     2 P:y             4.589  0.00     3 C
                                    6.40%     2 S             -13.620  2.00     3 C
                                    5.19%     1 S              -6.532  1.00     7 H
                                    4.50%     2 P:z             4.589  0.00     3 C
                                   -4.37%     3 S              10.158  0.00     2 C
                                    4.35%     1 P:z            -5.239  0.67     2 C
                                    4.28%     1 P:x            -5.239  0.67     1 C
                                    4.13%     2 S               2.394  0.00     6 H
                                    3.93%     1 P:z            -5.239  0.67     1 C
                                    3.66%     1 S              -6.532  1.00     5 H
                                    3.32%     1 P:y            -5.239  0.67     2 C
                                   -3.05%     2 P:x             7.649  0.00     8 N
                                    2.62%     2 S               2.394  0.00     5 H
                                    2.37%     1 P:y            -7.062  1.00     8 N
                                   -2.18%     3 S              21.524  0.00    11 O
                                    2.13%     3 S              10.158  0.00     3 C
                                    2.12%     2 P:y             4.589  0.00     1 C
                                   -2.03%     5 S               6.099  0.00     4 Br
                                   -1.87%     2 P:x             4.589  0.00     3 C
                                    1.82%     2 P:y             4.589  0.00     2 C
                                    1.71%     1 P:y            -5.239  0.67     3 C
                                    1.67%     2 P:z             7.649  0.00     9 N
                                    1.49%     1 P:x            -5.239  0.67     2 C
                                   -1.45%     3 S              14.073  0.00     9 N
                                    1.32%     1 P:z            -7.062  1.00     9 N
                                   -1.31%     2 P:y             7.649  0.00     8 N
                                    1.15%     1 P:y            -5.239  0.67     1 C
                                   -1.03%     2 P:y             7.649  0.00     9 N



 =======================================================================
 Electrostatic potential at the Nuclei due to electrons and other nuclei
 =======================================================================
  
         Atom                  Potential
         ----                  ---------
     1)   C                  14.60896987
     2)   C                  14.67261179
     3)   Br                180.48452150
     4)   H                   1.02228500
     5)   N                  18.36114233
     6)   H                   0.99542882
     7)   H                   0.98503161
     8)   N                  18.16255764
     9)   O                  22.34381429
    10)   O                  22.34787189
    11)   C                  14.72470064
    12)   N                  18.39814747
 Mulliken charges used for AMS results%charges...


    =====================
     CALCULATION RESULTS
    =====================

Energy (hartree)            -2.51377687


--------------
Atomic charges
--------------
  Index   Atom    Charge
      1      C    0.2987
      2      C    0.1627
      3     Br   -0.1039
      4      H   -0.0775
      5      N    0.0046
      6      H    0.0345
      7      H   -0.0099
      8      N    0.5652
      9      O   -0.3593
     10      O   -0.4162
     11      C    0.1176
     12      N   -0.2164


Dipole moment vector    (Debye):    -0.77626350    0.92383153   -0.15911833
              magnitude (Debye):     1.21711477


-----------------------
Molecular orbitals info
-----------------------
n orbitals:              297
n spin:                    1

Note: only printing virtual orbitals with
      energy smaller than HOMO + 100. eV

Note: fractional orbital occupations. HOMO and LUMO labels are not well defined!

HOMO (eV):              -7.4378
LUMO (eV):              -6.9981
HOMO-LUMO gap (eV):      0.4397

   Index   Energy (eV)    Occupation
     189       92.4807         0.000       
     188       91.8846         0.000       
     187       91.5756         0.000       
     186       90.9916         0.000       
     185       90.1753         0.000       
     184       89.5972         0.000       
     183       88.7077         0.000       
     182       87.3246         0.000       
     181       86.7396         0.000       
     180       85.1115         0.000       
     179       83.6941         0.000       
     178       82.9422         0.000       
     177       81.9476         0.000       
     176       80.8267         0.000       
     175       78.7272         0.000       
     174       78.4381         0.000       
     173       77.1339         0.000       
     172       76.7420         0.000       
     171       76.0225         0.000       
     170       75.3508         0.000       
     169       73.6722         0.000       
     168       71.6312         0.000       
     167       71.4798         0.000       
     166       70.2537         0.000       
     165       68.8965         0.000       
     164       68.2685         0.000       
     163       67.3853         0.000       
     162       66.6522         0.000       
     161       65.3594         0.000       
     160       64.8701         0.000       
     159       64.4463         0.000       
     158       62.6128         0.000       
     157       61.5149         0.000       
     156       61.1315         0.000       
     155       60.8131         0.000       
     154       59.8253         0.000       
     153       57.9081         0.000       
     152       57.5397         0.000       
     151       56.5955         0.000       
     150       54.3160         0.000       
     149       53.6549         0.000       
     148       53.0064         0.000       
     147       52.2518         0.000       
     146       51.1644         0.000       
     145       50.5893         0.000       
     144       49.7280         0.000       
     143       48.8881         0.000       
     142       48.0028         0.000       
     141       47.3576         0.000       
     140       46.2729         0.000       
     139       45.2292         0.000       
     138       44.7410         0.000       
     137       43.7704         0.000       
     136       43.2764         0.000       
     135       42.0664         0.000       
     134       41.6924         0.000       
     133       40.3206         0.000       
     132       39.9544         0.000       
     131       39.3278         0.000       
     130       38.5601         0.000       
     129       38.2190         0.000       
     128       36.8173         0.000       
     127       36.2929         0.000       
     126       35.7807         0.000       
     125       35.1522         0.000       
     124       34.4056         0.000       
     123       33.8773         0.000       
     122       33.1823         0.000       
     121       32.8000         0.000       
     120       32.5109         0.000       
     119       31.8203         0.000       
     118       31.3093         0.000       
     117       30.4968         0.000       
     116       29.9134         0.000       
     115       29.5838         0.000       
     114       29.0100         0.000       
     113       28.8030         0.000       
     112       27.8014         0.000       
     111       27.4097         0.000       
     110       26.9848         0.000       
     109       26.2461         0.000       
     108       26.0443         0.000       
     107       25.0351         0.000       
     106       24.3692         0.000       
     105       23.9844         0.000       
     104       23.7641         0.000       
     103       23.0908         0.000       
     102       23.0125         0.000       
     101       21.9311         0.000       
     100       21.8549         0.000       
      99       20.4724         0.000       
      98       20.0798         0.000       
      97       19.7961         0.000       
      96       18.9901         0.000       
      95       17.8069         0.000       
      94       17.7091         0.000       
      93       17.3644         0.000       
      92       16.4071         0.000       
      91       15.5548         0.000       
      90       15.1286         0.000       
      89       14.7842         0.000       
      88       13.9950         0.000       
      87       13.7036         0.000       
      86       13.2575         0.000       
      85       13.1011         0.000       
      84       12.4827         0.000       
      83       11.3857         0.000       
      82       10.7300         0.000       
      81       10.3879         0.000       
      80       10.1940         0.000       
      79        9.7631         0.000       
      78        9.3384         0.000       
      77        9.2165         0.000       
      76        8.2259         0.000       
      75        8.1165         0.000       
      74        7.5331         0.000       
      73        7.4608         0.000       
      72        6.7826         0.000       
      71        6.5222         0.000       
      70        6.3457         0.000       
      69        5.9334         0.000       
      68        5.9000         0.000       
      67        5.2902         0.000       
      66        5.1032         0.000       
      65        4.9594         0.000       
      64        4.4160         0.000       
      63        4.3406         0.000       
      62        4.1036         0.000       
      61        3.7479         0.000       
      60        3.4673         0.000       
      59        3.0653         0.000       
      58        2.4825         0.000       
      57        2.2899         0.000       
      56        2.0227         0.000       
      55        1.4920         0.000       
      54        0.6821         0.000       
      53        0.2337         0.000       
      52       -0.6601         0.000       
      51       -0.9044         0.000       
      50       -1.5428         0.000       
      49       -2.8707         0.000       
      48       -3.7585         0.000       
      47       -6.9981         1.000 < LUMO
      46       -7.4378         2.000 < HOMO
      45       -7.7306         2.000       
      44       -7.8988         2.000       
      43       -8.1920         2.000       
      42       -8.3760         2.000       
      41       -8.4043         2.000       
      40       -9.1450         2.000       
      39       -9.2037         2.000       
      38       -9.5240         2.000       
      37      -11.2831         2.000       
      36      -12.3158         2.000       
      35      -12.9927         2.000       
      34      -13.5108         2.000       
      33      -13.8517         2.000       
      32      -14.1541         2.000       
      31      -14.4517         2.000       
      30      -15.7346         2.000       
      29      -18.8336         2.000       
      28      -20.9563         2.000       
      27      -21.7049         2.000       
      26      -23.1735         2.000       
      25      -24.8306         2.000       
      24      -26.9770         2.000       
      23      -31.4758         2.000       
      22      -66.9431         2.000       
      21      -66.9501         2.000       
      20      -67.1882         2.000       
      19      -67.2365         2.000       
      18      -67.3023         2.000       
      17     -173.4992         2.000       
      16     -173.5619         2.000       
      15     -173.8837         2.000       
      14     -237.4202         2.000       
      13     -272.0979         2.000       
      12     -273.3091         2.000       
      11     -274.7792         2.000       
      10     -382.6566         2.000       
       9     -383.1814         2.000       
       8     -388.4742         2.000       
       7     -513.0388         2.000       
       6     -513.1805         2.000       
       5    -1527.6292         2.000       
       4    -1527.6485         2.000       
       3    -1527.7597         2.000       
       2    -1730.7673         2.000       
       1   -13297.2412         2.000       

AMS application finished. Exiting.
NORMAL TERMINATION
     Total cpu time:      55.78
  Total system time:       0.48
 Total elapsed time:      56.49
NORMAL TERMINATION with warnings
