
 *******************************************************************************
 *                                                                             *
 *  --------------------------------                                           *
 *   Amsterdam Modeling Suite (AMS)              2026.103                      *
 *  --------------------------------                                           *
 *                                               r260501 2026-05-01 873454b5   *
 *                                                                             *
 *                                                                             *
 *                              =================                              *
 *                              |               |                              *
 *                              |     A M S     |                              *
 *                              |               |                              *
 *                              =================                              *
 *                                                                             *
 *                                                                             *
 *   Online information and documentation:  https://www.scm.com/support/       *
 *   E-mail:  support@scm.com   info@scm.com                                   *
 *                                                                             *
 *   Scientific publications using AMS results must be properly referenced     *
 *   See the User Manuals (or the web site) for recommended citations          *
 *   The terms and conditions of the End User License Agreement apply to       *
 *   the use of AMS, https://www.scm.com/license-terms/                        *
 *                                                                             *
 **********************  x86_64_linux_intel / intelmpi  ************************
 
 Licensed to: Jong-June Jeon / University of Seoul 2026-06-02 13:44:15
 SCM User ID: u30731
  
 AMS 2026.103  RunTime: Jun04-2026 06:52:11  ShM Nodes: 1  Procs: 1

 AMS jobname: c3_eda
 AMS jobid  : 1320188213

 Start   directory: /gpfs/home1/yeseo1ee/projects/eda-asm-prediction/ADF_800/adf_outputs/batch_007/qmrxn20_sn2_E_B_E_C_A_D/
 Results directory: /gpfs/home1/yeseo1ee/projects/eda-asm-prediction/ADF_800/adf_outputs/batch_007/qmrxn20_sn2_E_B_E_C_A_D/c3_eda.results/
 Scratch directory: /tmp/amstmp_c3_eda_kid0.1320188213/

 RNG seed: 838091839 687435850 1939579640 328083687 -904448630 1135612862 1575553132 -470154508



                      ************************************************************************
                      *  ADF 2026.103  RunTime: Jun04-2026 06:52:11  ShM Nodes: 1  Procs: 1  *
                      ************************************************************************
  

       ****************************
       * SINGLE POINT CALCULATION *
       ****************************

--------
Geometry
--------
Formula: C3H5BrFN4O2
Atoms
  Index Symbol   x (angstrom)   y (angstrom)   z (angstrom)
      1      F    -1.11442023    -0.02775283     0.26859176 adf.f=fA
      2      C     0.82268105     0.04463098    -0.01721189 adf.f=fB
      3      H     1.61694969     2.03938658    -0.21037290 adf.f=fB
      4     Br     3.20739737    -0.00156556     0.05739179 adf.f=fB
      5      C     0.63570441     1.58664291    -0.06380218 adf.f=fB
      6      N     0.70734648    -0.68402783    -1.19876308 adf.f=fB
      7      H    -0.29089623    -0.82344943    -1.32552832 adf.f=fB
      8      H     1.17931022    -1.57268888    -1.09923638 adf.f=fB
      9      N     0.80321468    -0.71559960     1.30315858 adf.f=fB
     10      O     0.90329583    -0.08786716     2.34825067 adf.f=fB
     11      O     0.70240344    -1.93070408     1.21389594 adf.f=fB
     12      N    -0.00603136     2.23978409     1.05914065 adf.f=fB
     13      H     0.59706114     2.12153193     1.86278039 adf.f=fB
     14      H    -0.83830339     1.68291911     1.22893649 adf.f=fB
     15      C    -0.14321989     1.88857444    -1.27854703 adf.f=fB
     16      N    -0.71992322     2.21560534    -2.24710445 adf.f=fB

Total System Charge             -1.00000


----------------
ADF Engine Input
----------------
 
   Basis
     Type TZ2P
     Core None
   End
   XC
     GGA BLYP
     Dispersion GRIMME3 BJDAMP
   End
   Symmetry NOSYM
   NumericalQuality Normal
   Unrestricted No
   SCF
     Iterations 200
     Converge 1.0e-6
   End
   fragments
     fA c1_fragA_ts.results/adf.rkf
     fB c2_fragB_ts.results/adf.rkf
   end
   etsnocv
     enocv 0.05
     ekmin 0.5
   end
   print etslowdin
   Save TAPE21
 

 Title: *** (NO TITLE) ***

 *** adf ***



 ===========================
 A T T A C H E D   F I L E S
 ===========================
  



 ===============================
 M O D E L   P A R A M E T E R S
 ===============================
  
 DENSITY FUNCTIONAL POTENTIAL (scf)
    LDA:                               Exchange only                           == Not Default ==
    Gradient Corrections:              Becke88 LYP                             == Not Default ==

 SPIN  (restricted / unrestr.)
    Molecule:                          Restricted                               
    Fragments:                         Restricted                               

 OTHER ASPECTS
    Relativistic Corrections:          scalar (ZORA,MAPA)                       

    Nuclear Charge Density Model:      Point Charge Nuclei                      
    Core Treatment:                    Frozen Orbital(s)                        

    Hyperfine or Zeeman Interaction:   ---                                      

 Settings for Grimme D3 dispersion correction

      damping                        BJ
      s6                          1.000
      s8                          2.700
      a1                          0.430
      a2                          4.236

 Other (technical) parameters

      alpha                      14.000
      version                         4
 


 Fragment File(s)
 ----------------
 fA:
         file : c1_fragA_ts.results/adf.rkf
         jobid: 419765481
         title: *** adf ***
 fB:
         file : c2_fragB_ts.results/adf.rkf
         jobid: 413995297
         title: *** adf ***



 ===============
 G E O M E T R Y  ***  3D  Molecule  ***
 ===============
  

 ATOMS
 =====                            X Y Z                    CHARGE
                                (Angstrom)             Nucl     +Core       At.Mass
                       --------------------------    ----------------       -------
    1  F              -1.1144   -0.0278    0.2686      9.00      9.00       18.9984
    2  C               0.8227    0.0446   -0.0172      6.00      6.00       12.0000
    3  H               1.6169    2.0394   -0.2104      1.00      1.00        1.0078
    4  Br              3.2074   -0.0016    0.0574     35.00     35.00       78.9183
    5  C               0.6357    1.5866   -0.0638      6.00      6.00       12.0000
    6  N               0.7073   -0.6840   -1.1988      7.00      7.00       14.0031
    7  H              -0.2909   -0.8234   -1.3255      1.00      1.00        1.0078
    8  H               1.1793   -1.5727   -1.0992      1.00      1.00        1.0078
    9  N               0.8032   -0.7156    1.3032      7.00      7.00       14.0031
   10  O               0.9033   -0.0879    2.3483      8.00      8.00       15.9949
   11  O               0.7024   -1.9307    1.2139      8.00      8.00       15.9949
   12  N              -0.0060    2.2398    1.0591      7.00      7.00       14.0031
   13  H               0.5971    2.1215    1.8628      1.00      1.00        1.0078
   14  H              -0.8383    1.6829    1.2289      1.00      1.00        1.0078
   15  C              -0.1432    1.8886   -1.2785      6.00      6.00       12.0000
   16  N              -0.7199    2.2156   -2.2471      7.00      7.00       14.0031


 FRAGMENTS
 =========                                     Atoms in this Fragment     Cart. coord.s (Angstrom)
                                               -------------------------------------------------------
    1  fA                                                1  F           -1.1144   -0.0278    0.2686
    2  fB                                                2  C            0.8227    0.0446   -0.0172
                                                         5  C            0.6357    1.5866   -0.0638
                                                        15  C           -0.1432    1.8886   -1.2785
                                                         3  H            1.6169    2.0394   -0.2104
                                                         7  H           -0.2909   -0.8234   -1.3255
                                                         8  H            1.1793   -1.5727   -1.0992
                                                        13  H            0.5971    2.1215    1.8628
                                                        14  H           -0.8383    1.6829    1.2289
                                                         4  Br           3.2074   -0.0016    0.0574
                                                         6  N            0.7073   -0.6840   -1.1988
                                                         9  N            0.8032   -0.7156    1.3032
                                                        12  N           -0.0060    2.2398    1.0591
                                                        16  N           -0.7199    2.2156   -2.2471
                                                        10  O            0.9033   -0.0879    2.3483
                                                        11  O            0.7024   -1.9307    1.2139


 Interatomic Distance Matrix (Angstrom)
 --------------------------------------

   1)     0.000
   2)     1.959   0.000
   3)     3.459   2.156   0.000
   4)     4.327   2.386   2.601   0.000
   5)     2.404   1.554   1.091   3.025   0.000
   6)     2.430   1.393   3.037   2.880   2.540   0.000
   7)     1.963   1.925   3.617   3.850   2.874   1.016   0.000
   8)     3.085   1.978   3.745   2.814   3.369   1.011   1.666   0.000
   9)     2.285   1.524   3.247   2.800   2.683   2.504   2.849   2.578   0.000
  10)     2.898   2.371   3.403   3.250   2.948   3.602   3.932   3.764   1.223   0.000
  11)     2.796   2.331   4.316   3.367   3.743   2.716   2.943   2.389   1.223   2.173
          0.000
  12)     2.645   2.581   2.070   4.044   1.449   3.762   3.892   4.539   3.074   2.812
          4.233   0.000
  13)     3.176   2.810   2.312   3.818   2.000   4.154   4.430   4.771   2.899   2.283
          4.105   1.012   0.000
  14)     1.981   2.645   2.868   4.536   1.963   3.726   3.620   4.482   2.907   2.724
          3.928   1.016   1.629   0.000
  15)     2.647   2.434   2.064   4.072   1.474   2.711   2.716   3.710   3.787   4.261
          4.638   2.368   3.236   2.610   0.000
  16)     3.394   3.473   3.105   5.065   2.646   3.398   3.205   4.390   4.849   5.391
          5.585   3.383   4.317   3.519   1.174   0.000

 Min. Distance =    1.0111
 Max. Distance =    5.5851



 =====================================
 S Y M M E T R Y ,   E L E C T R O N S
 =====================================
  
 Symmetry: NOSYM

 Irreducible Representations, including subspecies
 -------------------------------------------------
 A


 Configuration of Valence Electrons
 ==================================
 ( determined in the SCF procedure )

 Total:   112

 Net Charge: -1 (Nuclei minus Electrons)

 Aufbau principle for MO occupations will be applied through SCF cycle no.     100
 Thereafter, the program will assign electrons to MOs that are spatially
 similar to the occupied MOs in a "reference" cycle ("KeepOrbitals").
 The reference cycle is always the PREVIOUS cycle: it will evolve with
 the SCF procedure.
 ***************************************************************************************************



                                      ****************************************
                                      *  B U I L D : (Fragments, Functions)  *
                                      ****************************************
  

 The individual fragments are copies of the corresponding 'Master' fragments defined on the fragment files.
 However, they may have been rotated (and translated) with respect to the Master. The local coordinate axes
 of each fragment (which define for instance the spatial orientation in the current molecule of a fragment
 P:x orbital) are not necessarily those of the molecule.
 The local frame (if different from the molecular one) is printed to enable an interpretation of the expan-
 sion of an MO in Fragment Orbitals.



                                              ************************
                                              *  Fragment Type : fA  *
                                              ************************
  

 Fragment no.    1   (in the list of all fragments)
 -----------------
 The local coordinate frame is identical to the molecular frame.

 Check Atomic Coordinates:

                  Master (on file)          After Computed Tranformation               As specified on Input
           ----------------------------     ----------------------------     ---------------------------------
     1)    -1.11442  -0.02775   0.26859     -1.11442  -0.02775   0.26859       1  -1.11442  -0.02775   0.26859



                                              ************************
                                              *  Fragment Type : fB  *
                                              ************************
  

 Fragment no.    2   (in the list of all fragments)
 -----------------
 The local coordinate frame is identical to the molecular frame.

 Check Atomic Coordinates:

                  Master (on file)          After Computed Tranformation               As specified on Input
           ----------------------------     ----------------------------     ---------------------------------
     1)     0.82268   0.04463  -0.01721      0.82268   0.04463  -0.01721       2   0.82268   0.04463  -0.01721
     2)     0.63570   1.58664  -0.06380      0.63570   1.58664  -0.06380       5   0.63570   1.58664  -0.06380
     3)    -0.14322   1.88857  -1.27855     -0.14322   1.88857  -1.27855      15  -0.14322   1.88857  -1.27855
     4)     1.61695   2.03939  -0.21037      1.61695   2.03939  -0.21037       3   1.61695   2.03939  -0.21037
     5)    -0.29090  -0.82345  -1.32553     -0.29090  -0.82345  -1.32553       7  -0.29090  -0.82345  -1.32553
     6)     1.17931  -1.57269  -1.09924      1.17931  -1.57269  -1.09924       8   1.17931  -1.57269  -1.09924
     7)     0.59706   2.12153   1.86278      0.59706   2.12153   1.86278      13   0.59706   2.12153   1.86278
     8)    -0.83830   1.68292   1.22894     -0.83830   1.68292   1.22894      14  -0.83830   1.68292   1.22894
     9)     3.20740  -0.00157   0.05739      3.20740  -0.00157   0.05739       4   3.20740  -0.00157   0.05739
    10)     0.70735  -0.68403  -1.19876      0.70735  -0.68403  -1.19876       6   0.70735  -0.68403  -1.19876
    11)     0.80321  -0.71560   1.30316      0.80321  -0.71560   1.30316       9   0.80321  -0.71560   1.30316
    12)    -0.00603   2.23978   1.05914     -0.00603   2.23978   1.05914      12  -0.00603   2.23978   1.05914
    13)    -0.71992   2.21561  -2.24710     -0.71992   2.21561  -2.24710      16  -0.71992   2.21561  -2.24710
    14)     0.90330  -0.08787   2.34825      0.90330  -0.08787   2.34825      10   0.90330  -0.08787   2.34825
    15)     0.70240  -1.93070   1.21390      0.70240  -1.93070   1.21390      11   0.70240  -1.93070   1.21390



 =======
 S F O s  ***  (Symmetrized Fragment Orbitals)  ***
 =======
  
 SFOs are linear combinations of (valence) Fragment Orbitals (FOs), such that the SFOs transform as the
 irreducible representations of the (molecular) symmetry group. Each SFO is therefore characterized by
 an irrep of the molecule and by a few (or only one) generating FOs.
 The SFOs constitute a symmetry-adapted basis for the Fock matrix. The MO eigenvector coefficients in
 this basis provide a direct interpretation of the MOs in terms of Frontier Orbital Theory.

 The SFOs are combined with auxiliary Core Functions (CFs) to ensure orthogonalization on the (frozen)
 Core Orbitals (COs). The Core-orthogonalized SFOs (CSFOs) constitute the true Fock basis.

 The FOs, and hence also the (C)SFOs are combinations of the elementary basis functions (BAS). The basis
 functions that participate in the description of the SFOs depend on the irrep. The indices of the
 involved functions are printed below for each irrep.
 (The complete list of primitive basis functions is printed in another section)

 Total nr. of (C)SFOs (summation over all irreps) :   371

 NOTE: a (C)SFO that is defined as a combination of more than one FO is usually NOT normalized.



                                       === A ===
 Nr. of SFOs :  371
 Cartesian basis functions that participate in this irrep (total number =   423) :
      1     2     3     4     5     6     9    12     7    10
     13     8    11    14    15    16    17    18    19    20
     21    22    23    24    25    26    27    28    29    30
     31    32    33    34    35    36    39    42    37    40
     43    38    41    44    45    46    47    48    49    50
     51    52    53    54    55    56    57    58    59    60
     61    62    63    64    65    66    69    72    67    70
     73    68    71    74    75    76    77    78    79    80
     81    82    83    84    85    86    87    88    89    90
     91    92    93    94    95    96    99   102    97   100
    103    98   101   104   105   106   107   108   109   110
    111   112   113   114   115   116   117   118   119   120
    121   122   123   124   125   126   127   128   129   130
    131   132   133   134   135   136   137   138   139   140
    141   142   143   144   145   146   147   148   149   150
    151   152   153   154   155   156   157   158   159   160
    161   162   163   164   165   166   167   168   169   170
    171   172   173   174   175   176   177   178   179   180
    181   182   183   190   191   216   217   218   184   187
    192   195   219   222   225   185   188   193   196   220
    223   226   186   189   194   197   221   224   227   198
    204   210   228   199   205   211   229   200   206   212
    230   201   207   213   231   202   208   214   232   203
    209   215   233   234   235   236   237   238   239   240
    241   242   243   244   245   246   247   248   249   252
    255   250   253   256   251   254   257   258   259   260
    261   262   263   264   265   266   267   268   269   270
    271   272   273   274   275   276   277   278   279   282
    285   280   283   286   281   284   287   288   289   290
    291   292   293   294   295   296   297   298   299   300
    301   302   303   304   305   306   307   308   309   312
    315   310   313   316   311   314   317   318   319   320
    321   322   323   324   325   326   327   328   329   330
    331   332   333   334   335   336   337   338   339   342
    345   340   343   346   341   344   347   348   349   350
    351   352   353   354   355   356   357   358   359   360
    361   362   363   364   365   366   367   368   369   372
    375   370   373   376   371   374   377   378   379   380
    381   382   383   384   385   386   387   388   389   390
    391   392   393   394   395   396   397   398   399   402
    405   400   403   406   401   404   407   408   409   410
    411   412   413   414   415   416   417   418   419   420
    421   422   423

    SFO  (index         Fragment          Generating    Expansion in Fragment Orbitals
  indx  incl.CFs)   Occup   Orb.Energy   FragmentType  Coeff.   Orbital     on Fragment
 --------------------------------------------------------------------------------------
     1       1      2.000     -23.816 au  fA            1.00      1 A               1
                        (    -648.061 eV)
     2       2      2.000      -0.558 au  fA            1.00      2 A               1
                        (     -15.175 eV)
     3       3      2.000       0.108 au  fA            1.00      3 A               1
                        (       2.943 eV)
     4       4      2.000       0.108 au  fA            1.00      4 A               1
                        (       2.943 eV)
     5       5      2.000       0.108 au  fA            1.00      5 A               1
                        (       2.943 eV)
     6       6       --         0.286 au  fA            1.00      6 A               1
                        (       7.775 eV)
     7       7       --         0.812 au  fA            1.00      7 A               1
                        (      22.094 eV)
     8       8       --         0.812 au  fA            1.00      8 A               1
                        (      22.094 eV)
     9       9       --         0.812 au  fA            1.00      9 A               1
                        (      22.094 eV)
    10      10       --         1.565 au  fA            1.00     10 A               1
                        (      42.594 eV)
    11      11       --         1.565 au  fA            1.00     11 A               1
                        (      42.594 eV)
    12      12       --         1.565 au  fA            1.00     12 A               1
                        (      42.594 eV)
    13      13       --         1.565 au  fA            1.00     13 A               1
                        (      42.594 eV)
    14      14       --         1.565 au  fA            1.00     14 A               1
                        (      42.594 eV)
    15      15       --         2.036 au  fA            1.00     15 A               1
                        (      55.390 eV)
    16      16       --         3.895 au  fA            1.00     16 A               1
                        (     106.000 eV)
    17      17       --         3.895 au  fA            1.00     17 A               1
                        (     106.000 eV)
    18      18       --         3.895 au  fA            1.00     18 A               1
                        (     106.000 eV)
    19      19       --         3.895 au  fA            1.00     19 A               1
                        (     106.000 eV)
    20      20       --         3.895 au  fA            1.00     20 A               1
                        (     106.000 eV)
    21      21       --         3.895 au  fA            1.00     21 A               1
                        (     106.000 eV)
    22      22       --         3.895 au  fA            1.00     22 A               1
                        (     106.000 eV)
    23      23       --         5.080 au  fA            1.00     23 A               1
                        (     138.227 eV)
    24      24       --         5.080 au  fA            1.00     24 A               1
                        (     138.227 eV)
    25      25       --         5.080 au  fA            1.00     25 A               1
                        (     138.227 eV)
    26      26       --        48.370 au  fA            1.00     26 A               1
                        (    1316.209 eV)
    27      27      2.000    -488.625 au  fB            1.00      1 A               2
                        (  -13296.163 eV)
    28      28      2.000     -63.564 au  fB            1.00      2 A               2
                        (   -1729.677 eV)
    29      29      2.000     -56.104 au  fB            1.00      3 A               2
                        (   -1526.666 eV)
    30      30      2.000     -56.100 au  fB            1.00      4 A               2
                        (   -1526.551 eV)
    31      31      2.000     -56.100 au  fB            1.00      5 A               2
                        (   -1526.548 eV)
    32      32      2.000     -18.872 au  fB            1.00      6 A               2
                        (    -513.521 eV)
    33      33      2.000     -18.869 au  fB            1.00      7 A               2
                        (    -513.453 eV)
    34      34      2.000     -14.290 au  fB            1.00      8 A               2
                        (    -388.842 eV)
    35      35      2.000     -14.095 au  fB            1.00      9 A               2
                        (    -383.533 eV)
    36      36      2.000     -14.055 au  fB            1.00     10 A               2
                        (    -382.463 eV)
    37      37      2.000     -14.050 au  fB            1.00     11 A               2
                        (    -382.326 eV)
    38      38      2.000     -10.111 au  fB            1.00     12 A               2
                        (    -275.147 eV)
    39      39      2.000     -10.051 au  fB            1.00     13 A               2
                        (    -273.503 eV)
    40      40      2.000      -9.988 au  fB            1.00     14 A               2
                        (    -271.787 eV)
    41      41      2.000      -8.685 au  fB            1.00     15 A               2
                        (    -236.318 eV)
    42      42      2.000      -6.349 au  fB            1.00     16 A               2
                        (    -172.773 eV)
    43      43      2.000      -6.337 au  fB            1.00     17 A               2
                        (    -172.437 eV)
    44      44      2.000      -6.337 au  fB            1.00     18 A               2
                        (    -172.431 eV)
    45      45      2.000      -2.432 au  fB            1.00     19 A               2
                        (     -66.189 eV)
    46      46      2.000      -2.429 au  fB            1.00     20 A               2
                        (     -66.109 eV)
    47      47      2.000      -2.429 au  fB            1.00     21 A               2
                        (     -66.104 eV)
    48      48      2.000      -2.420 au  fB            1.00     22 A               2
                        (     -65.856 eV)
    49      49      2.000      -2.420 au  fB            1.00     23 A               2
                        (     -65.855 eV)
    50      50      2.000      -1.177 au  fB            1.00     24 A               2
                        (     -32.025 eV)
    51      51      2.000      -1.015 au  fB            1.00     25 A               2
                        (     -27.624 eV)
    52      52      2.000      -0.924 au  fB            1.00     26 A               2
                        (     -25.150 eV)
    53      53      2.000      -0.879 au  fB            1.00     27 A               2
                        (     -23.905 eV)
    54      54      2.000      -0.839 au  fB            1.00     28 A               2
                        (     -22.839 eV)
    55      55      2.000      -0.756 au  fB            1.00     29 A               2
                        (     -20.563 eV)
    56      56      2.000      -0.716 au  fB            1.00     30 A               2
                        (     -19.483 eV)
    57      57      2.000      -0.703 au  fB            1.00     31 A               2
                        (     -19.143 eV)
    58      58      2.000      -0.582 au  fB            1.00     32 A               2
                        (     -15.824 eV)
    59      59      2.000      -0.554 au  fB            1.00     33 A               2
                        (     -15.072 eV)
    60      60      2.000      -0.537 au  fB            1.00     34 A               2
                        (     -14.612 eV)
    61      61      2.000      -0.529 au  fB            1.00     35 A               2
                        (     -14.406 eV)
    62      62      2.000      -0.512 au  fB            1.00     36 A               2
                        (     -13.944 eV)
    63      63      2.000      -0.504 au  fB            1.00     37 A               2
                        (     -13.706 eV)
    64      64      2.000      -0.476 au  fB            1.00     38 A               2
                        (     -12.951 eV)
    65      65      2.000      -0.462 au  fB            1.00     39 A               2
                        (     -12.584 eV)
    66      66      2.000      -0.421 au  fB            1.00     40 A               2
                        (     -11.469 eV)
    67      67      2.000      -0.347 au  fB            1.00     41 A               2
                        (      -9.443 eV)
    68      68      2.000      -0.340 au  fB            1.00     42 A               2
                        (      -9.248 eV)
    69      69      2.000      -0.333 au  fB            1.00     43 A               2
                        (      -9.051 eV)
    70      70      2.000      -0.325 au  fB            1.00     44 A               2
                        (      -8.838 eV)
    71      71      2.000      -0.323 au  fB            1.00     45 A               2
                        (      -8.781 eV)
    72      72      2.000      -0.318 au  fB            1.00     46 A               2
                        (      -8.645 eV)
    73      73      2.000      -0.295 au  fB            1.00     47 A               2
                        (      -8.038 eV)
    74      74      2.000      -0.287 au  fB            1.00     48 A               2
                        (      -7.823 eV)
    75      75      2.000      -0.266 au  fB            1.00     49 A               2
                        (      -7.229 eV)
    76      76      2.000      -0.263 au  fB            1.00     50 A               2
                        (      -7.145 eV)
    77      77      2.000      -0.257 au  fB            1.00     51 A               2
                        (      -6.984 eV)
    78      78       --        -0.193 au  fB            1.00     52 A               2
                        (      -5.262 eV)
    79      79       --        -0.118 au  fB            1.00     53 A               2
                        (      -3.216 eV)
    80      80       --        -0.059 au  fB            1.00     54 A               2
                        (      -1.607 eV)
    81      81       --        -0.047 au  fB            1.00     55 A               2
                        (      -1.289 eV)
    82      82       --        -0.034 au  fB            1.00     56 A               2
                        (      -0.912 eV)
    83      83       --        -0.002 au  fB            1.00     57 A               2
                        (      -0.061 eV)
    84      84       --         0.005 au  fB            1.00     58 A               2
                        (       0.137 eV)
    85      85       --         0.012 au  fB            1.00     59 A               2
                        (       0.328 eV)
    86      86       --         0.037 au  fB            1.00     60 A               2
                        (       1.019 eV)
    87      87       --         0.046 au  fB            1.00     61 A               2
                        (       1.255 eV)
    88      88       --         0.068 au  fB            1.00     62 A               2
                        (       1.845 eV)
    89      89       --         0.088 au  fB            1.00     63 A               2
                        (       2.382 eV)
    90      90       --         0.104 au  fB            1.00     64 A               2
                        (       2.822 eV)
    91      91       --         0.119 au  fB            1.00     65 A               2
                        (       3.249 eV)
    92      92       --         0.128 au  fB            1.00     66 A               2
                        (       3.473 eV)
    93      93       --         0.144 au  fB            1.00     67 A               2
                        (       3.918 eV)
    94      94       --         0.147 au  fB            1.00     68 A               2
                        (       4.008 eV)
    95      95       --         0.154 au  fB            1.00     69 A               2
                        (       4.199 eV)
    96      96       --         0.167 au  fB            1.00     70 A               2
                        (       4.550 eV)
    97      97       --         0.176 au  fB            1.00     71 A               2
                        (       4.795 eV)
    98      98       --         0.188 au  fB            1.00     72 A               2
                        (       5.123 eV)
    99      99       --         0.197 au  fB            1.00     73 A               2
                        (       5.373 eV)
   100     100       --         0.204 au  fB            1.00     74 A               2
                        (       5.560 eV)
   101     101       --         0.208 au  fB            1.00     75 A               2
                        (       5.669 eV)
   102     102       --         0.223 au  fB            1.00     76 A               2
                        (       6.076 eV)
   103     103       --         0.231 au  fB            1.00     77 A               2
                        (       6.298 eV)
   104     104       --         0.243 au  fB            1.00     78 A               2
                        (       6.626 eV)
   105     105       --         0.253 au  fB            1.00     79 A               2
                        (       6.888 eV)
   106     106       --         0.262 au  fB            1.00     80 A               2
                        (       7.118 eV)
   107     107       --         0.271 au  fB            1.00     81 A               2
                        (       7.366 eV)
   108     108       --         0.279 au  fB            1.00     82 A               2
                        (       7.589 eV)
   109     109       --         0.298 au  fB            1.00     83 A               2
                        (       8.098 eV)
   110     110       --         0.315 au  fB            1.00     84 A               2
                        (       8.574 eV)
   111     111       --         0.317 au  fB            1.00     85 A               2
                        (       8.638 eV)
   112     112       --         0.334 au  fB            1.00     86 A               2
                        (       9.095 eV)
   113     113       --         0.338 au  fB            1.00     87 A               2
                        (       9.195 eV)
   114     114       --         0.354 au  fB            1.00     88 A               2
                        (       9.640 eV)
   115     115       --         0.387 au  fB            1.00     89 A               2
                        (      10.533 eV)
   116     116       --         0.396 au  fB            1.00     90 A               2
                        (      10.767 eV)
   117     117       --         0.405 au  fB            1.00     91 A               2
                        (      11.029 eV)
   118     118       --         0.407 au  fB            1.00     92 A               2
                        (      11.085 eV)
   119     119       --         0.420 au  fB            1.00     93 A               2
                        (      11.433 eV)
   120     120       --         0.438 au  fB            1.00     94 A               2
                        (      11.919 eV)
   121     121       --         0.446 au  fB            1.00     95 A               2
                        (      12.133 eV)
   122     122       --         0.472 au  fB            1.00     96 A               2
                        (      12.842 eV)
   123     123       --         0.485 au  fB            1.00     97 A               2
                        (      13.202 eV)
   124     124       --         0.514 au  fB            1.00     98 A               2
                        (      13.983 eV)
   125     125       --         0.522 au  fB            1.00     99 A               2
                        (      14.193 eV)
   126     126       --         0.534 au  fB            1.00    100 A               2
                        (      14.521 eV)
   127     127       --         0.547 au  fB            1.00    101 A               2
                        (      14.887 eV)
   128     128       --         0.573 au  fB            1.00    102 A               2
                        (      15.598 eV)
   129     129       --         0.627 au  fB            1.00    103 A               2
                        (      17.074 eV)
   130     130       --         0.637 au  fB            1.00    104 A               2
                        (      17.341 eV)
   131     131       --         0.648 au  fB            1.00    105 A               2
                        (      17.626 eV)
   132     132       --         0.654 au  fB            1.00    106 A               2
                        (      17.794 eV)
   133     133       --         0.693 au  fB            1.00    107 A               2
                        (      18.844 eV)
   134     134       --         0.714 au  fB            1.00    108 A               2
                        (      19.427 eV)
   135     135       --         0.728 au  fB            1.00    109 A               2
                        (      19.805 eV)
   136     136       --         0.736 au  fB            1.00    110 A               2
                        (      20.030 eV)
   137     137       --         0.753 au  fB            1.00    111 A               2
                        (      20.499 eV)
   138     138       --         0.781 au  fB            1.00    112 A               2
                        (      21.247 eV)
   139     139       --         0.786 au  fB            1.00    113 A               2
                        (      21.394 eV)
   140     140       --         0.817 au  fB            1.00    114 A               2
                        (      22.222 eV)
   141     141       --         0.847 au  fB            1.00    115 A               2
                        (      23.038 eV)
   142     142       --         0.886 au  fB            1.00    116 A               2
                        (      24.097 eV)
   143     143       --         0.888 au  fB            1.00    117 A               2
                        (      24.173 eV)
   144     144       --         0.893 au  fB            1.00    118 A               2
                        (      24.299 eV)
   145     145       --         0.900 au  fB            1.00    119 A               2
                        (      24.482 eV)
   146     146       --         0.929 au  fB            1.00    120 A               2
                        (      25.287 eV)
   147     147       --         0.943 au  fB            1.00    121 A               2
                        (      25.668 eV)
   148     148       --         0.966 au  fB            1.00    122 A               2
                        (      26.277 eV)
   149     149       --         0.996 au  fB            1.00    123 A               2
                        (      27.092 eV)
   150     150       --         1.001 au  fB            1.00    124 A               2
                        (      27.229 eV)
   151     151       --         1.024 au  fB            1.00    125 A               2
                        (      27.867 eV)
   152     152       --         1.029 au  fB            1.00    126 A               2
                        (      28.010 eV)
   153     153       --         1.046 au  fB            1.00    127 A               2
                        (      28.453 eV)
   154     154       --         1.070 au  fB            1.00    128 A               2
                        (      29.112 eV)
   155     155       --         1.085 au  fB            1.00    129 A               2
                        (      29.525 eV)
   156     156       --         1.120 au  fB            1.00    130 A               2
                        (      30.476 eV)
   157     157       --         1.136 au  fB            1.00    131 A               2
                        (      30.923 eV)
   158     158       --         1.160 au  fB            1.00    132 A               2
                        (      31.577 eV)
   159     159       --         1.172 au  fB            1.00    133 A               2
                        (      31.881 eV)
   160     160       --         1.208 au  fB            1.00    134 A               2
                        (      32.866 eV)
   161     161       --         1.216 au  fB            1.00    135 A               2
                        (      33.084 eV)
   162     162       --         1.222 au  fB            1.00    136 A               2
                        (      33.242 eV)
   163     163       --         1.231 au  fB            1.00    137 A               2
                        (      33.486 eV)
   164     164       --         1.246 au  fB            1.00    138 A               2
                        (      33.915 eV)
   165     165       --         1.262 au  fB            1.00    139 A               2
                        (      34.336 eV)
   166     166       --         1.282 au  fB            1.00    140 A               2
                        (      34.890 eV)
   167     167       --         1.290 au  fB            1.00    141 A               2
                        (      35.100 eV)
   168     168       --         1.320 au  fB            1.00    142 A               2
                        (      35.907 eV)
   169     169       --         1.325 au  fB            1.00    143 A               2
                        (      36.056 eV)
   170     170       --         1.338 au  fB            1.00    144 A               2
                        (      36.411 eV)
   171     171       --         1.371 au  fB            1.00    145 A               2
                        (      37.298 eV)
   172     172       --         1.399 au  fB            1.00    146 A               2
                        (      38.059 eV)
   173     173       --         1.414 au  fB            1.00    147 A               2
                        (      38.474 eV)
   174     174       --         1.443 au  fB            1.00    148 A               2
                        (      39.253 eV)
   175     175       --         1.456 au  fB            1.00    149 A               2
                        (      39.617 eV)
   176     176       --         1.474 au  fB            1.00    150 A               2
                        (      40.112 eV)
   177     177       --         1.488 au  fB            1.00    151 A               2
                        (      40.496 eV)
   178     178       --         1.520 au  fB            1.00    152 A               2
                        (      41.372 eV)
   179     179       --         1.555 au  fB            1.00    153 A               2
                        (      42.321 eV)
   180     180       --         1.566 au  fB            1.00    154 A               2
                        (      42.617 eV)
   181     181       --         1.591 au  fB            1.00    155 A               2
                        (      43.305 eV)
   182     182       --         1.619 au  fB            1.00    156 A               2
                        (      44.049 eV)
   183     183       --         1.631 au  fB            1.00    157 A               2
                        (      44.387 eV)
   184     184       --         1.661 au  fB            1.00    158 A               2
                        (      45.202 eV)
   185     185       --         1.679 au  fB            1.00    159 A               2
                        (      45.682 eV)
   186     186       --         1.721 au  fB            1.00    160 A               2
                        (      46.825 eV)
   187     187       --         1.756 au  fB            1.00    161 A               2
                        (      47.774 eV)
   188     188       --         1.767 au  fB            1.00    162 A               2
                        (      48.076 eV)
   189     189       --         1.787 au  fB            1.00    163 A               2
                        (      48.635 eV)
   190     190       --         1.823 au  fB            1.00    164 A               2
                        (      49.594 eV)
   191     191       --         1.850 au  fB            1.00    165 A               2
                        (      50.335 eV)
   192     192       --         1.865 au  fB            1.00    166 A               2
                        (      50.757 eV)
   193     193       --         1.886 au  fB            1.00    167 A               2
                        (      51.321 eV)
   194     194       --         1.944 au  fB            1.00    168 A               2
                        (      52.897 eV)
   195     195       --         1.965 au  fB            1.00    169 A               2
                        (      53.478 eV)
   196     196       --         2.012 au  fB            1.00    170 A               2
                        (      54.737 eV)
   197     197       --         2.032 au  fB            1.00    171 A               2
                        (      55.295 eV)
   198     198       --         2.050 au  fB            1.00    172 A               2
                        (      55.791 eV)
   199     199       --         2.092 au  fB            1.00    173 A               2
                        (      56.937 eV)
   200     200       --         2.111 au  fB            1.00    174 A               2
                        (      57.442 eV)
   201     201       --         2.131 au  fB            1.00    175 A               2
                        (      57.984 eV)
   202     202       --         2.167 au  fB            1.00    176 A               2
                        (      58.960 eV)
   203     203       --         2.207 au  fB            1.00    177 A               2
                        (      60.062 eV)
   204     204       --         2.258 au  fB            1.00    178 A               2
                        (      61.434 eV)
   205     205       --         2.276 au  fB            1.00    179 A               2
                        (      61.945 eV)
   206     206       --         2.304 au  fB            1.00    180 A               2
                        (      62.695 eV)
   207     207       --         2.329 au  fB            1.00    181 A               2
                        (      63.372 eV)
   208     208       --         2.376 au  fB            1.00    182 A               2
                        (      64.653 eV)
   209     209       --         2.404 au  fB            1.00    183 A               2
                        (      65.419 eV)
   210     210       --         2.416 au  fB            1.00    184 A               2
                        (      65.731 eV)
   211     211       --         2.441 au  fB            1.00    185 A               2
                        (      66.434 eV)
   212     212       --         2.449 au  fB            1.00    186 A               2
                        (      66.641 eV)
   213     213       --         2.517 au  fB            1.00    187 A               2
                        (      68.492 eV)
   214     214       --         2.528 au  fB            1.00    188 A               2
                        (      68.795 eV)
   215     215       --         2.593 au  fB            1.00    189 A               2
                        (      70.558 eV)
   216     216       --         2.624 au  fB            1.00    190 A               2
                        (      71.400 eV)
   217     217       --         2.632 au  fB            1.00    191 A               2
                        (      71.611 eV)
   218     218       --         2.656 au  fB            1.00    192 A               2
                        (      72.264 eV)
   219     219       --         2.685 au  fB            1.00    193 A               2
                        (      73.050 eV)
   220     220       --         2.737 au  fB            1.00    194 A               2
                        (      74.473 eV)
   221     221       --         2.782 au  fB            1.00    195 A               2
                        (      75.713 eV)
   222     222       --         2.789 au  fB            1.00    196 A               2
                        (      75.896 eV)
   223     223       --         2.826 au  fB            1.00    197 A               2
                        (      76.900 eV)
   224     224       --         2.834 au  fB            1.00    198 A               2
                        (      77.125 eV)
   225     225       --         2.890 au  fB            1.00    199 A               2
                        (      78.649 eV)
   226     226       --         2.906 au  fB            1.00    200 A               2
                        (      79.086 eV)
   227     227       --         2.922 au  fB            1.00    201 A               2
                        (      79.499 eV)
   228     228       --         2.934 au  fB            1.00    202 A               2
                        (      79.849 eV)
   229     229       --         2.981 au  fB            1.00    203 A               2
                        (      81.111 eV)
   230     230       --         2.988 au  fB            1.00    204 A               2
                        (      81.304 eV)
   231     231       --         3.016 au  fB            1.00    205 A               2
                        (      82.081 eV)
   232     232       --         3.025 au  fB            1.00    206 A               2
                        (      82.307 eV)
   233     233       --         3.071 au  fB            1.00    207 A               2
                        (      83.567 eV)
   234     234       --         3.081 au  fB            1.00    208 A               2
                        (      83.851 eV)
   235     235       --         3.102 au  fB            1.00    209 A               2
                        (      84.407 eV)
   236     236       --         3.197 au  fB            1.00    210 A               2
                        (      87.005 eV)
   237     237       --         3.208 au  fB            1.00    211 A               2
                        (      87.305 eV)
   238     238       --         3.234 au  fB            1.00    212 A               2
                        (      88.004 eV)
   239     239       --         3.250 au  fB            1.00    213 A               2
                        (      88.437 eV)
   240     240       --         3.292 au  fB            1.00    214 A               2
                        (      89.575 eV)
   241     241       --         3.309 au  fB            1.00    215 A               2
                        (      90.032 eV)
   242     242       --         3.342 au  fB            1.00    216 A               2
                        (      90.930 eV)
   243     243       --         3.380 au  fB            1.00    217 A               2
                        (      91.972 eV)
   244     244       --         3.439 au  fB            1.00    218 A               2
                        (      93.583 eV)
   245     245       --         3.444 au  fB            1.00    219 A               2
                        (      93.707 eV)
   246     246       --         3.486 au  fB            1.00    220 A               2
                        (      94.850 eV)
   247     247       --         3.494 au  fB            1.00    221 A               2
                        (      95.070 eV)
   248     248       --         3.518 au  fB            1.00    222 A               2
                        (      95.725 eV)
   249     249       --         3.540 au  fB            1.00    223 A               2
                        (      96.341 eV)
   250     250       --         3.556 au  fB            1.00    224 A               2
                        (      96.776 eV)
   251     251       --         3.573 au  fB            1.00    225 A               2
                        (      97.235 eV)
   252     252       --         3.586 au  fB            1.00    226 A               2
                        (      97.582 eV)
   253     253       --         3.621 au  fB            1.00    227 A               2
                        (      98.535 eV)
   254     254       --         3.644 au  fB            1.00    228 A               2
                        (      99.155 eV)
   255     255       --         3.671 au  fB            1.00    229 A               2
                        (      99.905 eV)
   256     256       --         3.694 au  fB            1.00    230 A               2
                        (     100.506 eV)
   257     257       --         3.729 au  fB            1.00    231 A               2
                        (     101.477 eV)
   258     258       --         3.748 au  fB            1.00    232 A               2
                        (     101.983 eV)
   259     259       --         3.763 au  fB            1.00    233 A               2
                        (     102.401 eV)
   260     260       --         3.805 au  fB            1.00    234 A               2
                        (     103.526 eV)
   261     261       --         3.818 au  fB            1.00    235 A               2
                        (     103.904 eV)
   262     262       --         3.829 au  fB            1.00    236 A               2
                        (     104.194 eV)
   263     263       --         3.857 au  fB            1.00    237 A               2
                        (     104.957 eV)
   264     264       --         3.868 au  fB            1.00    238 A               2
                        (     105.242 eV)
   265     265       --         3.888 au  fB            1.00    239 A               2
                        (     105.803 eV)
   266     266       --         3.931 au  fB            1.00    240 A               2
                        (     106.958 eV)
   267     267       --         3.954 au  fB            1.00    241 A               2
                        (     107.589 eV)
   268     268       --         3.968 au  fB            1.00    242 A               2
                        (     107.984 eV)
   269     269       --         3.988 au  fB            1.00    243 A               2
                        (     108.517 eV)
   270     270       --         4.032 au  fB            1.00    244 A               2
                        (     109.725 eV)
   271     271       --         4.048 au  fB            1.00    245 A               2
                        (     110.154 eV)
   272     272       --         4.071 au  fB            1.00    246 A               2
                        (     110.779 eV)
   273     273       --         4.105 au  fB            1.00    247 A               2
                        (     111.705 eV)
   274     274       --         4.110 au  fB            1.00    248 A               2
                        (     111.839 eV)
   275     275       --         4.141 au  fB            1.00    249 A               2
                        (     112.681 eV)
   276     276       --         4.160 au  fB            1.00    250 A               2
                        (     113.203 eV)
   277     277       --         4.253 au  fB            1.00    251 A               2
                        (     115.736 eV)
   278     278       --         4.302 au  fB            1.00    252 A               2
                        (     117.074 eV)
   279     279       --         4.343 au  fB            1.00    253 A               2
                        (     118.171 eV)
   280     280       --         4.358 au  fB            1.00    254 A               2
                        (     118.582 eV)
   281     281       --         4.377 au  fB            1.00    255 A               2
                        (     119.108 eV)
   282     282       --         4.392 au  fB            1.00    256 A               2
                        (     119.522 eV)
   283     283       --         4.404 au  fB            1.00    257 A               2
                        (     119.838 eV)
   284     284       --         4.467 au  fB            1.00    258 A               2
                        (     121.555 eV)
   285     285       --         4.486 au  fB            1.00    259 A               2
                        (     122.075 eV)
   286     286       --         4.533 au  fB            1.00    260 A               2
                        (     123.351 eV)
   287     287       --         4.581 au  fB            1.00    261 A               2
                        (     124.655 eV)
   288     288       --         4.641 au  fB            1.00    262 A               2
                        (     126.298 eV)
   289     289       --         4.677 au  fB            1.00    263 A               2
                        (     127.274 eV)
   290     290       --         4.754 au  fB            1.00    264 A               2
                        (     129.373 eV)
   291     291       --         4.781 au  fB            1.00    265 A               2
                        (     130.108 eV)
   292     292       --         4.794 au  fB            1.00    266 A               2
                        (     130.456 eV)
   293     293       --         4.837 au  fB            1.00    267 A               2
                        (     131.624 eV)
   294     294       --         4.898 au  fB            1.00    268 A               2
                        (     133.268 eV)
   295     295       --         4.964 au  fB            1.00    269 A               2
                        (     135.081 eV)
   296     296       --         5.005 au  fB            1.00    270 A               2
                        (     136.190 eV)
   297     297       --         5.028 au  fB            1.00    271 A               2
                        (     136.807 eV)
   298     298       --         5.075 au  fB            1.00    272 A               2
                        (     138.090 eV)
   299     299       --         5.115 au  fB            1.00    273 A               2
                        (     139.197 eV)
   300     300       --         5.136 au  fB            1.00    274 A               2
                        (     139.758 eV)
   301     301       --         5.165 au  fB            1.00    275 A               2
                        (     140.550 eV)
   302     302       --         5.213 au  fB            1.00    276 A               2
                        (     141.855 eV)
   303     303       --         5.259 au  fB            1.00    277 A               2
                        (     143.116 eV)
   304     304       --         5.342 au  fB            1.00    278 A               2
                        (     145.354 eV)
   305     305       --         5.362 au  fB            1.00    279 A               2
                        (     145.920 eV)
   306     306       --         5.446 au  fB            1.00    280 A               2
                        (     148.183 eV)
   307     307       --         5.481 au  fB            1.00    281 A               2
                        (     149.158 eV)
   308     308       --         5.546 au  fB            1.00    282 A               2
                        (     150.902 eV)
   309     309       --         5.598 au  fB            1.00    283 A               2
                        (     152.342 eV)
   310     310       --         5.620 au  fB            1.00    284 A               2
                        (     152.927 eV)
   311     311       --         5.731 au  fB            1.00    285 A               2
                        (     155.944 eV)
   312     312       --         5.822 au  fB            1.00    286 A               2
                        (     158.416 eV)
   313     313       --         5.876 au  fB            1.00    287 A               2
                        (     159.888 eV)
   314     314       --         6.046 au  fB            1.00    288 A               2
                        (     164.509 eV)
   315     315       --         6.148 au  fB            1.00    289 A               2
                        (     167.308 eV)
   316     316       --         6.175 au  fB            1.00    290 A               2
                        (     168.031 eV)
   317     317       --         6.253 au  fB            1.00    291 A               2
                        (     170.152 eV)
   318     318       --         6.260 au  fB            1.00    292 A               2
                        (     170.341 eV)
   319     319       --         6.351 au  fB            1.00    293 A               2
                        (     172.831 eV)
   320     320       --         6.368 au  fB            1.00    294 A               2
                        (     173.290 eV)
   321     321       --         6.401 au  fB            1.00    295 A               2
                        (     174.184 eV)
   322     322       --         6.437 au  fB            1.00    296 A               2
                        (     175.167 eV)
   323     323       --         6.511 au  fB            1.00    297 A               2
                        (     177.171 eV)
   324     324       --         6.582 au  fB            1.00    298 A               2
                        (     179.109 eV)
   325     325       --         6.619 au  fB            1.00    299 A               2
                        (     180.125 eV)
   326     326       --         6.798 au  fB            1.00    300 A               2
                        (     184.985 eV)
   327     327       --         6.868 au  fB            1.00    301 A               2
                        (     186.898 eV)
   328     328       --         6.922 au  fB            1.00    302 A               2
                        (     188.348 eV)
   329     329       --         7.043 au  fB            1.00    303 A               2
                        (     191.647 eV)
   330     330       --         7.061 au  fB            1.00    304 A               2
                        (     192.129 eV)
   331     331       --         7.205 au  fB            1.00    305 A               2
                        (     196.046 eV)
   332     332       --         7.349 au  fB            1.00    306 A               2
                        (     199.972 eV)
   333     333       --         7.450 au  fB            1.00    307 A               2
                        (     202.720 eV)
   334     334       --         7.475 au  fB            1.00    308 A               2
                        (     203.411 eV)
   335     335       --         7.542 au  fB            1.00    309 A               2
                        (     205.241 eV)
   336     336       --         7.620 au  fB            1.00    310 A               2
                        (     207.358 eV)
   337     337       --         7.813 au  fB            1.00    311 A               2
                        (     212.607 eV)
   338     338       --         7.915 au  fB            1.00    312 A               2
                        (     215.373 eV)
   339     339       --         8.380 au  fB            1.00    313 A               2
                        (     228.023 eV)
   340     340       --         8.746 au  fB            1.00    314 A               2
                        (     237.990 eV)
   341     341       --         8.767 au  fB            1.00    315 A               2
                        (     238.556 eV)
   342     342       --         8.935 au  fB            1.00    316 A               2
                        (     243.144 eV)
   343     343       --         8.967 au  fB            1.00    317 A               2
                        (     244.009 eV)
   344     344       --         9.042 au  fB            1.00    318 A               2
                        (     246.039 eV)
   345     345       --         9.377 au  fB            1.00    319 A               2
                        (     255.165 eV)
   346     346       --         9.406 au  fB            1.00    320 A               2
                        (     255.950 eV)
   347     347       --         9.804 au  fB            1.00    321 A               2
                        (     266.779 eV)
   348     348       --         9.940 au  fB            1.00    322 A               2
                        (     270.479 eV)
   349     349       --        10.606 au  fB            1.00    323 A               2
                        (     288.611 eV)
   350     350       --        11.388 au  fB            1.00    324 A               2
                        (     309.881 eV)
   351     351       --        14.565 au  fB            1.00    325 A               2
                        (     396.320 eV)
   352     352       --        15.725 au  fB            1.00    326 A               2
                        (     427.902 eV)
   353     353       --        16.015 au  fB            1.00    327 A               2
                        (     435.797 eV)
   354     354       --        20.692 au  fB            1.00    328 A               2
                        (     563.053 eV)
   355     355       --        20.725 au  fB            1.00    329 A               2
                        (     563.965 eV)
   356     356       --        21.084 au  fB            1.00    330 A               2
                        (     573.715 eV)
   357     357       --        21.135 au  fB            1.00    331 A               2
                        (     575.099 eV)
   358     358       --        21.213 au  fB            1.00    332 A               2
                        (     577.230 eV)
   359     359       --        55.633 au  fB            1.00    333 A               2
                        (    1513.860 eV)
   360     360       --        57.188 au  fB            1.00    334 A               2
                        (    1556.153 eV)
   361     361       --        60.116 au  fB            1.00    335 A               2
                        (    1635.839 eV)
   362     362       --        69.770 au  fB            1.00    336 A               2
                        (    1898.545 eV)
   363     363       --        71.335 au  fB            1.00    337 A               2
                        (    1941.137 eV)
   364     364       --        71.906 au  fB            1.00    338 A               2
                        (    1956.651 eV)
   365     365       --        72.354 au  fB            1.00    339 A               2
                        (    1968.842 eV)
   366     366       --        95.974 au  fB            1.00    340 A               2
                        (    2611.579 eV)
   367     367       --        96.094 au  fB            1.00    341 A               2
                        (    2614.839 eV)
   368     368       --        96.789 au  fB            1.00    342 A               2
                        (    2633.767 eV)
   369     369       --       128.074 au  fB            1.00    343 A               2
                        (    3485.080 eV)
   370     370       --       128.998 au  fB            1.00    344 A               2
                        (    3510.209 eV)
   371     371       --       618.945 au  fB            1.00    345 A               2
                        (   16842.354 eV)



 ================================
 (Slater-type)  F U N C T I O N S  ***  (Basis and Fit)  ***
 ================================
  

 Atom Type    1  (F)
 ==============

 Valence Basis Sets:  10
 -----------------------
   1 S   10.880000
   1 S    7.700000
   2 S    3.240000
   2 S    1.940000
   2 S    0.740000
   2 P    4.540000
   2 P    2.300000
   2 P    1.240000
   3 D    2.000000
   4 F    3.000000

 Atom Type    2  (C)
 ==============

 Valence Basis Sets:  10
 -----------------------
   1 S    7.680000
   1 S    5.000000
   2 S    1.280000
   2 S    2.100000
   2 S    4.600000
   2 P    0.820000
   2 P    1.480000
   2 P    2.940000
   3 D    2.200000
   4 F    3.300000

 Atom Type    3  (H)
 ==============

 Valence Basis Sets:   5
 -----------------------
   1 S    0.690000
   1 S    0.920000
   1 S    1.580000
   2 P    1.250000
   3 D    2.500000

 Atom Type    4  (Br)
 ==============

 Valence Basis Sets:  20
 -----------------------
   1 S   41.300000
   1 S   32.800000
   2 S   13.900000
   2 P   19.450000
   2 P   13.100000
   3 S    7.200000
   3 S    4.950000
   3 P    7.900000
   3 P    5.050000
   3 D   10.900000
   3 D    6.050000
   3 D    3.500000
   4 S    4.500000
   4 S    2.800000
   4 S    1.800000
   4 P    3.250000
   4 P    1.950000
   4 P    1.200000
   4 D    1.800000
   4 F    1.800000

 Atom Type    5  (N)
 ==============

 Valence Basis Sets:  10
 -----------------------
   1 S    8.740000
   1 S    5.900000
   2 S    5.150000
   2 S    2.500000
   2 S    1.500000
   2 P    3.680000
   2 P    1.880000
   2 P    1.000000
   3 D    2.200000
   4 F    3.300000

 Atom Type    6  (O)
 ==============

 Valence Basis Sets:  10
 -----------------------
   1 S    9.800000
   1 S    6.800000
   2 S    7.580000
   2 S    2.880000
   2 S    1.720000
   2 P    4.080000
   2 P    2.080000
   2 P    1.120000
   3 D    2.000000
   4 F    3.000000


 BAS: List of all Elementary Cartesian Basis Functions
 =====================================================

 The numbering in the list below (to the right of the function characteristics) is referred
 to in print-outs of MO eigenvectors and Mulliken populations in the BAS representation
 (as contrasted to the SFO representation).

 Notes:
 1. The functions are characterized by a polynomial prefactor (powers of x,y,z and r) and
    an exponential decay factor alpha.
 2. Since the basis sets are specific for an atom TYPE, the individual functions occur on
    all atoms of that type.
 3. The word 'Core' in the left margin signals that it is a Core Function (CF) : not a
    degree of freedom in the valence set, but only used to ensure orthogonalization of
    the other valence basis functions on the frozen Core Orbitals.


 (power of) X  Y  Z  R     Alpha  on Atom
            ==========     =====     ==========

 F                                    1
                                  ---------------------------------------------------------------------------
            0  0  0  0    10.880      1
            0  0  0  0     7.700      2
            0  0  0  1     3.240      3
            0  0  0  1     1.940      4
            0  0  0  1     0.740      5
            1  0  0  0     4.540      6
            0  1  0  0     4.540      7
            0  0  1  0     4.540      8
            1  0  0  0     2.300      9
            0  1  0  0     2.300     10
            0  0  1  0     2.300     11
            1  0  0  0     1.240     12
            0  1  0  0     1.240     13
            0  0  1  0     1.240     14
            2  0  0  0     2.000     15
            1  1  0  0     2.000     16
            1  0  1  0     2.000     17
            0  2  0  0     2.000     18
            0  1  1  0     2.000     19
            0  0  2  0     2.000     20
            3  0  0  0     3.000     21
            2  1  0  0     3.000     22
            2  0  1  0     3.000     23
            1  2  0  0     3.000     24
            1  1  1  0     3.000     25
            1  0  2  0     3.000     26
            0  3  0  0     3.000     27
            0  2  1  0     3.000     28
            0  1  2  0     3.000     29
            0  0  3  0     3.000     30

 C                                    2    3    4
                                  ---------------------------------------------------------------------------
            0  0  0  0     7.680     31   61   91
            0  0  0  0     5.000     32   62   92
            0  0  0  1     1.280     33   63   93
            0  0  0  1     2.100     34   64   94
            0  0  0  1     4.600     35   65   95
            1  0  0  0     0.820     36   66   96
            0  1  0  0     0.820     37   67   97
            0  0  1  0     0.820     38   68   98
            1  0  0  0     1.480     39   69   99
            0  1  0  0     1.480     40   70  100
            0  0  1  0     1.480     41   71  101
            1  0  0  0     2.940     42   72  102
            0  1  0  0     2.940     43   73  103
            0  0  1  0     2.940     44   74  104
            2  0  0  0     2.200     45   75  105
            1  1  0  0     2.200     46   76  106
            1  0  1  0     2.200     47   77  107
            0  2  0  0     2.200     48   78  108
            0  1  1  0     2.200     49   79  109
            0  0  2  0     2.200     50   80  110
            3  0  0  0     3.300     51   81  111
            2  1  0  0     3.300     52   82  112
            2  0  1  0     3.300     53   83  113
            1  2  0  0     3.300     54   84  114
            1  1  1  0     3.300     55   85  115
            1  0  2  0     3.300     56   86  116
            0  3  0  0     3.300     57   87  117
            0  2  1  0     3.300     58   88  118
            0  1  2  0     3.300     59   89  119
            0  0  3  0     3.300     60   90  120

 H                                    5    6    7    8    9
                                  ---------------------------------------------------------------------------
            0  0  0  0     0.690    121  133  145  157  169
            0  0  0  0     0.920    122  134  146  158  170
            0  0  0  0     1.580    123  135  147  159  171
            1  0  0  0     1.250    124  136  148  160  172
            0  1  0  0     1.250    125  137  149  161  173
            0  0  1  0     1.250    126  138  150  162  174
            2  0  0  0     2.500    127  139  151  163  175
            1  1  0  0     2.500    128  140  152  164  176
            1  0  1  0     2.500    129  141  153  165  177
            0  2  0  0     2.500    130  142  154  166  178
            0  1  1  0     2.500    131  143  155  167  179
            0  0  2  0     2.500    132  144  156  168  180

 Br                                  10
                                  ---------------------------------------------------------------------------
            0  0  0  0    41.300    181
            0  0  0  0    32.800    182
            0  0  0  1    13.900    183
            1  0  0  0    19.450    184
            0  1  0  0    19.450    185
            0  0  1  0    19.450    186
            1  0  0  0    13.100    187
            0  1  0  0    13.100    188
            0  0  1  0    13.100    189
            0  0  0  2     7.200    190
            0  0  0  2     4.950    191
            1  0  0  1     7.900    192
            0  1  0  1     7.900    193
            0  0  1  1     7.900    194
            1  0  0  1     5.050    195
            0  1  0  1     5.050    196
            0  0  1  1     5.050    197
            2  0  0  0    10.900    198
            1  1  0  0    10.900    199
            1  0  1  0    10.900    200
            0  2  0  0    10.900    201
            0  1  1  0    10.900    202
            0  0  2  0    10.900    203
            2  0  0  0     6.050    204
            1  1  0  0     6.050    205
            1  0  1  0     6.050    206
            0  2  0  0     6.050    207
            0  1  1  0     6.050    208
            0  0  2  0     6.050    209
            2  0  0  0     3.500    210
            1  1  0  0     3.500    211
            1  0  1  0     3.500    212
            0  2  0  0     3.500    213
            0  1  1  0     3.500    214
            0  0  2  0     3.500    215
            0  0  0  3     4.500    216
            0  0  0  3     2.800    217
            0  0  0  3     1.800    218
            1  0  0  2     3.250    219
            0  1  0  2     3.250    220
            0  0  1  2     3.250    221
            1  0  0  2     1.950    222
            0  1  0  2     1.950    223
            0  0  1  2     1.950    224
            1  0  0  2     1.200    225
            0  1  0  2     1.200    226
            0  0  1  2     1.200    227
            2  0  0  1     1.800    228
            1  1  0  1     1.800    229
            1  0  1  1     1.800    230
            0  2  0  1     1.800    231
            0  1  1  1     1.800    232
            0  0  2  1     1.800    233
            3  0  0  0     1.800    234
            2  1  0  0     1.800    235
            2  0  1  0     1.800    236
            1  2  0  0     1.800    237
            1  1  1  0     1.800    238
            1  0  2  0     1.800    239
            0  3  0  0     1.800    240
            0  2  1  0     1.800    241
            0  1  2  0     1.800    242
            0  0  3  0     1.800    243

 N                                   11   12   13   14
                                  ---------------------------------------------------------------------------
            0  0  0  0     8.740    244  274  304  334
            0  0  0  0     5.900    245  275  305  335
            0  0  0  1     5.150    246  276  306  336
            0  0  0  1     2.500    247  277  307  337
            0  0  0  1     1.500    248  278  308  338
            1  0  0  0     3.680    249  279  309  339
            0  1  0  0     3.680    250  280  310  340
            0  0  1  0     3.680    251  281  311  341
            1  0  0  0     1.880    252  282  312  342
            0  1  0  0     1.880    253  283  313  343
            0  0  1  0     1.880    254  284  314  344
            1  0  0  0     1.000    255  285  315  345
            0  1  0  0     1.000    256  286  316  346
            0  0  1  0     1.000    257  287  317  347
            2  0  0  0     2.200    258  288  318  348
            1  1  0  0     2.200    259  289  319  349
            1  0  1  0     2.200    260  290  320  350
            0  2  0  0     2.200    261  291  321  351
            0  1  1  0     2.200    262  292  322  352
            0  0  2  0     2.200    263  293  323  353
            3  0  0  0     3.300    264  294  324  354
            2  1  0  0     3.300    265  295  325  355
            2  0  1  0     3.300    266  296  326  356
            1  2  0  0     3.300    267  297  327  357
            1  1  1  0     3.300    268  298  328  358
            1  0  2  0     3.300    269  299  329  359
            0  3  0  0     3.300    270  300  330  360
            0  2  1  0     3.300    271  301  331  361
            0  1  2  0     3.300    272  302  332  362
            0  0  3  0     3.300    273  303  333  363

 O                                   15   16
                                  ---------------------------------------------------------------------------
            0  0  0  0     9.800    364  394
            0  0  0  0     6.800    365  395
            0  0  0  1     7.580    366  396
            0  0  0  1     2.880    367  397
            0  0  0  1     1.720    368  398
            1  0  0  0     4.080    369  399
            0  1  0  0     4.080    370  400
            0  0  1  0     4.080    371  401
            1  0  0  0     2.080    372  402
            0  1  0  0     2.080    373  403
            0  0  1  0     2.080    374  404
            1  0  0  0     1.120    375  405
            0  1  0  0     1.120    376  406
            0  0  1  0     1.120    377  407
            2  0  0  0     2.000    378  408
            1  1  0  0     2.000    379  409
            1  0  1  0     2.000    380  410
            0  2  0  0     2.000    381  411
            0  1  1  0     2.000    382  412
            0  0  2  0     2.000    383  413
            3  0  0  0     3.000    384  414
            2  1  0  0     3.000    385  415
            2  0  1  0     3.000    386  416
            1  2  0  0     3.000    387  417
[...]
                                    6.87%    50 A              -7.145  2.00     2 fB
                                    6.38%    48 A              -7.823  2.00     2 fB
                                    6.24%    60 A               1.019  0.00     2 fB
                                    5.88%    71 A               4.795  0.00     2 fB
                                    5.53%    67 A               3.918  0.00     2 fB
                                    3.98%    51 A              -6.984  2.00     2 fB
                                    3.73%    44 A              -8.838  2.00     2 fB
                                    2.33%    68 A               4.008  0.00     2 fB
                                    1.95%    73 A               5.373  0.00     2 fB
                                    1.70%    56 A              -0.912  0.00     2 fB
                                    1.50%    47 A              -8.038  2.00     2 fB
                                    1.35%    42 A              -9.248  2.00     2 fB
                                    1.15%    55 A              -1.289  0.00     2 fB
                                    1.11%    64 A               2.822  0.00     2 fB
       0.05850       365 A         24.45%    49 A              -7.229  2.00     2 fB
                                   16.17%    70 A               4.550  0.00     2 fB
                                    7.06%    60 A               1.019  0.00     2 fB
                                    6.51%    50 A              -7.145  2.00     2 fB
                                    6.12%    71 A               4.795  0.00     2 fB
                                    5.89%    48 A              -7.823  2.00     2 fB
                                    5.81%    67 A               3.918  0.00     2 fB
                                    3.47%    44 A              -8.838  2.00     2 fB
                                    3.40%    51 A              -6.984  2.00     2 fB
                                    2.58%    68 A               4.008  0.00     2 fB
                                    2.21%    73 A               5.373  0.00     2 fB
                                    1.63%    56 A              -0.912  0.00     2 fB
                                    1.26%    42 A              -9.248  2.00     2 fB
                                    1.21%    64 A               2.822  0.00     2 fB
                                    1.19%    47 A              -8.038  2.00     2 fB
                                    1.11%    55 A              -1.289  0.00     2 fB
      -0.05747         8 A         26.75%    50 A              -7.145  2.00     2 fB
                                   13.89%    49 A              -7.229  2.00     2 fB
                                   11.95%    70 A               4.550  0.00     2 fB
                                    8.42%    68 A               4.008  0.00     2 fB
                                    7.54%    71 A               4.795  0.00     2 fB
                                    3.93%    48 A              -7.823  2.00     2 fB
                                    3.88%    67 A               3.918  0.00     2 fB
                                    3.07%    59 A               0.328  0.00     2 fB
                                    2.23%    65 A               3.249  0.00     2 fB
                                    1.52%    64 A               2.822  0.00     2 fB
                                    1.35%     7 A              22.094  0.00     1 fA
                                    1.02%    58 A               0.137  0.00     2 fB
       0.05747       364 A         25.96%    50 A              -7.145  2.00     2 fB
                                   12.72%    70 A               4.550  0.00     2 fB
                                   12.46%    49 A              -7.229  2.00     2 fB
                                    8.97%    68 A               4.008  0.00     2 fB
                                    8.01%    71 A               4.795  0.00     2 fB
                                    4.24%    67 A               3.918  0.00     2 fB
                                    3.36%    48 A              -7.823  2.00     2 fB
                                    3.23%    59 A               0.328  0.00     2 fB
                                    2.35%    65 A               3.249  0.00     2 fB
                                    1.54%    64 A               2.822  0.00     2 fB
                                    1.00%     7 A              22.094  0.00     1 fA
                                    1.00%    58 A               0.137  0.00     2 fB
      -0.05468         9 A         15.50%    62 A               1.845  0.00     2 fB
                                   10.64%    44 A              -8.838  2.00     2 fB
                                    6.57%    43 A              -9.051  2.00     2 fB
                                    6.40%    48 A              -7.823  2.00     2 fB
                                    4.42%     2 A             -15.175  2.00     1 fA
                                    4.15%    56 A              -0.912  0.00     2 fB
                                    3.93%     9 A              22.094  0.00     1 fA
                                    3.72%    45 A              -8.781  2.00     2 fB
                                    3.42%    55 A              -1.289  0.00     2 fB
                                    3.16%    58 A               0.137  0.00     2 fB
                                    2.86%     7 A              22.094  0.00     1 fA
                                    2.83%    34 A             -14.612  2.00     2 fB
                                    2.74%    47 A              -8.038  2.00     2 fB
                                    2.26%    50 A              -7.145  2.00     2 fB
                                    2.10%    63 A               2.382  0.00     2 fB
                                    2.09%    66 A               3.473  0.00     2 fB
                                    2.06%    33 A             -15.072  2.00     2 fB
                                    1.92%    51 A              -6.984  2.00     2 fB
                                    1.89%    40 A             -11.469  2.00     2 fB
                                    1.65%    41 A              -9.443  2.00     2 fB
                                    1.45%    30 A             -19.483  2.00     2 fB
                                    1.28%    70 A               4.550  0.00     2 fB
                                   -1.17%    54 A              -1.607  0.00     2 fB
       0.05468       363 A         17.60%    62 A               1.845  0.00     2 fB
                                   13.30%    44 A              -8.838  2.00     2 fB
                                    6.10%    56 A              -0.912  0.00     2 fB
                                    5.73%    43 A              -9.051  2.00     2 fB
                                    5.56%    48 A              -7.823  2.00     2 fB
                                    5.05%    45 A              -8.781  2.00     2 fB
                                    3.16%    55 A              -1.289  0.00     2 fB
                                    3.07%    47 A              -8.038  2.00     2 fB
                                    2.89%     6 A               7.775  0.00     1 fA
                                    2.80%    58 A               0.137  0.00     2 fB
                                    2.40%     9 A              22.094  0.00     1 fA
                                    2.32%    63 A               2.382  0.00     2 fB
                                    2.24%    66 A               3.473  0.00     2 fB
                                    1.78%    50 A              -7.145  2.00     2 fB
                                    1.74%    78 A               6.626  0.00     2 fB
                                    1.63%    51 A              -6.984  2.00     2 fB
                                    1.51%    40 A             -11.469  2.00     2 fB
                                    1.34%    70 A               4.550  0.00     2 fB
                                   -1.31%     2 A             -15.175  2.00     1 fA
                                    1.31%     7 A              22.094  0.00     1 fA
                                    1.17%    41 A              -9.443  2.00     2 fB
                                    1.05%    42 A              -9.248  2.00     2 fB
                                    1.04%    30 A             -19.483  2.00     2 fB
 Mulliken charges used for AMS results%charges...


    =====================
     CALCULATION RESULTS
    =====================

Energy (hartree)            -0.11957543


--------------
Atomic charges
--------------
  Index   Atom    Charge
      1      F   -0.6008
      2      C    0.3842
      3      H   -0.1341
      4     Br   -0.5240
      5      C    0.4438
      6      N   -0.0199
      7      H   -0.0012
      8      H   -0.0353
      9      N    0.6398
     10      O   -0.4318
     11      O   -0.4219
     12      N   -0.0967
     13      H   -0.0287
     14      H    0.0163
     15      C    0.1350
     16      N   -0.3248


Dipole moment vector    (Debye):    -2.99585221   -2.36777791    0.32682608
              magnitude (Debye):     3.83253415


-----------------------
Molecular orbitals info
-----------------------
n orbitals:              371
n spin:                    1

Note: only printing virtual orbitals with
      energy smaller than HOMO + 100. eV

HOMO (eV):              -2.3128
LUMO (eV):               0.1158
HOMO-LUMO gap (eV):      2.4286

   Index   Energy (eV)    Occupation
     232       97.2095         0.000       
     231       96.1399         0.000       
     230       95.7118         0.000       
     229       94.5703         0.000       
     228       94.0874         0.000       
     227       92.9619         0.000       
     226       92.4090         0.000       
     225       91.7944         0.000       
     224       91.2853         0.000       
     223       88.9509         0.000       
     222       88.4937         0.000       
     221       88.3857         0.000       
     220       87.3813         0.000       
     219       86.5096         0.000       
     218       86.1066         0.000       
     217       85.9496         0.000       
     216       85.2341         0.000       
     215       83.8675         0.000       
     214       83.7298         0.000       
     213       82.5514         0.000       
     212       81.7766         0.000       
     211       81.6310         0.000       
     210       80.7200         0.000       
     209       80.2872         0.000       
     208       79.4826         0.000       
     207       77.9174         0.000       
     206       77.4481         0.000       
     205       76.5684         0.000       
     204       76.4692         0.000       
     203       75.5007         0.000       
     202       74.4119         0.000       
     201       73.4976         0.000       
     200       73.3748         0.000       
     199       72.2060         0.000       
     198       70.9050         0.000       
     197       70.8449         0.000       
     196       69.7065         0.000       
     195       69.4574         0.000       
     194       68.0131         0.000       
     193       67.1506         0.000       
     192       65.9287         0.000       
     191       65.0360         0.000       
     190       63.9832         0.000       
     189       63.2817         0.000       
     188       63.0370         0.000       
     187       62.4324         0.000       
     186       61.8513         0.000       
     185       61.4334         0.000       
     184       60.3623         0.000       
     183       59.8004         0.000       
     182       58.5050         0.000       
     181       57.7533         0.000       
     180       57.3900         0.000       
     179       56.4846         0.000       
     178       55.7495         0.000       
     177       55.4533         0.000       
     176       54.5963         0.000       
     175       54.2302         0.000       
     174       52.9768         0.000       
     173       52.2546         0.000       
     172       52.0348         0.000       
     171       51.2659         0.000       
     170       50.9142         0.000       
     169       49.5786         0.000       
     168       49.3693         0.000       
     167       48.7431         0.000       
     166       48.2076         0.000       
     165       47.4065         0.000       
     164       46.9262         0.000       
     163       46.6904         0.000       
     162       45.5928         0.000       
     161       44.7772         0.000       
     160       44.6122         0.000       
     159       44.1427         0.000       
     158       43.3305         0.000       
     157       43.0827         0.000       
     156       42.2891         0.000       
     155       42.2471         0.000       
     154       41.1890         0.000       
     153       41.0243         0.000       
     152       40.5872         0.000       
     151       40.2498         0.000       
     150       40.0929         0.000       
     149       39.3353         0.000       
     148       39.2257         0.000       
     147       38.6298         0.000       
     146       38.3725         0.000       
     145       37.7867         0.000       
     144       37.4614         0.000       
     143       37.2891         0.000       
     142       36.7766         0.000       
     141       36.2788         0.000       
     140       35.3622         0.000       
     139       35.0236         0.000       
     138       34.7509         0.000       
     137       34.0807         0.000       
     136       33.7991         0.000       
     135       33.1596         0.000       
     134       32.3178         0.000       
     133       32.1092         0.000       
     132       31.8260         0.000       
     131       31.3343         0.000       
     130       30.5322         0.000       
     129       30.0637         0.000       
     128       29.9029         0.000       
     127       29.2080         0.000       
     126       29.0568         0.000       
     125       28.7570         0.000       
     124       28.0647         0.000       
     123       27.6356         0.000       
     122       27.0530         0.000       
     121       26.7547         0.000       
     120       26.2618         0.000       
     119       25.4966         0.000       
     118       24.9967         0.000       
     117       24.5381         0.000       
     116       24.2967         0.000       
     115       23.9088         0.000       
     114       23.5955         0.000       
     113       23.4378         0.000       
     112       22.2864         0.000       
     111       21.8394         0.000       
     110       21.6717         0.000       
     109       21.3368         0.000       
     108       20.8756         0.000       
     107       19.4396         0.000       
     106       19.2018         0.000       
     105       18.8059         0.000       
     104       18.1877         0.000       
     103       18.0770         0.000       
     102       17.6566         0.000       
     101       16.9856         0.000       
     100       16.8547         0.000       
      99       16.3240         0.000       
      98       15.5947         0.000       
      97       15.3399         0.000       
      96       15.2327         0.000       
      95       14.9376         0.000       
      94       14.6181         0.000       
      93       13.8086         0.000       
      92       13.6334         0.000       
      91       13.5159         0.000       
      90       12.9288         0.000       
      89       12.7235         0.000       
      88       12.2093         0.000       
      87       11.9052         0.000       
      86       11.6432         0.000       
      85       11.4268         0.000       
      84       11.2018         0.000       
      83       10.7858         0.000       
      82       10.4642         0.000       
      81       10.1483         0.000       
      80        9.8110         0.000       
      79        9.5453         0.000       
      78        9.3858         0.000       
      77        9.2604         0.000       
      76        8.7297         0.000       
      75        8.3861         0.000       
      74        8.3347         0.000       
      73        8.2527         0.000       
      72        7.9258         0.000       
      71        7.7349         0.000       
      70        7.3622         0.000       
      69        6.9442         0.000       
      68        6.5039         0.000       
      67        5.9624         0.000       
      66        5.5641         0.000       
      65        5.2293         0.000       
      64        4.5167         0.000       
      63        4.1686         0.000       
      62        3.9287         0.000       
      61        3.3428         0.000       
      60        3.0998         0.000       
      59        2.7788         0.000       
      58        1.6820         0.000       
      57        0.1158         0.000 < LUMO
      56       -2.3128         2.000 < HOMO
      55       -2.6189         2.000       
      54       -2.6890         2.000       
      53       -3.0066         2.000       
      52       -3.3580         2.000       
      51       -3.4062         2.000       
      50       -3.5269         2.000       
      49       -3.8765         2.000       
      48       -4.2332         2.000       
      47       -4.4408         2.000       
      46       -4.6125         2.000       
      45       -4.7822         2.000       
      44       -5.1455         2.000       
      43       -5.3428         2.000       
      42       -6.9395         2.000       
      41       -8.0797         2.000       
      40       -8.3829         2.000       
      39       -9.0464         2.000       
      38       -9.3700         2.000       
      37       -9.7988         2.000       
      36       -9.9591         2.000       
      35      -10.3431         2.000       
      34      -11.2341         2.000       
      33      -14.5599         2.000       
      32      -14.7371         2.000       
      31      -15.7938         2.000       
      30      -18.5948         2.000       
      29      -19.2616         2.000       
      28      -19.9835         2.000       
      27      -22.6035         2.000       
      26      -23.0794         2.000       
      25      -27.4648         2.000       
      24      -61.0067         2.000       
      23      -61.0080         2.000       
      22      -61.1516         2.000       
      21      -61.1579         2.000       
      20      -61.2038         2.000       
      19     -167.5574         2.000       
      18     -167.5651         2.000       
      17     -167.7587         2.000       
      16     -231.3980         2.000       
      15     -267.6842         2.000       
      14     -268.8514         2.000       
      13     -270.5760         2.000       
      12     -377.8588         2.000       
      11     -378.0581         2.000       
      10     -378.3181         2.000       
       9     -384.2895         2.000       
       8     -508.9418         2.000       
       7     -508.9697         2.000       
       6     -654.9760         2.000       
       5    -1521.6443         2.000       
       4    -1521.6473         2.000       
       3    -1521.7129         2.000       
       2    -1724.7594         2.000       
       1   -13291.2933         2.000       

AMS application finished. Exiting.
NORMAL TERMINATION
     Total cpu time:     137.82
  Total system time:       0.46
 Total elapsed time:     138.66
NORMAL TERMINATION
