
 *******************************************************************************
 *                                                                             *
 *  --------------------------------                                           *
 *   Amsterdam Modeling Suite (AMS)              2026.103                      *
 *  --------------------------------                                           *
 *                                               r260501 2026-05-01 873454b5   *
 *                                                                             *
 *                                                                             *
 *                              =================                              *
 *                              |               |                              *
 *                              |     A M S     |                              *
 *                              |               |                              *
 *                              =================                              *
 *                                                                             *
 *                                                                             *
 *   Online information and documentation:  https://www.scm.com/support/       *
 *   E-mail:  support@scm.com   info@scm.com                                   *
 *                                                                             *
 *   Scientific publications using AMS results must be properly referenced     *
 *   See the User Manuals (or the web site) for recommended citations          *
 *   The terms and conditions of the End User License Agreement apply to       *
 *   the use of AMS, https://www.scm.com/license-terms/                        *
 *                                                                             *
 **********************  x86_64_linux_intel / intelmpi  ************************
 
 Licensed to: Jong-June Jeon / University of Seoul 2026-05-13 16:10:32
 SCM User ID: u30731
  
 AMS 2026.103  RunTime: May31-2026 12:33:39  ShM Nodes: 1  Procs: 1

 AMS jobname: c3_eda
 AMS jobid  : 808294131

 Start   directory: /gpfs/home1/yeseo1ee/projects/eda-asm-prediction/adf_outputs/batch_001/dipolar_002593/
 Results directory: /gpfs/home1/yeseo1ee/projects/eda-asm-prediction/adf_outputs/batch_001/dipolar_002593/c3_eda.results/
 Scratch directory: /tmp/amstmp_c3_eda_kid0.808294131/

 RNG seed: 1767886470 -1869422659 -635877564 1075290244 1548393619 -1584040756 -1453611760 -640031226



                      ************************************************************************
                      *  ADF 2026.103  RunTime: May31-2026 12:33:40  ShM Nodes: 1  Procs: 1  *
                      ************************************************************************
  

       ****************************
       * SINGLE POINT CALCULATION *
       ****************************

--------
Geometry
--------
Formula: C12H16Br2N6O5
Atoms
  Index Symbol   x (angstrom)   y (angstrom)   z (angstrom)
      1      C     4.71896000    -0.86459000     1.15690000 adf.f=fA
      2      N     3.67195000    -0.44767000     0.24865000 adf.f=fA
      3      C     2.84548000     0.57895000     0.52816000 adf.f=fA
      4      O     2.96454000     1.36586000     1.46155000 adf.f=fA
      5      N     1.80131000     0.62365000    -0.43842000 adf.f=fA
      6      O     1.05076000     1.68709000    -0.16613000 adf.f=fA
      7      C    -0.02775000     1.82202000    -0.89707000 adf.f=fA
      8      C    -0.00740000     1.38010000    -2.25604000 adf.f=fA
      9      N     0.02033000     1.06561000    -3.37439000 adf.f=fA
     10      C    -0.93313000     2.95671000    -0.51403000 adf.f=fA
     11      O    -2.03898000     3.04448000    -1.06540000 adf.f=fA
     12      N    -0.46008000     3.80363000     0.39995000 adf.f=fA
     13      C    -1.31092000     4.80177000     1.02158000 adf.f=fA
     14      H     4.33312000    -1.53176000     1.94701000 adf.f=fA
     15      H     5.49620000    -1.39899000     0.59575000 adf.f=fA
     16      H     5.16440000     0.01691000     1.63624000 adf.f=fA
     17      H     3.42971000    -1.04613000    -0.53549000 adf.f=fA
     18      H     0.40238000     3.54740000     0.87414000 adf.f=fA
     19      H    -1.96112000     5.26213000     0.26715000 adf.f=fA
     20      H    -0.68210000     5.57568000     1.47831000 adf.f=fA
     21      H    -1.94214000     4.34383000     1.80165000 adf.f=fA
     22      C    -1.00790000    -0.21360000    -0.06158000 adf.f=fB
     23      C    -2.11682000    -0.60765000    -1.05271000 adf.f=fB
     24      O    -2.41821000    -1.79808000    -1.16385000 adf.f=fB
     25      N    -2.78868000     0.37619000    -1.65660000 adf.f=fB
     26      C    -3.92314000     0.08066000    -2.51075000 adf.f=fB
     27      C    -1.54548000     0.36872000     1.24771000 adf.f=fB
     28      O    -0.97718000     1.27908000     1.84679000 adf.f=fB
     29      N    -2.67811000    -0.20717000     1.68284000 adf.f=fB
     30      C    -3.30054000     0.20101000     2.92902000 adf.f=fB
     31      C     0.16399000    -0.97002000     0.01314000 adf.f=fB
     32     Br     0.69954000    -2.10455000    -1.41119000 adf.f=fB
     33     Br     0.81132000    -1.56216000     1.72033000 adf.f=fB
     34      H    -2.55784000     1.36026000    -1.47771000 adf.f=fB
     35      H    -4.29540000     1.02114000    -2.93517000 adf.f=fB
     36      H    -4.73545000    -0.40400000    -1.94499000 adf.f=fB
     37      H    -3.63222000    -0.59217000    -3.33215000 adf.f=fB
     38      H    -3.04783000    -1.01454000     1.18895000 adf.f=fB
     39      H    -3.49974000     1.28290000     2.92472000 adf.f=fB
     40      H    -2.65429000    -0.02590000     3.79220000 adf.f=fB
     41      H    -4.24898000    -0.33716000     3.04180000 adf.f=fB

Total System Charge              0.00000


----------------
ADF Engine Input
----------------
 
   Basis
     Type TZ2P
     Core None
   End
   XC
     GGA BLYP
     Dispersion GRIMME3 BJDAMP
   End
   Symmetry NOSYM
   NumericalQuality Normal
   Unrestricted No
   SCF
     Iterations 200
     Converge 1.0e-6
   End
   fragments
     fA c1_fragA_ts.results/adf.rkf
     fB c2_fragB_ts.results/adf.rkf
   end
   etsnocv
     enocv 0.05
     ekmin 0.5
   end
   print etslowdin
   Save TAPE21
 

 Title: *** (NO TITLE) ***

 *** adf ***



 ===========================
 A T T A C H E D   F I L E S
 ===========================
  



 ===============================
 M O D E L   P A R A M E T E R S
 ===============================
  
 DENSITY FUNCTIONAL POTENTIAL (scf)
    LDA:                               Exchange only                           == Not Default ==
    Gradient Corrections:              Becke88 LYP                             == Not Default ==

 SPIN  (restricted / unrestr.)
    Molecule:                          Restricted                               
    Fragments:                         Restricted                               

 OTHER ASPECTS
    Relativistic Corrections:          scalar (ZORA,MAPA)                       

    Nuclear Charge Density Model:      Point Charge Nuclei                      
    Core Treatment:                    Frozen Orbital(s)                        

    Hyperfine or Zeeman Interaction:   ---                                      

 Settings for Grimme D3 dispersion correction

      damping                        BJ
      s6                          1.000
      s8                          2.700
      a1                          0.430
      a2                          4.236

 Other (technical) parameters

      alpha                      14.000
      version                         4
 


 Fragment File(s)
 ----------------
 fA:
         file : c1_fragA_ts.results/adf.rkf
         jobid: 1082380859
         title: *** adf ***
 fB:
         file : c2_fragB_ts.results/adf.rkf
         jobid: 2001855785
         title: *** adf ***



 ===============
 G E O M E T R Y  ***  3D  Molecule  ***
 ===============
  

 ATOMS
 =====                            X Y Z                    CHARGE
                                (Angstrom)             Nucl     +Core       At.Mass
                       --------------------------    ----------------       -------
    1  C               4.7190   -0.8646    1.1569      6.00      6.00       12.0000
    2  N               3.6719   -0.4477    0.2487      7.00      7.00       14.0031
    3  C               2.8455    0.5789    0.5282      6.00      6.00       12.0000
    4  O               2.9645    1.3659    1.4615      8.00      8.00       15.9949
    5  N               1.8013    0.6237   -0.4384      7.00      7.00       14.0031
    6  O               1.0508    1.6871   -0.1661      8.00      8.00       15.9949
    7  C              -0.0278    1.8220   -0.8971      6.00      6.00       12.0000
    8  C              -0.0074    1.3801   -2.2560      6.00      6.00       12.0000
    9  N               0.0203    1.0656   -3.3744      7.00      7.00       14.0031
   10  C              -0.9331    2.9567   -0.5140      6.00      6.00       12.0000
   11  O              -2.0390    3.0445   -1.0654      8.00      8.00       15.9949
   12  N              -0.4601    3.8036    0.4000      7.00      7.00       14.0031
   13  C              -1.3109    4.8018    1.0216      6.00      6.00       12.0000
   14  H               4.3331   -1.5318    1.9470      1.00      1.00        1.0078
   15  H               5.4962   -1.3990    0.5958      1.00      1.00        1.0078
   16  H               5.1644    0.0169    1.6362      1.00      1.00        1.0078
   17  H               3.4297   -1.0461   -0.5355      1.00      1.00        1.0078
   18  H               0.4024    3.5474    0.8741      1.00      1.00        1.0078
   19  H              -1.9611    5.2621    0.2671      1.00      1.00        1.0078
   20  H              -0.6821    5.5757    1.4783      1.00      1.00        1.0078
   21  H              -1.9421    4.3438    1.8016      1.00      1.00        1.0078
   22  C              -1.0079   -0.2136   -0.0616      6.00      6.00       12.0000
   23  C              -2.1168   -0.6077   -1.0527      6.00      6.00       12.0000
   24  O              -2.4182   -1.7981   -1.1639      8.00      8.00       15.9949
   25  N              -2.7887    0.3762   -1.6566      7.00      7.00       14.0031
   26  C              -3.9231    0.0807   -2.5107      6.00      6.00       12.0000
   27  C              -1.5455    0.3687    1.2477      6.00      6.00       12.0000
   28  O              -0.9772    1.2791    1.8468      8.00      8.00       15.9949
   29  N              -2.6781   -0.2072    1.6828      7.00      7.00       14.0031
   30  C              -3.3005    0.2010    2.9290      6.00      6.00       12.0000
   31  C               0.1640   -0.9700    0.0131      6.00      6.00       12.0000
   32  Br              0.6995   -2.1046   -1.4112     35.00     35.00       78.9183
   33  Br              0.8113   -1.5622    1.7203     35.00     35.00       78.9183
   34  H              -2.5578    1.3603   -1.4777      1.00      1.00        1.0078
   35  H              -4.2954    1.0211   -2.9352      1.00      1.00        1.0078
   36  H              -4.7354   -0.4040   -1.9450      1.00      1.00        1.0078
   37  H              -3.6322   -0.5922   -3.3321      1.00      1.00        1.0078
   38  H              -3.0478   -1.0145    1.1889      1.00      1.00        1.0078
   39  H              -3.4997    1.2829    2.9247      1.00      1.00        1.0078
   40  H              -2.6543   -0.0259    3.7922      1.00      1.00        1.0078
   41  H              -4.2490   -0.3372    3.0418      1.00      1.00        1.0078


 FRAGMENTS
 =========                                     Atoms in this Fragment     Cart. coord.s (Angstrom)
                                               -------------------------------------------------------
    1  fA                                                1  C            4.7190   -0.8646    1.1569
                                                         3  C            2.8455    0.5789    0.5282
                                                         7  C           -0.0278    1.8220   -0.8971
                                                         8  C           -0.0074    1.3801   -2.2560
                                                        10  C           -0.9331    2.9567   -0.5140
                                                        13  C           -1.3109    4.8018    1.0216
                                                         2  N            3.6719   -0.4477    0.2487
                                                         5  N            1.8013    0.6237   -0.4384
                                                         9  N            0.0203    1.0656   -3.3744
                                                        12  N           -0.4601    3.8036    0.4000
                                                         4  O            2.9645    1.3659    1.4615
                                                         6  O            1.0508    1.6871   -0.1661
                                                        11  O           -2.0390    3.0445   -1.0654
                                                        14  H            4.3331   -1.5318    1.9470
                                                        15  H            5.4962   -1.3990    0.5958
                                                        16  H            5.1644    0.0169    1.6362
                                                        17  H            3.4297   -1.0461   -0.5355
                                                        18  H            0.4024    3.5474    0.8741
                                                        19  H           -1.9611    5.2621    0.2671
                                                        20  H           -0.6821    5.5757    1.4783
                                                        21  H           -1.9421    4.3438    1.8016
    2  fB                                               22  C           -1.0079   -0.2136   -0.0616
                                                        23  C           -2.1168   -0.6077   -1.0527
                                                        26  C           -3.9231    0.0807   -2.5107
                                                        27  C           -1.5455    0.3687    1.2477
                                                        30  C           -3.3005    0.2010    2.9290
                                                        31  C            0.1640   -0.9700    0.0131
                                                        24  O           -2.4182   -1.7981   -1.1639
                                                        28  O           -0.9772    1.2791    1.8468
                                                        25  N           -2.7887    0.3762   -1.6566
                                                        29  N           -2.6781   -0.2072    1.6828
                                                        32  Br           0.6995   -2.1046   -1.4112
                                                        33  Br           0.8113   -1.5622    1.7203
                                                        34  H           -2.5578    1.3603   -1.4777
                                                        35  H           -4.2954    1.0211   -2.9352
                                                        36  H           -4.7354   -0.4040   -1.9450
                                                        37  H           -3.6322   -0.5922   -3.3321
                                                        38  H           -3.0478   -1.0145    1.1889
                                                        39  H           -3.4997    1.2829    2.9247
                                                        40  H           -2.6543   -0.0259    3.7922
                                                        41  H           -4.2490   -0.3372    3.0418



 =====================================
 S Y M M E T R Y ,   E L E C T R O N S
 =====================================
  
 Symmetry: NOSYM

 Irreducible Representations, including subspecies
 -------------------------------------------------
 A


 Configuration of Valence Electrons
 ==================================
 ( determined in the SCF procedure )

 Total:   240

 Net Charge: 0 (Nuclei minus Electrons)

 Aufbau principle for MO occupations will be applied through SCF cycle no.     100
 Thereafter, the program will assign electrons to MOs that are spatially
 similar to the occupied MOs in a "reference" cycle ("KeepOrbitals").
 The reference cycle is always the PREVIOUS cycle: it will evolve with
 the SCF procedure.
 ***************************************************************************************************



                                      ****************************************
                                      *  B U I L D : (Fragments, Functions)  *
                                      ****************************************
  

 The individual fragments are copies of the corresponding 'Master' fragments defined on the fragment files.
 However, they may have been rotated (and translated) with respect to the Master. The local coordinate axes
 of each fragment (which define for instance the spatial orientation in the current molecule of a fragment
 P:x orbital) are not necessarily those of the molecule.
 The local frame (if different from the molecular one) is printed to enable an interpretation of the expan-
 sion of an MO in Fragment Orbitals.



                                              ************************
                                              *  Fragment Type : fA  *
                                              ************************
  

 Fragment no.    1   (in the list of all fragments)
 -----------------
 The local coordinate frame is identical to the molecular frame.

 Check Atomic Coordinates:

                  Master (on file)          After Computed Tranformation               As specified on Input
           ----------------------------     ----------------------------     ---------------------------------
     1)     4.71896  -0.86459   1.15690      4.71896  -0.86459   1.15690       1   4.71896  -0.86459   1.15690
     2)     2.84548   0.57895   0.52816      2.84548   0.57895   0.52816       3   2.84548   0.57895   0.52816
     3)    -0.02775   1.82202  -0.89707     -0.02775   1.82202  -0.89707       7  -0.02775   1.82202  -0.89707
     4)    -0.00740   1.38010  -2.25604     -0.00740   1.38010  -2.25604       8  -0.00740   1.38010  -2.25604
     5)    -0.93313   2.95671  -0.51403     -0.93313   2.95671  -0.51403      10  -0.93313   2.95671  -0.51403
     6)    -1.31092   4.80177   1.02158     -1.31092   4.80177   1.02158      13  -1.31092   4.80177   1.02158
     7)     3.67195  -0.44767   0.24865      3.67195  -0.44767   0.24865       2   3.67195  -0.44767   0.24865
     8)     1.80131   0.62365  -0.43842      1.80131   0.62365  -0.43842       5   1.80131   0.62365  -0.43842
     9)     0.02033   1.06561  -3.37439      0.02033   1.06561  -3.37439       9   0.02033   1.06561  -3.37439
    10)    -0.46008   3.80363   0.39995     -0.46008   3.80363   0.39995      12  -0.46008   3.80363   0.39995
    11)     2.96454   1.36586   1.46155      2.96454   1.36586   1.46155       4   2.96454   1.36586   1.46155
    12)     1.05076   1.68709  -0.16613      1.05076   1.68709  -0.16613       6   1.05076   1.68709  -0.16613
    13)    -2.03898   3.04448  -1.06540     -2.03898   3.04448  -1.06540      11  -2.03898   3.04448  -1.06540
    14)     4.33312  -1.53176   1.94701      4.33312  -1.53176   1.94701      14   4.33312  -1.53176   1.94701
    15)     5.49620  -1.39899   0.59575      5.49620  -1.39899   0.59575      15   5.49620  -1.39899   0.59575
    16)     5.16440   0.01691   1.63624      5.16440   0.01691   1.63624      16   5.16440   0.01691   1.63624
    17)     3.42971  -1.04613  -0.53549      3.42971  -1.04613  -0.53549      17   3.42971  -1.04613  -0.53549
    18)     0.40238   3.54740   0.87414      0.40238   3.54740   0.87414      18   0.40238   3.54740   0.87414
    19)    -1.96112   5.26213   0.26715     -1.96112   5.26213   0.26715      19  -1.96112   5.26213   0.26715
    20)    -0.68210   5.57568   1.47831     -0.68210   5.57568   1.47831      20  -0.68210   5.57568   1.47831
    21)    -1.94214   4.34383   1.80165     -1.94214   4.34383   1.80165      21  -1.94214   4.34383   1.80165



                                              ************************
                                              *  Fragment Type : fB  *
                                              ************************
  

 Fragment no.    2   (in the list of all fragments)
 -----------------
 The local coordinate frame is identical to the molecular frame.

 Check Atomic Coordinates:

                  Master (on file)          After Computed Tranformation               As specified on Input
           ----------------------------     ----------------------------     ---------------------------------
     1)    -1.00790  -0.21360  -0.06158     -1.00790  -0.21360  -0.06158      22  -1.00790  -0.21360  -0.06158
     2)    -2.11682  -0.60765  -1.05271     -2.11682  -0.60765  -1.05271      23  -2.11682  -0.60765  -1.05271
     3)    -3.92314   0.08066  -2.51075     -3.92314   0.08066  -2.51075      26  -3.92314   0.08066  -2.51075
     4)    -1.54548   0.36872   1.24771     -1.54548   0.36872   1.24771      27  -1.54548   0.36872   1.24771
     5)    -3.30054   0.20101   2.92902     -3.30054   0.20101   2.92902      30  -3.30054   0.20101   2.92902
     6)     0.16399  -0.97002   0.01314      0.16399  -0.97002   0.01314      31   0.16399  -0.97002   0.01314
     7)    -2.41821  -1.79808  -1.16385     -2.41821  -1.79808  -1.16385      24  -2.41821  -1.79808  -1.16385
     8)    -0.97718   1.27908   1.84679     -0.97718   1.27908   1.84679      28  -0.97718   1.27908   1.84679
     9)    -2.78868   0.37619  -1.65660     -2.78868   0.37619  -1.65660      25  -2.78868   0.37619  -1.65660
    10)    -2.67811  -0.20717   1.68284     -2.67811  -0.20717   1.68284      29  -2.67811  -0.20717   1.68284
    11)     0.69954  -2.10455  -1.41119      0.69954  -2.10455  -1.41119      32   0.69954  -2.10455  -1.41119
    12)     0.81132  -1.56216   1.72033      0.81132  -1.56216   1.72033      33   0.81132  -1.56216   1.72033
    13)    -2.55784   1.36026  -1.47771     -2.55784   1.36026  -1.47771      34  -2.55784   1.36026  -1.47771
    14)    -4.29540   1.02114  -2.93517     -4.29540   1.02114  -2.93517      35  -4.29540   1.02114  -2.93517
    15)    -4.73545  -0.40400  -1.94499     -4.73545  -0.40400  -1.94499      36  -4.73545  -0.40400  -1.94499
    16)    -3.63222  -0.59217  -3.33215     -3.63222  -0.59217  -3.33215      37  -3.63222  -0.59217  -3.33215
    17)    -3.04783  -1.01454   1.18895     -3.04783  -1.01454   1.18895      38  -3.04783  -1.01454   1.18895
    18)    -3.49974   1.28290   2.92472     -3.49974   1.28290   2.92472      39  -3.49974   1.28290   2.92472
    19)    -2.65429  -0.02590   3.79220     -2.65429  -0.02590   3.79220      40  -2.65429  -0.02590   3.79220
    20)    -4.24898  -0.33716   3.04180     -4.24898  -0.33716   3.04180      41  -4.24898  -0.33716   3.04180



 =======
 S F O s  ***  (Symmetrized Fragment Orbitals)  ***
 =======
  
 SFOs are linear combinations of (valence) Fragment Orbitals (FOs), such that the SFOs transform as the
 irreducible representations of the (molecular) symmetry group. Each SFO is therefore characterized by
 an irrep of the molecule and by a few (or only one) generating FOs.
 The SFOs constitute a symmetry-adapted basis for the Fock matrix. The MO eigenvector coefficients in
 this basis provide a direct interpretation of the MOs in terms of Frontier Orbital Theory.

 The SFOs are combined with auxiliary Core Functions (CFs) to ensure orthogonalization on the (frozen)
 Core Orbitals (COs). The Core-orthogonalized SFOs (CSFOs) constitute the true Fock basis.

 The FOs, and hence also the (C)SFOs are combinations of the elementary basis functions (BAS). The basis
 functions that participate in the description of the SFOs depend on the irrep. The indices of the
 involved functions are printed below for each irrep.
 (The complete list of primitive basis functions is printed in another section)

 Total nr. of (C)SFOs (summation over all irreps) :   886

 NOTE: a (C)SFO that is defined as a combination of more than one FO is usually NOT normalized.



                                       === A ===
 Nr. of SFOs :  886
 Cartesian basis functions that participate in this irrep (total number =  1008) :
      1     2     3     4     5     6     9    12     7    10
     13     8    11    14    15    16    17    18    19    20
     21    22    23    24    25    26    27    28    29    30
     31    32    33    34    35    36    39    42    37    40
     43    38    41    44    45    46    47    48    49    50
     51    52    53    54    55    56    57    58    59    60
     61    62    63    64    65    66    69    72    67    70
     73    68    71    74    75    76    77    78    79    80
     81    82    83    84    85    86    87    88    89    90
     91    92    93    94    95    96    99   102    97   100
    103    98   101   104   105   106   107   108   109   110
    111   112   113   114   115   116   117   118   119   120
    121   122   123   124   125   126   129   132   127   130
    133   128   131   134   135   136   137   138   139   140
    141   142   143   144   145   146   147   148   149   150
    151   152   153   154   155   156   159   162   157   160
    163   158   161   164   165   166   167   168   169   170
    171   172   173   174   175   176   177   178   179   180
    181   182   183   184   185   186   189   192   187   190
    193   188   191   194   195   196   197   198   199   200
    201   202   203   204   205   206   207   208   209   210
    211   212   213   214   215   216   219   222   217   220
    223   218   221   224   225   226   227   228   229   230
    231   232   233   234   235   236   237   238   239   240
    241   242   243   244   245   246   249   252   247   250
    253   248   251   254   255   256   257   258   259   260
    261   262   263   264   265   266   267   268   269   270
    271   272   273   274   275   276   279   282   277   280
    283   278   281   284   285   286   287   288   289   290
    291   292   293   294   295   296   297   298   299   300
    301   302   303   304   305   306   309   312   307   310
    313   308   311   314   315   316   317   318   319   320
    321   322   323   324   325   326   327   328   329   330
    331   332   333   334   335   336   339   342   337   340
    343   338   341   344   345   346   347   348   349   350
    351   352   353   354   355   356   357   358   359   360
    361   362   363   364   365   366   369   372   367   370
    373   368   371   374   375   376   377   378   379   380
    381   382   383   384   385   386   387   388   389   390
    391   392   393   394   395   396   397   398   399   400
    401   402   403   404   405   406   407   408   409   410
    411   412   413   414   415   416   417   418   419   420
    421   422   423   424   425   426   427   428   429   430
    431   432   433   434   435   436   437   438   439   440
    441   442   443   444   445   446   447   448   449   450
    451   452   453   454   455   456   457   458   459   460
    461   462   463   464   465   466   467   468   469   470
    471   472   473   474   475   476   477   478   479   480
    481   482   483   484   485   486   487   488   489   490
    491   492   495   498   493   496   499   494   497   500
    501   502   503   504   505   506   507   508   509   510
    511   512   513   514   515   516   517   518   519   520
    521   522   525   528   523   526   529   524   527   530
    531   532   533   534   535   536   537   538   539   540
    541   542   543   544   545   546   547   548   549   550
    551   552   555   558   553   556   559   554   557   560
    561   562   563   564   565   566   567   568   569   570
    571   572   573   574   575   576   577   578   579   580
    581   582   585   588   583   586   589   584   587   590
    591   592   593   594   595   596   597   598   599   600
    601   602   603   604   605   606   607   608   609   610
    611   612   615   618   613   616   619   614   617   620
    621   622   623   624   625   626   627   628   629   630
    631   632   633   634   635   636   637   638   639   640
    641   642   645   648   643   646   649   644   647   650
    651   652   653   654   655   656   657   658   659   660
    661   662   663   664   665   666   667   668   669   670
    671   672   675   678   673   676   679   674   677   680
    681   682   683   684   685   686   687   688   689   690
    691   692   693   694   695   696   697   698   699   700
    701   702   705   708   703   706   709   704   707   710
    711   712   713   714   715   716   717   718   719   720
    721   722   723   724   725   726   727   728   729   730
    731   732   735   738   733   736   739   734   737   740
    741   742   743   744   745   746   747   748   749   750
    751   752   753   754   755   756   757   758   759   760
    761   762   765   768   763   766   769   764   767   770
    771   772   773   774   775   776   777   778   779   780
    781   782   783   784   785   786   787   788   789   796
    797   822   823   824   790   793   798   801   825   828
    831   791   794   799   802   826   829   832   792   795
    800   803   827   830   833   804   810   816   834   805
    811   817   835   806   812   818   836   807   813   819
    837   808   814   820   838   809   815   821   839   840
    841   842   843   844   845   846   847   848   849   850
    851   852   859   860   885   886   887   853   856   861
    864   888   891   894   854   857   862   865   889   892
    895   855   858   863   866   890   893   896   867   873
    879   897   868   874   880   898   869   875   881   899
    870   876   882   900   871   877   883   901   872   878
    884   902   903   904   905   906   907   908   909   910
    911   912   913   914   915   916   917   918   919   920
    921   922   923   924   925   926   927   928   929   930
    931   932   933   934   935   936   937   938   939   940
    941   942   943   944   945   946   947   948   949   950
    951   952   953   954   955   956   957   958   959   960
    961   962   963   964   965   966   967   968   969   970
    971   972   973   974   975   976   977   978   979   980
    981   982   983   984   985   986   987   988   989   990
    991   992   993   994   995   996   997   998   999  1000
   1001  1002  1003  1004  1005  1006  1007  1008

    SFO  (index         Fragment          Generating    Expansion in Fragment Orbitals
  indx  incl.CFs)   Occup   Orb.Energy   FragmentType  Coeff.   Orbital     on Fragment
 --------------------------------------------------------------------------------------
     1       1      2.000     -18.974 au  fA            1.00      1 A               1
                        (    -516.312 eV)
     2       2      2.000     -18.785 au  fA            1.00      2 A               1
                        (    -511.157 eV)
     3       3      2.000     -18.776 au  fA            1.00      3 A               1
                        (    -510.910 eV)
     4       4      2.000     -14.102 au  fA            1.00      4 A               1
                        (    -383.726 eV)
     5       5      2.000     -14.077 au  fA            1.00      5 A               1
                        (    -383.047 eV)
     6       6      2.000     -14.076 au  fA            1.00      6 A               1
                        (    -383.029 eV)
     7       7      2.000     -14.049 au  fA            1.00      7 A               1
                        (    -382.297 eV)
     8       8      2.000     -10.060 au  fA            1.00      8 A               1
                        (    -273.745 eV)
     9       9      2.000     -10.050 au  fA            1.00      9 A               1
                        (    -273.483 eV)
    10      10      2.000     -10.049 au  fA            1.00     10 A               1
                        (    -273.458 eV)
    11      11      2.000      -9.987 au  fA            1.00     11 A               1
                        (    -271.749 eV)
    12      12      2.000      -9.974 au  fA            1.00     12 A               1
                        (    -271.407 eV)
    13      13      2.000      -9.973 au  fA            1.00     13 A               1
                        (    -271.372 eV)
    14      14      2.000      -1.136 au  fA            1.00     14 A               1
                        (     -30.905 eV)
    15      15      2.000      -0.973 au  fA            1.00     15 A               1
                        (     -26.481 eV)
    16      16      2.000      -0.967 au  fA            1.00     16 A               1
                        (     -26.321 eV)
    17      17      2.000      -0.876 au  fA            1.00     17 A               1
                        (     -23.828 eV)
    18      18      2.000      -0.873 au  fA            1.00     18 A               1
                        (     -23.747 eV)
    19      19      2.000      -0.850 au  fA            1.00     19 A               1
                        (     -23.126 eV)
    20      20      2.000      -0.822 au  fA            1.00     20 A               1
                        (     -22.372 eV)
    21      21      2.000      -0.704 au  fA            1.00     21 A               1
                        (     -19.169 eV)
    22      22      2.000      -0.668 au  fA            1.00     22 A               1
                        (     -18.168 eV)
    23      23      2.000      -0.657 au  fA            1.00     23 A               1
                        (     -17.874 eV)
    24      24      2.000      -0.585 au  fA            1.00     24 A               1
                        (     -15.906 eV)
    25      25      2.000      -0.560 au  fA            1.00     25 A               1
                        (     -15.252 eV)
    26      26      2.000      -0.550 au  fA            1.00     26 A               1
                        (     -14.974 eV)
    27      27      2.000      -0.531 au  fA            1.00     27 A               1
                        (     -14.443 eV)
    28      28      2.000      -0.502 au  fA            1.00     28 A               1
                        (     -13.658 eV)
    29      29      2.000      -0.471 au  fA            1.00     29 A               1
                        (     -12.827 eV)
    30      30      2.000      -0.439 au  fA            1.00     30 A               1
                        (     -11.957 eV)
    31      31      2.000      -0.439 au  fA            1.00     31 A               1
                        (     -11.948 eV)
    32      32      2.000      -0.431 au  fA            1.00     32 A               1
                        (     -11.716 eV)
    33      33      2.000      -0.423 au  fA            1.00     33 A               1
                        (     -11.518 eV)
    34      34      2.000      -0.401 au  fA            1.00     34 A               1
                        (     -10.909 eV)
    35      35      2.000      -0.388 au  fA            1.00     35 A               1
                        (     -10.556 eV)
    36      36      2.000      -0.376 au  fA            1.00     36 A               1
                        (     -10.225 eV)
    37      37      2.000      -0.370 au  fA            1.00     37 A               1
                        (     -10.074 eV)
    38      38      2.000      -0.368 au  fA            1.00     38 A               1
                        (     -10.018 eV)
    39      39      2.000      -0.359 au  fA            1.00     39 A               1
                        (      -9.761 eV)
    40      40      2.000      -0.340 au  fA            1.00     40 A               1
                        (      -9.246 eV)
    41      41      2.000      -0.337 au  fA            1.00     41 A               1
                        (      -9.171 eV)
    42      42      2.000      -0.325 au  fA            1.00     42 A               1
                        (      -8.853 eV)
    43      43      2.000      -0.306 au  fA            1.00     43 A               1
                        (      -8.319 eV)
    44      44      2.000      -0.252 au  fA            1.00     44 A               1
                        (      -6.856 eV)
    45      45      2.000      -0.248 au  fA            1.00     45 A               1
                        (      -6.752 eV)
    46      46      2.000      -0.241 au  fA            1.00     46 A               1
                        (      -6.570 eV)
    47      47      2.000      -0.235 au  fA            1.00     47 A               1
                        (      -6.399 eV)
    48      48      2.000      -0.234 au  fA            1.00     48 A               1
                        (      -6.355 eV)
    49      49       --        -0.178 au  fA            1.00     49 A               1
                        (      -4.836 eV)
    50      50       --        -0.051 au  fA            1.00     50 A               1
                        (      -1.377 eV)
    51      51       --        -0.032 au  fA            1.00     51 A               1
                        (      -0.858 eV)
    52      52       --        -0.025 au  fA            1.00     52 A               1
                        (      -0.686 eV)
    53      53       --        -0.017 au  fA            1.00     53 A               1
                        (      -0.475 eV)
    54      54       --        -0.000 au  fA            1.00     54 A               1
                        (      -0.011 eV)
    55      55       --         0.006 au  fA            1.00     55 A               1
                        (       0.166 eV)
    56      56       --         0.013 au  fA            1.00     56 A               1
                        (       0.357 eV)
    57      57       --         0.026 au  fA            1.00     57 A               1
                        (       0.720 eV)
    58      58       --         0.035 au  fA            1.00     58 A               1
                        (       0.956 eV)
    59      59       --         0.039 au  fA            1.00     59 A               1
                        (       1.072 eV)
    60      60       --         0.049 au  fA            1.00     60 A               1
                        (       1.338 eV)
    61      61       --         0.053 au  fA            1.00     61 A               1
                        (       1.451 eV)
    62      62       --         0.062 au  fA            1.00     62 A               1
                        (       1.694 eV)
    63      63       --         0.077 au  fA            1.00     63 A               1
                        (       2.093 eV)
    64      64       --         0.088 au  fA            1.00     64 A               1
                        (       2.406 eV)
    65      65       --         0.096 au  fA            1.00     65 A               1
                        (       2.606 eV)
    66      66       --         0.113 au  fA            1.00     66 A               1
                        (       3.067 eV)
    67      67       --         0.123 au  fA            1.00     67 A               1
                        (       3.350 eV)
    68      68       --         0.134 au  fA            1.00     68 A               1
                        (       3.645 eV)
    69      69       --         0.136 au  fA            1.00     69 A               1
                        (       3.707 eV)
    70      70       --         0.144 au  fA            1.00     70 A               1
                        (       3.931 eV)
    71      71       --         0.160 au  fA            1.00     71 A               1
                        (       4.348 eV)
    72      72       --         0.171 au  fA            1.00     72 A               1
                        (       4.667 eV)
    73      73       --         0.184 au  fA            1.00     73 A               1
                        (       5.009 eV)
    74      74       --         0.185 au  fA            1.00     74 A               1
                        (       5.036 eV)
    75      75       --         0.188 au  fA            1.00     75 A               1
                        (       5.105 eV)
    76      76       --         0.201 au  fA            1.00     76 A               1
                        (       5.469 eV)
    77      77       --         0.209 au  fA            1.00     77 A               1
                        (       5.685 eV)
    78      78       --         0.225 au  fA            1.00     78 A               1
                        (       6.120 eV)
    79      79       --         0.235 au  fA            1.00     79 A               1
                        (       6.396 eV)
    80      80       --         0.237 au  fA            1.00     80 A               1
                        (       6.454 eV)
    81      81       --         0.239 au  fA            1.00     81 A               1
                        (       6.516 eV)
    82      82       --         0.253 au  fA            1.00     82 A               1
                        (       6.881 eV)
    83      83       --         0.260 au  fA            1.00     83 A               1
                        (       7.063 eV)
    84      84       --         0.271 au  fA            1.00     84 A               1
                        (       7.386 eV)
    85      85       --         0.283 au  fA            1.00     85 A               1
                        (       7.694 eV)
    86      86       --         0.299 au  fA            1.00     86 A               1
                        (       8.142 eV)
    87      87       --         0.306 au  fA            1.00     87 A               1
                        (       8.318 eV)
    88      88       --         0.310 au  fA            1.00     88 A               1
                        (       8.448 eV)
    89      89       --         0.319 au  fA            1.00     89 A               1
                        (       8.693 eV)
    90      90       --         0.323 au  fA            1.00     90 A               1
                        (       8.788 eV)
    91      91       --         0.340 au  fA            1.00     91 A               1
                        (       9.251 eV)
    92      92       --         0.350 au  fA            1.00     92 A               1
                        (       9.519 eV)
    93      93       --         0.360 au  fA            1.00     93 A               1
                        (       9.808 eV)
    94      94       --         0.366 au  fA            1.00     94 A               1
                        (       9.956 eV)
    95      95       --         0.373 au  fA            1.00     95 A               1
                        (      10.141 eV)
    96      96       --         0.382 au  fA            1.00     96 A               1
                        (      10.393 eV)
    97      97       --         0.386 au  fA            1.00     97 A               1
                        (      10.510 eV)
    98      98       --         0.410 au  fA            1.00     98 A               1
                        (      11.155 eV)
    99      99       --         0.415 au  fA            1.00     99 A               1
                        (      11.289 eV)
   100     100       --         0.426 au  fA            1.00    100 A               1
                        (      11.582 eV)
   101     101       --         0.440 au  fA            1.00    101 A               1
                        (      11.980 eV)
   102     102       --         0.455 au  fA            1.00    102 A               1
                        (      12.384 eV)
   103     103       --         0.472 au  fA            1.00    103 A               1
                        (      12.835 eV)
   104     104       --         0.483 au  fA            1.00    104 A               1
                        (      13.150 eV)
   105     105       --         0.491 au  fA            1.00    105 A               1
                        (      13.349 eV)
   106     106       --         0.502 au  fA            1.00    106 A               1
                        (      13.671 eV)
   107     107       --         0.513 au  fA            1.00    107 A               1
                        (      13.966 eV)
   108     108       --         0.525 au  fA            1.00    108 A               1
                        (      14.297 eV)
   109     109       --         0.538 au  fA            1.00    109 A               1
                        (      14.641 eV)
   110     110       --         0.556 au  fA            1.00    110 A               1
                        (      15.133 eV)
   111     111       --         0.565 au  fA            1.00    111 A               1
                        (      15.373 eV)
   112     112       --         0.580 au  fA            1.00    112 A               1
                        (      15.787 eV)
   113     113       --         0.629 au  fA            1.00    113 A               1
                        (      17.118 eV)
   114     114       --         0.635 au  fA            1.00    114 A               1
                        (      17.280 eV)
   115     115       --         0.642 au  fA            1.00    115 A               1
                        (      17.464 eV)
   116     116       --         0.656 au  fA            1.00    116 A               1
                        (      17.859 eV)
   117     117       --         0.665 au  fA            1.00    117 A               1
                        (      18.086 eV)
   118     118       --         0.698 au  fA            1.00    118 A               1
                        (      18.996 eV)
   119     119       --         0.710 au  fA            1.00    119 A               1
                        (      19.331 eV)
   120     120       --         0.738 au  fA            1.00    120 A               1
                        (      20.069 eV)
   121     121       --         0.761 au  fA            1.00    121 A               1
                        (      20.711 eV)
   122     122       --         0.781 au  fA            1.00    122 A               1
                        (      21.257 eV)
   123     123       --         0.801 au  fA            1.00    123 A               1
                        (      21.809 eV)
   124     124       --         0.816 au  fA            1.00    124 A               1
                        (      22.197 eV)
   125     125       --         0.840 au  fA            1.00    125 A               1
                        (      22.844 eV)
   126     126       --         0.865 au  fA            1.00    126 A               1
                        (      23.550 eV)
   127     127       --         0.873 au  fA            1.00    127 A               1
                        (      23.769 eV)
   128     128       --         0.886 au  fA            1.00    128 A               1
                        (      24.121 eV)
   129     129       --         0.896 au  fA            1.00    129 A               1
                        (      24.379 eV)
   130     130       --         0.911 au  fA            1.00    130 A               1
                        (      24.780 eV)
   131     131       --         0.918 au  fA            1.00    131 A               1
                        (      24.976 eV)
   132     132       --         0.941 au  fA            1.00    132 A               1
                        (      25.599 eV)
   133     133       --         0.958 au  fA            1.00    133 A               1
                        (      26.078 eV)
   134     134       --         0.962 au  fA            1.00    134 A               1
                        (      26.172 eV)
   135     135       --         0.964 au  fA            1.00    135 A               1
                        (      26.223 eV)
   136     136       --         0.977 au  fA            1.00    136 A               1
                        (      26.585 eV)
   137     137       --         0.993 au  fA            1.00    137 A               1
                        (      27.010 eV)
   138     138       --         1.004 au  fA            1.00    138 A               1
                        (      27.317 eV)
   139     139       --         1.008 au  fA            1.00    139 A               1
                        (      27.440 eV)
   140     140       --         1.037 au  fA            1.00    140 A               1
                        (      28.210 eV)
   141     141       --         1.045 au  fA            1.00    141 A               1
                        (      28.434 eV)
   142     142       --         1.059 au  fA            1.00    142 A               1
                        (      28.825 eV)
   143     143       --         1.076 au  fA            1.00    143 A               1
                        (      29.268 eV)
   144     144       --         1.079 au  fA            1.00    144 A               1
                        (      29.360 eV)
   145     145       --         1.094 au  fA            1.00    145 A               1
                        (      29.767 eV)
   146     146       --         1.123 au  fA            1.00    146 A               1
                        (      30.546 eV)
   147     147       --         1.137 au  fA            1.00    147 A               1
                        (      30.936 eV)
   148     148       --         1.162 au  fA            1.00    148 A               1
                        (      31.632 eV)
   149     149       --         1.171 au  fA            1.00    149 A               1
                        (      31.874 eV)
   150     150       --         1.179 au  fA            1.00    150 A               1
                        (      32.081 eV)
   151     151       --         1.204 au  fA            1.00    151 A               1
                        (      32.774 eV)
   152     152       --         1.211 au  fA            1.00    152 A               1
                        (      32.943 eV)
   153     153       --         1.235 au  fA            1.00    153 A               1
                        (      33.609 eV)
   154     154       --         1.238 au  fA            1.00    154 A               1
                        (      33.693 eV)
   155     155       --         1.250 au  fA            1.00    155 A               1
                        (      34.020 eV)
   156     156       --         1.271 au  fA            1.00    156 A               1
                        (      34.574 eV)
   157     157       --         1.277 au  fA            1.00    157 A               1
                        (      34.761 eV)
   158     158       --         1.294 au  fA            1.00    158 A               1
                        (      35.209 eV)
   159     159       --         1.305 au  fA            1.00    159 A               1
                        (      35.509 eV)
   160     160       --         1.313 au  fA            1.00    160 A               1
                        (      35.725 eV)
   161     161       --         1.333 au  fA            1.00    161 A               1
                        (      36.268 eV)
   162     162       --         1.339 au  fA            1.00    162 A               1
                        (      36.432 eV)
   163     163       --         1.364 au  fA            1.00    163 A               1
                        (      37.111 eV)
   164     164       --         1.374 au  fA            1.00    164 A               1
                        (      37.394 eV)
   165     165       --         1.395 au  fA            1.00    165 A               1
                        (      37.955 eV)
   166     166       --         1.422 au  fA            1.00    166 A               1
                        (      38.693 eV)
   167     167       --         1.434 au  fA            1.00    167 A               1
                        (      39.016 eV)
   168     168       --         1.467 au  fA            1.00    168 A               1
                        (      39.925 eV)
   169     169       --         1.491 au  fA            1.00    169 A               1
                        (      40.568 eV)
   170     170       --         1.500 au  fA            1.00    170 A               1
                        (      40.811 eV)
   171     171       --         1.548 au  fA            1.00    171 A               1
                        (      42.115 eV)
   172     172       --         1.550 au  fA            1.00    172 A               1
                        (      42.171 eV)
   173     173       --         1.566 au  fA            1.00    173 A               1
                        (      42.613 eV)
   174     174       --         1.573 au  fA            1.00    174 A               1
                        (      42.793 eV)
   175     175       --         1.589 au  fA            1.00    175 A               1
                        (      43.231 eV)
   176     176       --         1.596 au  fA            1.00    176 A               1
                        (      43.416 eV)
   177     177       --         1.609 au  fA            1.00    177 A               1
                        (      43.786 eV)
   178     178       --         1.636 au  fA            1.00    178 A               1
                        (      44.519 eV)
   179     179       --         1.647 au  fA            1.00    179 A               1
                        (      44.819 eV)
   180     180       --         1.662 au  fA            1.00    180 A               1
                        (      45.222 eV)
   181     181       --         1.670 au  fA            1.00    181 A               1
                        (      45.435 eV)
   182     182       --         1.693 au  fA            1.00    182 A               1
                        (      46.080 eV)
   183     183       --         1.702 au  fA            1.00    183 A               1
                        (      46.323 eV)
   184     184       --         1.723 au  fA            1.00    184 A               1
                        (      46.888 eV)
   185     185       --         1.740 au  fA            1.00    185 A               1
                        (      47.347 eV)
   186     186       --         1.742 au  fA            1.00    186 A               1
                        (      47.390 eV)
   187     187       --         1.777 au  fA            1.00    187 A               1
                        (      48.344 eV)
   188     188       --         1.804 au  fA            1.00    188 A               1
                        (      49.095 eV)
   189     189       --         1.828 au  fA            1.00    189 A               1
                        (      49.753 eV)
   190     190       --         1.841 au  fA            1.00    190 A               1
                        (      50.094 eV)
   191     191       --         1.865 au  fA            1.00    191 A               1
                        (      50.755 eV)
   192     192       --         1.891 au  fA            1.00    192 A               1
                        (      51.458 eV)
   193     193       --         1.930 au  fA            1.00    193 A               1
                        (      52.508 eV)
   194     194       --         1.959 au  fA            1.00    194 A               1
                        (      53.301 eV)
   195     195       --         1.964 au  fA            1.00    195 A               1
                        (      53.437 eV)
   196     196       --         1.989 au  fA            1.00    196 A               1
                        (      54.131 eV)
   197     197       --         2.009 au  fA            1.00    197 A               1
                        (      54.654 eV)
   198     198       --         2.022 au  fA            1.00    198 A               1
                        (      55.028 eV)
   199     199       --         2.040 au  fA            1.00    199 A               1
                        (      55.505 eV)
   200     200       --         2.048 au  fA            1.00    200 A               1
                        (      55.726 eV)
   201     201       --         2.068 au  fA            1.00    201 A               1
                        (      56.272 eV)
   202     202       --         2.074 au  fA            1.00    202 A               1
                        (      56.432 eV)
   203     203       --         2.097 au  fA            1.00    203 A               1
                        (      57.060 eV)
   204     204       --         2.130 au  fA            1.00    204 A               1
                        (      57.954 eV)
   205     205       --         2.165 au  fA            1.00    205 A               1
                        (      58.919 eV)
   206     206       --         2.190 au  fA            1.00    206 A               1
                        (      59.588 eV)
   207     207       --         2.203 au  fA            1.00    207 A               1
                        (      59.953 eV)
   208     208       --         2.209 au  fA            1.00    208 A               1
                        (      60.110 eV)
   209     209       --         2.246 au  fA            1.00    209 A               1
                        (      61.125 eV)
   210     210       --         2.254 au  fA            1.00    210 A               1
                        (      61.327 eV)
   211     211       --         2.276 au  fA            1.00    211 A               1
                        (      61.928 eV)
   212     212       --         2.325 au  fA            1.00    212 A               1
                        (      63.260 eV)
   213     213       --         2.339 au  fA            1.00    213 A               1
                        (      63.660 eV)
   214     214       --         2.347 au  fA            1.00    214 A               1
                        (      63.865 eV)
   215     215       --         2.370 au  fA            1.00    215 A               1
                        (      64.480 eV)
   216     216       --         2.395 au  fA            1.00    216 A               1
                        (      65.175 eV)
   217     217       --         2.417 au  fA            1.00    217 A               1
                        (      65.764 eV)
   218     218       --         2.434 au  fA            1.00    218 A               1
                        (      66.226 eV)
   219     219       --         2.454 au  fA            1.00    219 A               1
                        (      66.765 eV)
   220     220       --         2.477 au  fA            1.00    220 A               1
                        (      67.408 eV)
   221     221       --         2.510 au  fA            1.00    221 A               1
                        (      68.296 eV)
   222     222       --         2.561 au  fA            1.00    222 A               1
                        (      69.677 eV)
   223     223       --         2.589 au  fA            1.00    223 A               1
                        (      70.450 eV)
   224     224       --         2.600 au  fA            1.00    224 A               1
                        (      70.747 eV)
   225     225       --         2.647 au  fA            1.00    225 A               1
                        (      72.017 eV)
   226     226       --         2.673 au  fA            1.00    226 A               1
                        (      72.749 eV)
   227     227       --         2.727 au  fA            1.00    227 A               1
                        (      74.203 eV)
   228     228       --         2.749 au  fA            1.00    228 A               1
                        (      74.806 eV)
   229     229       --         2.771 au  fA            1.00    229 A               1
                        (      75.415 eV)
   230     230       --         2.774 au  fA            1.00    230 A               1
                        (      75.477 eV)
   231     231       --         2.778 au  fA            1.00    231 A               1
                        (      75.606 eV)
   232     232       --         2.794 au  fA            1.00    232 A               1
                        (      76.042 eV)
   233     233       --         2.798 au  fA            1.00    233 A               1
                        (      76.138 eV)
   234     234       --         2.810 au  fA            1.00    234 A               1
                        (      76.454 eV)
   235     235       --         2.838 au  fA            1.00    235 A               1
                        (      77.233 eV)
   236     236       --         2.846 au  fA            1.00    236 A               1
                        (      77.445 eV)
   237     237       --         2.861 au  fA            1.00    237 A               1
                        (      77.862 eV)
   238     238       --         2.881 au  fA            1.00    238 A               1
                        (      78.408 eV)
   239     239       --         2.889 au  fA            1.00    239 A               1
                        (      78.604 eV)
   240     240       --         2.915 au  fA            1.00    240 A               1
                        (      79.332 eV)
   241     241       --         2.938 au  fA            1.00    241 A               1
                        (      79.950 eV)
   242     242       --         2.964 au  fA            1.00    242 A               1
                        (      80.648 eV)
   243     243       --         2.987 au  fA            1.00    243 A               1
                        (      81.277 eV)
   244     244       --         2.990 au  fA            1.00    244 A               1
                        (      81.368 eV)
   245     245       --         3.008 au  fA            1.00    245 A               1
                        (      81.861 eV)
   246     246       --         3.026 au  fA            1.00    246 A               1
                        (      82.342 eV)
   247     247       --         3.088 au  fA            1.00    247 A               1
                        (      84.022 eV)
   248     248       --         3.095 au  fA            1.00    248 A               1
                        (      84.214 eV)
   249     249       --         3.135 au  fA            1.00    249 A               1
                        (      85.318 eV)
   250     250       --         3.172 au  fA            1.00    250 A               1
                        (      86.309 eV)
   251     251       --         3.212 au  fA            1.00    251 A               1
                        (      87.415 eV)
   252     252       --         3.228 au  fA            1.00    252 A               1
                        (      87.847 eV)
   253     253       --         3.244 au  fA            1.00    253 A               1
                        (      88.267 eV)
   254     254       --         3.285 au  fA            1.00    254 A               1
                        (      89.398 eV)
   255     255       --         3.296 au  fA            1.00    255 A               1
                        (      89.702 eV)
   256     256       --         3.314 au  fA            1.00    256 A               1
                        (      90.173 eV)
   257     257       --         3.347 au  fA            1.00    257 A               1
                        (      91.082 eV)
   258     258       --         3.364 au  fA            1.00    258 A               1
                        (      91.548 eV)
   259     259       --         3.375 au  fA            1.00    259 A               1
                        (      91.845 eV)
   260     260       --         3.396 au  fA            1.00    260 A               1
                        (      92.421 eV)
   261     261       --         3.414 au  fA            1.00    261 A               1
                        (      92.903 eV)
   262     262       --         3.428 au  fA            1.00    262 A               1
                        (      93.277 eV)
   263     263       --         3.433 au  fA            1.00    263 A               1
                        (      93.412 eV)
   264     264       --         3.439 au  fA            1.00    264 A               1
                        (      93.569 eV)
   265     265       --         3.446 au  fA            1.00    265 A               1
                        (      93.761 eV)
   266     266       --         3.455 au  fA            1.00    266 A               1
                        (      94.027 eV)
   267     267       --         3.471 au  fA            1.00    267 A               1
                        (      94.450 eV)
   268     268       --         3.480 au  fA            1.00    268 A               1
                        (      94.706 eV)
   269     269       --         3.508 au  fA            1.00    269 A               1
                        (      95.470 eV)
   270     270       --         3.528 au  fA            1.00    270 A               1
                        (      96.004 eV)
   271     271       --         3.540 au  fA            1.00    271 A               1
                        (      96.318 eV)
   272     272       --         3.578 au  fA            1.00    272 A               1
                        (      97.370 eV)
   273     273       --         3.588 au  fA            1.00    273 A               1
                        (      97.632 eV)
   274     274       --         3.599 au  fA            1.00    274 A               1
                        (      97.933 eV)
   275     275       --         3.607 au  fA            1.00    275 A               1
                        (      98.158 eV)
   276     276       --         3.655 au  fA            1.00    276 A               1
                        (      99.455 eV)
   277     277       --         3.684 au  fA            1.00    277 A               1
                        (     100.254 eV)
   278     278       --         3.691 au  fA            1.00    278 A               1
                        (     100.444 eV)
   279     279       --         3.724 au  fA            1.00    279 A               1
                        (     101.341 eV)
   280     280       --         3.741 au  fA            1.00    280 A               1
                        (     101.791 eV)
   281     281       --         3.758 au  fA            1.00    281 A               1
                        (     102.263 eV)
   282     282       --         3.778 au  fA            1.00    282 A               1
                        (     102.807 eV)
   283     283       --         3.787 au  fA            1.00    283 A               1
                        (     103.039 eV)
   284     284       --         3.798 au  fA            1.00    284 A               1
                        (     103.361 eV)
   285     285       --         3.808 au  fA            1.00    285 A               1
                        (     103.633 eV)
   286     286       --         3.819 au  fA            1.00    286 A               1
                        (     103.930 eV)
   287     287       --         3.855 au  fA            1.00    287 A               1
                        (     104.907 eV)
   288     288       --         3.876 au  fA            1.00    288 A               1
                        (     105.461 eV)
   289     289       --         3.886 au  fA            1.00    289 A               1
                        (     105.748 eV)
   290     290       --         3.926 au  fA            1.00    290 A               1
                        (     106.826 eV)
   291     291       --         3.931 au  fA            1.00    291 A               1
                        (     106.966 eV)
   292     292       --         3.952 au  fA            1.00    292 A               1
                        (     107.541 eV)
   293     293       --         3.991 au  fA            1.00    293 A               1
                        (     108.592 eV)
   294     294       --         4.013 au  fA            1.00    294 A               1
                        (     109.191 eV)
   295     295       --         4.039 au  fA            1.00    295 A               1
                        (     109.895 eV)
   296     296       --         4.079 au  fA            1.00    296 A               1
                        (     111.002 eV)
   297     297       --         4.109 au  fA            1.00    297 A               1
                        (     111.806 eV)
   298     298       --         4.117 au  fA            1.00    298 A               1
                        (     112.018 eV)
   299     299       --         4.124 au  fA            1.00    299 A               1
                        (     112.232 eV)
   300     300       --         4.163 au  fA            1.00    300 A               1
                        (     113.274 eV)
   301     301       --         4.185 au  fA            1.00    301 A               1
                        (     113.891 eV)
   302     302       --         4.195 au  fA            1.00    302 A               1
                        (     114.148 eV)
   303     303       --         4.249 au  fA            1.00    303 A               1
                        (     115.622 eV)
   304     304       --         4.284 au  fA            1.00    304 A               1
                        (     116.577 eV)
   305     305       --         4.309 au  fA            1.00    305 A               1
                        (     117.263 eV)
   306     306       --         4.323 au  fA            1.00    306 A               1
                        (     117.637 eV)
   307     307       --         4.355 au  fA            1.00    307 A               1
                        (     118.492 eV)
   308     308       --         4.364 au  fA            1.00    308 A               1
                        (     118.751 eV)
   309     309       --         4.381 au  fA            1.00    309 A               1
                        (     119.218 eV)
   310     310       --         4.394 au  fA            1.00    310 A               1
                        (     119.566 eV)
   311     311       --         4.402 au  fA            1.00    311 A               1
                        (     119.778 eV)
   312     312       --         4.432 au  fA            1.00    312 A               1
                        (     120.600 eV)
   313     313       --         4.446 au  fA            1.00    313 A               1
                        (     120.980 eV)
   314     314       --         4.453 au  fA            1.00    314 A               1
                        (     121.177 eV)
   315     315       --         4.469 au  fA            1.00    315 A               1
                        (     121.620 eV)
   316     316       --         4.475 au  fA            1.00    316 A               1
                        (     121.758 eV)
   317     317       --         4.484 au  fA            1.00    317 A               1
                        (     122.003 eV)
   318     318       --         4.525 au  fA            1.00    318 A               1
                        (     123.140 eV)
   319     319       --         4.554 au  fA            1.00    319 A               1
                        (     123.917 eV)
   320     320       --         4.592 au  fA            1.00    320 A               1
                        (     124.943 eV)
   321     321       --         4.620 au  fA            1.00    321 A               1
                        (     125.715 eV)
   322     322       --         4.644 au  fA            1.00    322 A               1
                        (     126.364 eV)
   323     323       --         4.668 au  fA            1.00    323 A               1
                        (     127.034 eV)
   324     324       --         4.678 au  fA            1.00    324 A               1
                        (     127.289 eV)
   325     325       --         4.701 au  fA            1.00    325 A               1
                        (     127.920 eV)
   326     326       --         4.742 au  fA            1.00    326 A               1
                        (     129.029 eV)
   327     327       --         4.757 au  fA            1.00    327 A               1
                        (     129.435 eV)
   328     328       --         4.773 au  fA            1.00    328 A               1
                        (     129.883 eV)
   329     329       --         4.791 au  fA            1.00    329 A               1
                        (     130.371 eV)
   330     330       --         4.797 au  fA            1.00    330 A               1
                        (     130.536 eV)
   331     331       --         4.813 au  fA            1.00    331 A               1
                        (     130.966 eV)
   332     332       --         4.829 au  fA            1.00    332 A               1
                        (     131.413 eV)
   333     333       --         4.843 au  fA            1.00    333 A               1
                        (     131.782 eV)
   334     334       --         4.900 au  fA            1.00    334 A               1
                        (     133.334 eV)
   335     335       --         4.945 au  fA            1.00    335 A               1
                        (     134.569 eV)
   336     336       --         4.974 au  fA            1.00    336 A               1
                        (     135.340 eV)
   337     337       --         5.026 au  fA            1.00    337 A               1
                        (     136.760 eV)
   338     338       --         5.050 au  fA            1.00    338 A               1
                        (     137.431 eV)
   339     339       --         5.077 au  fA            1.00    339 A               1
                        (     138.139 eV)
   340     340       --         5.088 au  fA            1.00    340 A               1
                        (     138.463 eV)
   341     341       --         5.108 au  fA            1.00    341 A               1
                        (     139.000 eV)
   342     342       --         5.129 au  fA            1.00    342 A               1
                        (     139.569 eV)
   343     343       --         5.185 au  fA            1.00    343 A               1
                        (     141.082 eV)
   344     344       --         5.257 au  fA            1.00    344 A               1
                        (     143.044 eV)
   345     345       --         5.298 au  fA            1.00    345 A               1
                        (     144.164 eV)
   346     346       --         5.371 au  fA            1.00    346 A               1
                        (     146.142 eV)
   347     347       --         5.392 au  fA            1.00    347 A               1
                        (     146.718 eV)
   348     348       --         5.403 au  fA            1.00    348 A               1
                        (     147.034 eV)
   349     349       --         5.489 au  fA            1.00    349 A               1
                        (     149.360 eV)
   350     350       --         5.541 au  fA            1.00    350 A               1
                        (     150.785 eV)
   351     351       --         5.559 au  fA            1.00    351 A               1
                        (     151.261 eV)
   352     352       --         5.576 au  fA            1.00    352 A               1
                        (     151.743 eV)
   353     353       --         5.610 au  fA            1.00    353 A               1
                        (     152.660 eV)
   354     354       --         5.629 au  fA            1.00    354 A               1
                        (     153.161 eV)
   355     355       --         5.693 au  fA            1.00    355 A               1
                        (     154.917 eV)
   356     356       --         5.750 au  fA            1.00    356 A               1
                        (     156.470 eV)
   357     357       --         5.786 au  fA            1.00    357 A               1
                        (     157.432 eV)
   358     358       --         5.808 au  fA            1.00    358 A               1
                        (     158.051 eV)
   359     359       --         5.960 au  fA            1.00    359 A               1
                        (     162.179 eV)
   360     360       --         6.000 au  fA            1.00    360 A               1
                        (     163.263 eV)
   361     361       --         6.070 au  fA            1.00    361 A               1
                        (     165.178 eV)
   362     362       --         6.097 au  fA            1.00    362 A               1
                        (     165.907 eV)
   363     363       --         6.104 au  fA            1.00    363 A               1
                        (     166.101 eV)
   364     364       --         6.130 au  fA            1.00    364 A               1
                        (     166.811 eV)
   365     365       --         6.167 au  fA            1.00    365 A               1
                        (     167.803 eV)
   366     366       --         6.195 au  fA            1.00    366 A               1
                        (     168.571 eV)
   367     367       --         6.225 au  fA            1.00    367 A               1
                        (     169.383 eV)
   368     368       --         6.280 au  fA            1.00    368 A               1
                        (     170.880 eV)
   369     369       --         6.352 au  fA            1.00    369 A               1
                        (     172.836 eV)
   370     370       --         6.377 au  fA            1.00    370 A               1
                        (     173.531 eV)
   371     371       --         6.414 au  fA            1.00    371 A               1
                        (     174.540 eV)
   372     372       --         6.478 au  fA            1.00    372 A               1
                        (     176.271 eV)
   373     373       --         6.500 au  fA            1.00    373 A               1
                        (     176.864 eV)
   374     374       --         6.537 au  fA            1.00    374 A               1
                        (     177.880 eV)
   375     375       --         6.566 au  fA            1.00    375 A               1
                        (     178.671 eV)
   376     376       --         6.592 au  fA            1.00    376 A               1
                        (     179.390 eV)
   377     377       --         6.654 au  fA            1.00    377 A               1
                        (     181.069 eV)
   378     378       --         6.702 au  fA            1.00    378 A               1
                        (     182.369 eV)
   379     379       --         6.745 au  fA            1.00    379 A               1
                        (     183.532 eV)
   380     380       --         6.765 au  fA            1.00    380 A               1
                        (     184.076 eV)
[...]
     450       62.3661         0.000       
     449       62.0214         0.000       
     448       61.7151         0.000       
     447       61.6025         0.000       
     446       60.9759         0.000       
     445       60.8097         0.000       
     444       60.1111         0.000       
     443       59.8725         0.000       
     442       59.7413         0.000       
     441       59.2319         0.000       
     440       58.7890         0.000       
     439       58.4341         0.000       
     438       58.1358         0.000       
     437       57.7596         0.000       
     436       57.5467         0.000       
     435       57.4845         0.000       
     434       57.0229         0.000       
     433       56.9688         0.000       
     432       56.6042         0.000       
     431       56.4036         0.000       
     430       56.3006         0.000       
     429       56.0743         0.000       
     428       55.7035         0.000       
     427       55.6317         0.000       
     426       55.1748         0.000       
     425       54.9146         0.000       
     424       54.4754         0.000       
     423       54.3000         0.000       
     422       54.0458         0.000       
     421       53.7938         0.000       
     420       53.3899         0.000       
     419       53.2735         0.000       
     418       53.0239         0.000       
     417       53.0111         0.000       
     416       52.6747         0.000       
     415       52.4374         0.000       
     414       52.3402         0.000       
     413       51.8074         0.000       
     412       51.6778         0.000       
     411       51.3468         0.000       
     410       51.1756         0.000       
     409       50.6412         0.000       
     408       50.3959         0.000       
     407       50.1859         0.000       
     406       49.8998         0.000       
     405       49.4702         0.000       
     404       49.1792         0.000       
     403       49.0541         0.000       
     402       48.8957         0.000       
     401       48.4673         0.000       
     400       48.3792         0.000       
     399       47.9075         0.000       
     398       47.6073         0.000       
     397       47.5245         0.000       
     396       47.3254         0.000       
     395       47.0604         0.000       
     394       46.9226         0.000       
     393       46.5553         0.000       
     392       46.3592         0.000       
     391       46.0251         0.000       
     390       45.8043         0.000       
     389       45.5490         0.000       
     388       45.2556         0.000       
     387       45.1010         0.000       
     386       44.9224         0.000       
     385       44.6636         0.000       
     384       44.4772         0.000       
     383       44.2748         0.000       
     382       43.9550         0.000       
     381       43.7748         0.000       
     380       43.4966         0.000       
     379       43.2896         0.000       
     378       43.2086         0.000       
     377       42.8396         0.000       
     376       42.6612         0.000       
     375       42.3283         0.000       
     374       42.0870         0.000       
     373       41.7289         0.000       
     372       41.4678         0.000       
     371       40.9974         0.000       
     370       40.9255         0.000       
     369       40.7893         0.000       
     368       40.6278         0.000       
     367       40.2559         0.000       
     366       40.0601         0.000       
     365       39.7392         0.000       
     364       39.4469         0.000       
     363       39.1774         0.000       
     362       38.9174         0.000       
     361       38.8137         0.000       
     360       38.6186         0.000       
     359       38.4511         0.000       
     358       38.1678         0.000       
     357       38.0963         0.000       
     356       38.0266         0.000       
     355       37.7146         0.000       
     354       37.4492         0.000       
     353       37.4298         0.000       
     352       37.0784         0.000       
     351       36.9502         0.000       
     350       36.7995         0.000       
     349       36.4727         0.000       
     348       36.1563         0.000       
     347       36.0451         0.000       
     346       35.8577         0.000       
     345       35.5823         0.000       
     344       35.4160         0.000       
     343       35.0850         0.000       
     342       34.8673         0.000       
     341       34.8301         0.000       
     340       34.6110         0.000       
     339       34.3835         0.000       
     338       34.1012         0.000       
     337       33.9429         0.000       
     336       33.7352         0.000       
     335       33.4637         0.000       
     334       33.2161         0.000       
     333       32.9248         0.000       
     332       32.8718         0.000       
     331       32.6379         0.000       
     330       32.4271         0.000       
     329       32.1530         0.000       
     328       32.1196         0.000       
     327       32.0257         0.000       
     326       31.8714         0.000       
     325       31.5813         0.000       
     324       31.2577         0.000       
     323       31.0376         0.000       
     322       30.9263         0.000       
     321       30.4550         0.000       
     320       30.3947         0.000       
     319       30.1216         0.000       
     318       30.0650         0.000       
     317       29.8892         0.000       
     316       29.6630         0.000       
     315       29.4582         0.000       
     314       29.2276         0.000       
     313       29.1747         0.000       
     312       28.9769         0.000       
     311       28.6746         0.000       
     310       28.5610         0.000       
     309       28.3551         0.000       
     308       28.2370         0.000       
     307       28.1929         0.000       
     306       28.0498         0.000       
     305       27.9590         0.000       
     304       27.7044         0.000       
     303       27.6764         0.000       
     302       27.4538         0.000       
     301       27.2136         0.000       
     300       27.0600         0.000       
     299       26.9327         0.000       
     298       26.8882         0.000       
     297       26.6166         0.000       
     296       26.5218         0.000       
     295       26.4247         0.000       
     294       26.2705         0.000       
     293       26.1585         0.000       
     292       26.0434         0.000       
     291       25.8809         0.000       
     290       25.5265         0.000       
     289       25.3571         0.000       
     288       25.1103         0.000       
     287       25.0208         0.000       
     286       24.8685         0.000       
     285       24.7378         0.000       
     284       24.5853         0.000       
     283       24.2825         0.000       
     282       24.2629         0.000       
     281       24.1658         0.000       
     280       23.9396         0.000       
     279       23.8221         0.000       
     278       23.5848         0.000       
     277       23.1755         0.000       
     276       23.1540         0.000       
     275       22.8946         0.000       
     274       22.7347         0.000       
     273       22.5683         0.000       
     272       22.2665         0.000       
     271       22.1385         0.000       
     270       21.8340         0.000       
     269       21.5352         0.000       
     268       21.1361         0.000       
     267       21.1203         0.000       
     266       20.9235         0.000       
     265       20.8878         0.000       
     264       20.7625         0.000       
     263       20.4365         0.000       
     262       20.3325         0.000       
     261       20.2894         0.000       
     260       20.0792         0.000       
     259       19.5058         0.000       
     258       19.2995         0.000       
     257       19.1726         0.000       
     256       18.9820         0.000       
     255       18.7040         0.000       
     254       18.2871         0.000       
     253       18.1654         0.000       
     252       18.0507         0.000       
     251       17.8221         0.000       
     250       17.5734         0.000       
     249       17.3336         0.000       
     248       17.1362         0.000       
     247       17.0134         0.000       
     246       16.7745         0.000       
     245       16.3809         0.000       
     244       15.9919         0.000       
     243       15.6955         0.000       
     242       15.4724         0.000       
     241       15.3122         0.000       
     240       15.2501         0.000       
     239       14.9041         0.000       
     238       14.6262         0.000       
     237       14.4115         0.000       
     236       14.3638         0.000       
     235       14.2958         0.000       
     234       14.1505         0.000       
     233       13.8614         0.000       
     232       13.7945         0.000       
     231       13.6591         0.000       
     230       13.4052         0.000       
     229       13.3717         0.000       
     228       13.0930         0.000       
     227       12.9690         0.000       
     226       12.8490         0.000       
     225       12.7232         0.000       
     224       12.5108         0.000       
     223       12.3955         0.000       
     222       12.1616         0.000       
     221       12.0256         0.000       
     220       11.8551         0.000       
     219       11.7143         0.000       
     218       11.5231         0.000       
     217       11.1270         0.000       
     216       11.0051         0.000       
     215       10.9861         0.000       
     214       10.8385         0.000       
     213       10.6323         0.000       
     212       10.5494         0.000       
     211       10.3809         0.000       
     210       10.3694         0.000       
     209       10.2064         0.000       
     208       10.1553         0.000       
     207        9.9631         0.000       
     206        9.8220         0.000       
     205        9.7038         0.000       
     204        9.6320         0.000       
     203        9.5633         0.000       
     202        9.2971         0.000       
     201        9.1929         0.000       
     200        9.1009         0.000       
     199        8.9873         0.000       
     198        8.8071         0.000       
     197        8.7192         0.000       
     196        8.3869         0.000       
     195        8.2367         0.000       
     194        8.1547         0.000       
     193        7.9887         0.000       
     192        7.8834         0.000       
     191        7.7870         0.000       
     190        7.6833         0.000       
     189        7.4623         0.000       
     188        7.3626         0.000       
     187        7.1557         0.000       
     186        7.0016         0.000       
     185        6.9220         0.000       
     184        6.7943         0.000       
     183        6.6998         0.000       
     182        6.6215         0.000       
     181        6.4902         0.000       
     180        6.2941         0.000       
     179        6.2672         0.000       
     178        6.1851         0.000       
     177        6.1057         0.000       
     176        5.9865         0.000       
     175        5.8699         0.000       
     174        5.7522         0.000       
     173        5.6382         0.000       
     172        5.5617         0.000       
     171        5.4877         0.000       
     170        5.2870         0.000       
     169        5.2387         0.000       
     168        5.0037         0.000       
     167        4.9517         0.000       
     166        4.9056         0.000       
     165        4.7523         0.000       
     164        4.6966         0.000       
     163        4.5168         0.000       
     162        4.3686         0.000       
     161        4.2873         0.000       
     160        4.1755         0.000       
     159        4.0434         0.000       
     158        3.9902         0.000       
     157        3.7966         0.000       
     156        3.6845         0.000       
     155        3.5258         0.000       
     154        3.4885         0.000       
     153        3.4181         0.000       
     152        3.0325         0.000       
     151        2.9388         0.000       
     150        2.6416         0.000       
     149        2.5027         0.000       
     148        2.4230         0.000       
     147        2.3749         0.000       
     146        1.9617         0.000       
     145        1.8866         0.000       
     144        1.6887         0.000       
     143        1.5865         0.000       
     142        1.4968         0.000       
     141        1.4129         0.000       
     140        1.1463         0.000       
     139        1.1091         0.000       
     138        0.9805         0.000       
     137        0.9015         0.000       
     136        0.6531         0.000       
     135        0.4222         0.000       
     134        0.3349         0.000       
     133        0.2911         0.000       
     132        0.0899         0.000       
     131       -0.1125         0.000       
     130       -0.2712         0.000       
     129       -0.3363         0.000       
     128       -0.5916         0.000       
     127       -0.8283         0.000       
     126       -1.0274         0.000       
     125       -1.0815         0.000       
     124       -1.3184         0.000       
     123       -2.0665         0.000       
     122       -2.9438         0.000       
     121       -4.1362         0.000 < LUMO
     120       -5.9769         2.000 < HOMO
     119       -6.0962         2.000       
     118       -6.2371         2.000       
     117       -6.3421         2.000       
     116       -6.4579         2.000       
     115       -6.5455         2.000       
     114       -6.6642         2.000       
     113       -6.8460         2.000       
     112       -6.9202         2.000       
     111       -6.9660         2.000       
     110       -7.1345         2.000       
     109       -7.2850         2.000       
     108       -7.8411         2.000       
     107       -7.9706         2.000       
     106       -8.7082         2.000       
     105       -8.9149         2.000       
     104       -9.0801         2.000       
     103       -9.2761         2.000       
     102       -9.4500         2.000       
     101       -9.5061         2.000       
     100       -9.6424         2.000       
      99       -9.7780         2.000       
      98       -9.8600         2.000       
      97       -9.9393         2.000       
      96      -10.0952         2.000       
      95      -10.0983         2.000       
      94      -10.2544         2.000       
      93      -10.5521         2.000       
      92      -10.7098         2.000       
      91      -10.8522         2.000       
      90      -10.9150         2.000       
      89      -11.1783         2.000       
      88      -11.2468         2.000       
      87      -11.3605         2.000       
      86      -11.5985         2.000       
      85      -11.7287         2.000       
      84      -11.7762         2.000       
      83      -11.9199         2.000       
      82      -11.9974         2.000       
      81      -12.4101         2.000       
      80      -12.5979         2.000       
      79      -13.4495         2.000       
      78      -13.8055         2.000       
      77      -14.2103         2.000       
      76      -14.4692         2.000       
      75      -14.8869         2.000       
      74      -14.9181         2.000       
      73      -15.2181         2.000       
      72      -15.3608         2.000       
      71      -15.7335         2.000       
      70      -17.6474         2.000       
      69      -17.6714         2.000       
      68      -17.9587         2.000       
      67      -18.1085         2.000       
      66      -19.0770         2.000       
      65      -19.7403         2.000       
      64      -20.3386         2.000       
      63      -22.0511         2.000       
      62      -22.2350         2.000       
      61      -22.9329         2.000       
      60      -23.1634         2.000       
      59      -23.5472         2.000       
      58      -23.5639         2.000       
      57      -23.8867         2.000       
      56      -26.1233         2.000       
      55      -26.1913         2.000       
      54      -26.4094         2.000       
      53      -26.7430         2.000       
      52      -30.4200         2.000       
      51      -66.1891         2.000       
      50      -66.1974         2.000       
      49      -66.2578         2.000       
      48      -66.2640         2.000       
      47      -66.4733         2.000       
      46      -66.4780         2.000       
      45      -66.5349         2.000       
      44      -66.5431         2.000       
      43      -66.5747         2.000       
      42      -66.6452         2.000       
      41     -172.7767         2.000       
      40     -172.7834         2.000       
      39     -172.8364         2.000       
      38     -172.8523         2.000       
      37     -173.1564         2.000       
      36     -173.2234         2.000       
      35     -236.6777         2.000       
      34     -236.7422         2.000       
      33     -270.9349         2.000       
      32     -271.1954         2.000       
      31     -271.3291         2.000       
      30     -271.3561         2.000       
      29     -271.5194         2.000       
      28     -271.6808         2.000       
      27     -273.0242         2.000       
      26     -273.2339         2.000       
      25     -273.2879         2.000       
      24     -273.5828         2.000       
      23     -273.6231         2.000       
      22     -273.7037         2.000       
      21     -382.0478         2.000       
      20     -382.3692         2.000       
      19     -382.7726         2.000       
      18     -382.8948         2.000       
      17     -383.0648         2.000       
      16     -383.6611         2.000       
      15     -510.7408         2.000       
      14     -510.8839         2.000       
      13     -511.0345         2.000       
      12     -511.4623         2.000       
      11     -515.3524         2.000       
      10    -1526.8814         2.000       
       9    -1526.8863         2.000       
       8    -1526.9446         2.000       
       7    -1526.9513         2.000       
       6    -1527.0121         2.000       
       5    -1527.0754         2.000       
       4    -1730.0168         2.000       
       3    -1730.0812         2.000       
       2   -13296.4974         2.000       
       1   -13296.5574         2.000       

AMS application finished. Exiting.
NORMAL TERMINATION
     Total cpu time:     681.62
  Total system time:       3.03
 Total elapsed time:     688.28
NORMAL TERMINATION
