
 *******************************************************************************
 *                                                                             *
 *  --------------------------------                                           *
 *   Amsterdam Modeling Suite (AMS)              2026.103                      *
 *  --------------------------------                                           *
 *                                               r260501 2026-05-01 873454b5   *
 *                                                                             *
 *                                                                             *
 *                              =================                              *
 *                              |               |                              *
 *                              |     A M S     |                              *
 *                              |               |                              *
 *                              =================                              *
 *                                                                             *
 *                                                                             *
 *   Online information and documentation:  https://www.scm.com/support/       *
 *   E-mail:  support@scm.com   info@scm.com                                   *
 *                                                                             *
 *   Scientific publications using AMS results must be properly referenced     *
 *   See the User Manuals (or the web site) for recommended citations          *
 *   The terms and conditions of the End User License Agreement apply to       *
 *   the use of AMS, https://www.scm.com/license-terms/                        *
 *                                                                             *
 **********************  x86_64_linux_intel / intelmpi  ************************
 
 Licensed to: Jong-June Jeon / University of Seoul 2026-05-13 16:10:32
 SCM User ID: u30731
  
 AMS 2026.103  RunTime: May30-2026 15:37:37  ShM Nodes: 1  Procs: 1

 AMS jobname: c3_eda
 AMS jobid  : 478458172

 Start   directory: /gpfs/home1/yeseo1ee/projects/eda-asm-prediction/adf_outputs/batch_001/dipolar_001803/
 Results directory: /gpfs/home1/yeseo1ee/projects/eda-asm-prediction/adf_outputs/batch_001/dipolar_001803/c3_eda.results/
 Scratch directory: /tmp/amstmp_c3_eda_kid0.478458172/

 RNG seed: 1454646444 -1893426690 744764466 1595539708 -1098753922 -1291915131 -1013651773 -1228636886



                      ************************************************************************
                      *  ADF 2026.103  RunTime: May30-2026 15:37:37  ShM Nodes: 1  Procs: 1  *
                      ************************************************************************
  

       ****************************
       * SINGLE POINT CALCULATION *
       ****************************

--------
Geometry
--------
Formula: C18H23F2NO6
Atoms
  Index Symbol   x (angstrom)   y (angstrom)   z (angstrom)
      1      C    -1.39649000     4.18847000     1.93635000 adf.f=fA
      2      O    -0.75119000     3.25648000     1.05153000 adf.f=fA
      3      C    -1.52318000     2.33727000     0.49144000 adf.f=fA
      4      O    -2.72592000     2.26734000     0.62031000 adf.f=fA
      5      C    -0.70075000     1.43180000    -0.37809000 adf.f=fA
      6      O     0.36329000     2.03214000    -1.00258000 adf.f=fA
      7      C     0.77061000     1.20226000    -2.04208000 adf.f=fA
      8      O     1.75715000     1.45068000    -2.69580000 adf.f=fA
      9      C    -0.22445000     0.13684000    -2.07484000 adf.f=fA
     10      C    -0.30428000    -0.95885000    -3.06768000 adf.f=fA
     11      C     0.68933000    -0.93536000    -4.19310000 adf.f=fA
     12      O    -1.16003000    -1.83045000    -2.97333000 adf.f=fA
     13      N    -1.23812000     0.51284000    -1.23397000 adf.f=fA
     14      C    -2.36323000    -0.34388000    -0.86168000 adf.f=fA
     15      H    -0.59908000     4.83166000     2.32392000 adf.f=fA
     16      H    -1.89067000     3.65139000     2.75706000 adf.f=fA
     17      H    -2.13635000     4.78433000     1.38388000 adf.f=fA
     18      H     0.48237000    -0.06433000    -4.83733000 adf.f=fA
     19      H     0.59285000    -1.86011000    -4.77572000 adf.f=fA
     20      H     1.71270000    -0.81830000    -3.81568000 adf.f=fA
     21      H    -2.92162000    -0.61683000    -1.76133000 adf.f=fA
     22      H    -3.00302000     0.20693000    -0.17056000 adf.f=fA
     23      H    -1.97806000    -1.25511000    -0.38196000 adf.f=fA
     24      C     0.96202000    -0.69841000    -0.14494000 adf.f=fB
     25      C     0.42693000     0.00348000     0.73990000 adf.f=fB
     26      C     0.23291000     0.13916000     2.21348000 adf.f=fB
     27      C     1.18555000     1.19869000     2.78030000 adf.f=fB
     28      O    -1.14547000     0.49301000     2.37829000 adf.f=fB
     29      C    -1.59745000     0.82419000     3.67682000 adf.f=fB
     30      C     0.53014000    -1.24277000     2.84077000 adf.f=fB
     31      C    -0.27144000    -2.42469000     2.25754000 adf.f=fB
     32      C     0.52894000    -3.44586000     1.42511000 adf.f=fB
     33      C     0.76712000    -3.17798000    -0.06677000 adf.f=fB
     34      C     1.63373000    -1.97790000    -0.41736000 adf.f=fB
     35      F     2.01189000    -2.08040000    -1.74117000 adf.f=fB
     36      F     2.82209000    -2.03088000     0.28618000 adf.f=fB
     37      H     1.12912000     1.22504000     3.87810000 adf.f=fB
     38      H     2.21786000     0.94711000     2.50025000 adf.f=fB
     39      H     0.94441000     2.19213000     2.38186000 adf.f=fB
     40      H    -1.09513000     1.71816000     4.08133000 adf.f=fB
     41      H    -2.67107000     1.04029000     3.58299000 adf.f=fB
     42      H    -1.46892000    -0.00845000     4.38990000 adf.f=fB
     43      H     0.34524000    -1.15208000     3.92234000 adf.f=fB
     44      H     1.61051000    -1.42182000     2.73161000 adf.f=fB
     45      H    -0.71270000    -2.98015000     3.09906000 adf.f=fB
     46      H    -1.12827000    -2.04731000     1.67537000 adf.f=fB
     47      H     1.50115000    -3.62558000     1.91353000 adf.f=fB
     48      H    -0.00706000    -4.40736000     1.46445000 adf.f=fB
     49      H    -0.18548000    -3.05072000    -0.60299000 adf.f=fB
     50      H     1.27625000    -4.05076000    -0.50686000 adf.f=fB

Total System Charge              0.00000


----------------
ADF Engine Input
----------------
 
   Basis
     Type TZ2P
     Core None
   End
   XC
     GGA BLYP
     Dispersion GRIMME3 BJDAMP
   End
   Symmetry NOSYM
   NumericalQuality Normal
   Unrestricted No
   SCF
     Iterations 200
     Converge 1.0e-6
   End
   fragments
     fA c1_fragA_ts.results/adf.rkf
     fB c2_fragB_ts.results/adf.rkf
   end
   etsnocv
     enocv 0.05
     ekmin 0.5
   end
   print etslowdin
   Save TAPE21
 

 Title: *** (NO TITLE) ***

 *** adf ***



 ===========================
 A T T A C H E D   F I L E S
 ===========================
  



 ===============================
 M O D E L   P A R A M E T E R S
 ===============================
  
 DENSITY FUNCTIONAL POTENTIAL (scf)
    LDA:                               Exchange only                           == Not Default ==
    Gradient Corrections:              Becke88 LYP                             == Not Default ==

 SPIN  (restricted / unrestr.)
    Molecule:                          Restricted                               
    Fragments:                         Restricted                               

 OTHER ASPECTS
    Relativistic Corrections:          scalar (ZORA,MAPA)                       

    Nuclear Charge Density Model:      Point Charge Nuclei                      
    Core Treatment:                    Frozen Orbital(s)                        

    Hyperfine or Zeeman Interaction:   ---                                      

 Settings for Grimme D3 dispersion correction

      damping                        BJ
      s6                          1.000
      s8                          2.700
      a1                          0.430
      a2                          4.236

 Other (technical) parameters

      alpha                      14.000
      version                         4
 


 Fragment File(s)
 ----------------
 fA:
         file : c1_fragA_ts.results/adf.rkf
         jobid: 1347263994
         title: *** adf ***
 fB:
         file : c2_fragB_ts.results/adf.rkf
         jobid: 1682681855
         title: *** adf ***



 ===============
 G E O M E T R Y  ***  3D  Molecule  ***
 ===============
  

 ATOMS
 =====                            X Y Z                    CHARGE
                                (Angstrom)             Nucl     +Core       At.Mass
                       --------------------------    ----------------       -------
    1  C              -1.3965    4.1885    1.9364      6.00      6.00       12.0000
    2  O              -0.7512    3.2565    1.0515      8.00      8.00       15.9949
    3  C              -1.5232    2.3373    0.4914      6.00      6.00       12.0000
    4  O              -2.7259    2.2673    0.6203      8.00      8.00       15.9949
    5  C              -0.7007    1.4318   -0.3781      6.00      6.00       12.0000
    6  O               0.3633    2.0321   -1.0026      8.00      8.00       15.9949
    7  C               0.7706    1.2023   -2.0421      6.00      6.00       12.0000
    8  O               1.7571    1.4507   -2.6958      8.00      8.00       15.9949
    9  C              -0.2245    0.1368   -2.0748      6.00      6.00       12.0000
   10  C              -0.3043   -0.9588   -3.0677      6.00      6.00       12.0000
   11  C               0.6893   -0.9354   -4.1931      6.00      6.00       12.0000
   12  O              -1.1600   -1.8304   -2.9733      8.00      8.00       15.9949
   13  N              -1.2381    0.5128   -1.2340      7.00      7.00       14.0031
   14  C              -2.3632   -0.3439   -0.8617      6.00      6.00       12.0000
   15  H              -0.5991    4.8317    2.3239      1.00      1.00        1.0078
   16  H              -1.8907    3.6514    2.7571      1.00      1.00        1.0078
   17  H              -2.1363    4.7843    1.3839      1.00      1.00        1.0078
   18  H               0.4824   -0.0643   -4.8373      1.00      1.00        1.0078
   19  H               0.5928   -1.8601   -4.7757      1.00      1.00        1.0078
   20  H               1.7127   -0.8183   -3.8157      1.00      1.00        1.0078
   21  H              -2.9216   -0.6168   -1.7613      1.00      1.00        1.0078
   22  H              -3.0030    0.2069   -0.1706      1.00      1.00        1.0078
   23  H              -1.9781   -1.2551   -0.3820      1.00      1.00        1.0078
   24  C               0.9620   -0.6984   -0.1449      6.00      6.00       12.0000
   25  C               0.4269    0.0035    0.7399      6.00      6.00       12.0000
   26  C               0.2329    0.1392    2.2135      6.00      6.00       12.0000
   27  C               1.1856    1.1987    2.7803      6.00      6.00       12.0000
   28  O              -1.1455    0.4930    2.3783      8.00      8.00       15.9949
   29  C              -1.5975    0.8242    3.6768      6.00      6.00       12.0000
   30  C               0.5301   -1.2428    2.8408      6.00      6.00       12.0000
   31  C              -0.2714   -2.4247    2.2575      6.00      6.00       12.0000
   32  C               0.5289   -3.4459    1.4251      6.00      6.00       12.0000
   33  C               0.7671   -3.1780   -0.0668      6.00      6.00       12.0000
   34  C               1.6337   -1.9779   -0.4174      6.00      6.00       12.0000
   35  F               2.0119   -2.0804   -1.7412      9.00      9.00       18.9984
   36  F               2.8221   -2.0309    0.2862      9.00      9.00       18.9984
   37  H               1.1291    1.2250    3.8781      1.00      1.00        1.0078
   38  H               2.2179    0.9471    2.5002      1.00      1.00        1.0078
   39  H               0.9444    2.1921    2.3819      1.00      1.00        1.0078
   40  H              -1.0951    1.7182    4.0813      1.00      1.00        1.0078
   41  H              -2.6711    1.0403    3.5830      1.00      1.00        1.0078
   42  H              -1.4689   -0.0084    4.3899      1.00      1.00        1.0078
   43  H               0.3452   -1.1521    3.9223      1.00      1.00        1.0078
   44  H               1.6105   -1.4218    2.7316      1.00      1.00        1.0078
   45  H              -0.7127   -2.9802    3.0991      1.00      1.00        1.0078
   46  H              -1.1283   -2.0473    1.6754      1.00      1.00        1.0078
   47  H               1.5011   -3.6256    1.9135      1.00      1.00        1.0078
   48  H              -0.0071   -4.4074    1.4645      1.00      1.00        1.0078
   49  H              -0.1855   -3.0507   -0.6030      1.00      1.00        1.0078
   50  H               1.2763   -4.0508   -0.5069      1.00      1.00        1.0078


 FRAGMENTS
 =========                                     Atoms in this Fragment     Cart. coord.s (Angstrom)
                                               -------------------------------------------------------
    1  fA                                                1  C           -1.3965    4.1885    1.9364
                                                         3  C           -1.5232    2.3373    0.4914
                                                         5  C           -0.7007    1.4318   -0.3781
                                                         7  C            0.7706    1.2023   -2.0421
                                                         9  C           -0.2245    0.1368   -2.0748
                                                        10  C           -0.3043   -0.9588   -3.0677
                                                        11  C            0.6893   -0.9354   -4.1931
                                                        14  C           -2.3632   -0.3439   -0.8617
                                                         2  O           -0.7512    3.2565    1.0515
                                                         4  O           -2.7259    2.2673    0.6203
                                                         6  O            0.3633    2.0321   -1.0026
                                                         8  O            1.7571    1.4507   -2.6958
                                                        12  O           -1.1600   -1.8304   -2.9733
                                                        13  N           -1.2381    0.5128   -1.2340
                                                        15  H           -0.5991    4.8317    2.3239
                                                        16  H           -1.8907    3.6514    2.7571
                                                        17  H           -2.1363    4.7843    1.3839
                                                        18  H            0.4824   -0.0643   -4.8373
                                                        19  H            0.5928   -1.8601   -4.7757
                                                        20  H            1.7127   -0.8183   -3.8157
                                                        21  H           -2.9216   -0.6168   -1.7613
                                                        22  H           -3.0030    0.2069   -0.1706
                                                        23  H           -1.9781   -1.2551   -0.3820
    2  fB                                               24  C            0.9620   -0.6984   -0.1449
                                                        25  C            0.4269    0.0035    0.7399
                                                        26  C            0.2329    0.1392    2.2135
                                                        27  C            1.1856    1.1987    2.7803
                                                        29  C           -1.5975    0.8242    3.6768
                                                        30  C            0.5301   -1.2428    2.8408
                                                        31  C           -0.2714   -2.4247    2.2575
                                                        32  C            0.5289   -3.4459    1.4251
                                                        33  C            0.7671   -3.1780   -0.0668
                                                        34  C            1.6337   -1.9779   -0.4174
                                                        28  O           -1.1455    0.4930    2.3783
                                                        35  F            2.0119   -2.0804   -1.7412
                                                        36  F            2.8221   -2.0309    0.2862
                                                        37  H            1.1291    1.2250    3.8781
                                                        38  H            2.2179    0.9471    2.5002
                                                        39  H            0.9444    2.1921    2.3819
                                                        40  H           -1.0951    1.7182    4.0813
                                                        41  H           -2.6711    1.0403    3.5830
                                                        42  H           -1.4689   -0.0084    4.3899
                                                        43  H            0.3452   -1.1521    3.9223
                                                        44  H            1.6105   -1.4218    2.7316
                                                        45  H           -0.7127   -2.9802    3.0991
                                                        46  H           -1.1283   -2.0473    1.6754
                                                        47  H            1.5011   -3.6256    1.9135
                                                        48  H           -0.0071   -4.4074    1.4645
                                                        49  H           -0.1855   -3.0507   -0.6030
                                                        50  H            1.2763   -4.0508   -0.5069



 =====================================
 S Y M M E T R Y ,   E L E C T R O N S
 =====================================
  
 Symmetry: NOSYM

 Irreducible Representations, including subspecies
 -------------------------------------------------
 A


 Configuration of Valence Electrons
 ==================================
 ( determined in the SCF procedure )

 Total:   204

 Net Charge: 0 (Nuclei minus Electrons)

 Aufbau principle for MO occupations will be applied through SCF cycle no.     100
 Thereafter, the program will assign electrons to MOs that are spatially
 similar to the occupied MOs in a "reference" cycle ("KeepOrbitals").
 The reference cycle is always the PREVIOUS cycle: it will evolve with
 the SCF procedure.
 ***************************************************************************************************



                                      ****************************************
                                      *  B U I L D : (Fragments, Functions)  *
                                      ****************************************
  

 The individual fragments are copies of the corresponding 'Master' fragments defined on the fragment files.
 However, they may have been rotated (and translated) with respect to the Master. The local coordinate axes
 of each fragment (which define for instance the spatial orientation in the current molecule of a fragment
 P:x orbital) are not necessarily those of the molecule.
 The local frame (if different from the molecular one) is printed to enable an interpretation of the expan-
 sion of an MO in Fragment Orbitals.



                                              ************************
                                              *  Fragment Type : fA  *
                                              ************************
  

 Fragment no.    1   (in the list of all fragments)
 -----------------
 The local coordinate frame is identical to the molecular frame.

 Check Atomic Coordinates:

                  Master (on file)          After Computed Tranformation               As specified on Input
           ----------------------------     ----------------------------     ---------------------------------
     1)    -1.39649   4.18847   1.93635     -1.39649   4.18847   1.93635       1  -1.39649   4.18847   1.93635
     2)    -1.52318   2.33727   0.49144     -1.52318   2.33727   0.49144       3  -1.52318   2.33727   0.49144
     3)    -0.70075   1.43180  -0.37809     -0.70075   1.43180  -0.37809       5  -0.70075   1.43180  -0.37809
     4)     0.77061   1.20226  -2.04208      0.77061   1.20226  -2.04208       7   0.77061   1.20226  -2.04208
     5)    -0.22445   0.13684  -2.07484     -0.22445   0.13684  -2.07484       9  -0.22445   0.13684  -2.07484
     6)    -0.30428  -0.95885  -3.06768     -0.30428  -0.95885  -3.06768      10  -0.30428  -0.95885  -3.06768
     7)     0.68933  -0.93536  -4.19310      0.68933  -0.93536  -4.19310      11   0.68933  -0.93536  -4.19310
     8)    -2.36323  -0.34388  -0.86168     -2.36323  -0.34388  -0.86168      14  -2.36323  -0.34388  -0.86168
     9)    -0.75119   3.25648   1.05153     -0.75119   3.25648   1.05153       2  -0.75119   3.25648   1.05153
    10)    -2.72592   2.26734   0.62031     -2.72592   2.26734   0.62031       4  -2.72592   2.26734   0.62031
    11)     0.36329   2.03214  -1.00258      0.36329   2.03214  -1.00258       6   0.36329   2.03214  -1.00258
    12)     1.75715   1.45068  -2.69580      1.75715   1.45068  -2.69580       8   1.75715   1.45068  -2.69580
    13)    -1.16003  -1.83045  -2.97333     -1.16003  -1.83045  -2.97333      12  -1.16003  -1.83045  -2.97333
    14)    -1.23812   0.51284  -1.23397     -1.23812   0.51284  -1.23397      13  -1.23812   0.51284  -1.23397
    15)    -0.59908   4.83166   2.32392     -0.59908   4.83166   2.32392      15  -0.59908   4.83166   2.32392
    16)    -1.89067   3.65139   2.75706     -1.89067   3.65139   2.75706      16  -1.89067   3.65139   2.75706
    17)    -2.13635   4.78433   1.38388     -2.13635   4.78433   1.38388      17  -2.13635   4.78433   1.38388
    18)     0.48237  -0.06433  -4.83733      0.48237  -0.06433  -4.83733      18   0.48237  -0.06433  -4.83733
    19)     0.59285  -1.86011  -4.77572      0.59285  -1.86011  -4.77572      19   0.59285  -1.86011  -4.77572
    20)     1.71270  -0.81830  -3.81568      1.71270  -0.81830  -3.81568      20   1.71270  -0.81830  -3.81568
    21)    -2.92162  -0.61683  -1.76133     -2.92162  -0.61683  -1.76133      21  -2.92162  -0.61683  -1.76133
    22)    -3.00302   0.20693  -0.17056     -3.00302   0.20693  -0.17056      22  -3.00302   0.20693  -0.17056
    23)    -1.97806  -1.25511  -0.38196     -1.97806  -1.25511  -0.38196      23  -1.97806  -1.25511  -0.38196



                                              ************************
                                              *  Fragment Type : fB  *
                                              ************************
  

 Fragment no.    2   (in the list of all fragments)
 -----------------
 The local coordinate frame is identical to the molecular frame.

 Check Atomic Coordinates:

                  Master (on file)          After Computed Tranformation               As specified on Input
           ----------------------------     ----------------------------     ---------------------------------
     1)     0.96202  -0.69841  -0.14494      0.96202  -0.69841  -0.14494      24   0.96202  -0.69841  -0.14494
     2)     0.42693   0.00348   0.73990      0.42693   0.00348   0.73990      25   0.42693   0.00348   0.73990
     3)     0.23291   0.13916   2.21348      0.23291   0.13916   2.21348      26   0.23291   0.13916   2.21348
     4)     1.18555   1.19869   2.78030      1.18555   1.19869   2.78030      27   1.18555   1.19869   2.78030
     5)    -1.59745   0.82419   3.67682     -1.59745   0.82419   3.67682      29  -1.59745   0.82419   3.67682
     6)     0.53014  -1.24277   2.84077      0.53014  -1.24277   2.84077      30   0.53014  -1.24277   2.84077
     7)    -0.27144  -2.42469   2.25754     -0.27144  -2.42469   2.25754      31  -0.27144  -2.42469   2.25754
     8)     0.52894  -3.44586   1.42511      0.52894  -3.44586   1.42511      32   0.52894  -3.44586   1.42511
     9)     0.76712  -3.17798  -0.06677      0.76712  -3.17798  -0.06677      33   0.76712  -3.17798  -0.06677
    10)     1.63373  -1.97790  -0.41736      1.63373  -1.97790  -0.41736      34   1.63373  -1.97790  -0.41736
    11)    -1.14547   0.49301   2.37829     -1.14547   0.49301   2.37829      28  -1.14547   0.49301   2.37829
    12)     2.01189  -2.08040  -1.74117      2.01189  -2.08040  -1.74117      35   2.01189  -2.08040  -1.74117
    13)     2.82209  -2.03088   0.28618      2.82209  -2.03088   0.28618      36   2.82209  -2.03088   0.28618
    14)     1.12912   1.22504   3.87810      1.12912   1.22504   3.87810      37   1.12912   1.22504   3.87810
    15)     2.21786   0.94711   2.50025      2.21786   0.94711   2.50025      38   2.21786   0.94711   2.50025
    16)     0.94441   2.19213   2.38186      0.94441   2.19213   2.38186      39   0.94441   2.19213   2.38186
    17)    -1.09513   1.71816   4.08133     -1.09513   1.71816   4.08133      40  -1.09513   1.71816   4.08133
    18)    -2.67107   1.04029   3.58299     -2.67107   1.04029   3.58299      41  -2.67107   1.04029   3.58299
    19)    -1.46892  -0.00845   4.38990     -1.46892  -0.00845   4.38990      42  -1.46892  -0.00845   4.38990
    20)     0.34524  -1.15208   3.92234      0.34524  -1.15208   3.92234      43   0.34524  -1.15208   3.92234
    21)     1.61051  -1.42182   2.73161      1.61051  -1.42182   2.73161      44   1.61051  -1.42182   2.73161
    22)    -0.71270  -2.98015   3.09906     -0.71270  -2.98015   3.09906      45  -0.71270  -2.98015   3.09906
    23)    -1.12827  -2.04731   1.67537     -1.12827  -2.04731   1.67537      46  -1.12827  -2.04731   1.67537
    24)     1.50115  -3.62558   1.91353      1.50115  -3.62558   1.91353      47   1.50115  -3.62558   1.91353
    25)    -0.00706  -4.40736   1.46445     -0.00706  -4.40736   1.46445      48  -0.00706  -4.40736   1.46445
    26)    -0.18548  -3.05072  -0.60299     -0.18548  -3.05072  -0.60299      49  -0.18548  -3.05072  -0.60299
    27)     1.27625  -4.05076  -0.50686      1.27625  -4.05076  -0.50686      50   1.27625  -4.05076  -0.50686



 =======
 S F O s  ***  (Symmetrized Fragment Orbitals)  ***
 =======
  
 SFOs are linear combinations of (valence) Fragment Orbitals (FOs), such that the SFOs transform as the
 irreducible representations of the (molecular) symmetry group. Each SFO is therefore characterized by
 an irrep of the molecule and by a few (or only one) generating FOs.
 The SFOs constitute a symmetry-adapted basis for the Fock matrix. The MO eigenvector coefficients in
 this basis provide a direct interpretation of the MOs in terms of Frontier Orbital Theory.

 The SFOs are combined with auxiliary Core Functions (CFs) to ensure orthogonalization on the (frozen)
 Core Orbitals (COs). The Core-orthogonalized SFOs (CSFOs) constitute the true Fock basis.

 The FOs, and hence also the (C)SFOs are combinations of the elementary basis functions (BAS). The basis
 functions that participate in the description of the SFOs depend on the irrep. The indices of the
 involved functions are printed below for each irrep.
 (The complete list of primitive basis functions is printed in another section)

 Total nr. of (C)SFOs (summation over all irreps) :   955

 NOTE: a (C)SFO that is defined as a combination of more than one FO is usually NOT normalized.



                                       === A ===
 Nr. of SFOs :  955
 Cartesian basis functions that participate in this irrep (total number =  1086) :
      1     2     3     4     5     6     9    12     7    10
     13     8    11    14    15    16    17    18    19    20
     21    22    23    24    25    26    27    28    29    30
     31    32    33    34    35    36    39    42    37    40
     43    38    41    44    45    46    47    48    49    50
     51    52    53    54    55    56    57    58    59    60
     61    62    63    64    65    66    69    72    67    70
     73    68    71    74    75    76    77    78    79    80
     81    82    83    84    85    86    87    88    89    90
     91    92    93    94    95    96    99   102    97   100
    103    98   101   104   105   106   107   108   109   110
    111   112   113   114   115   116   117   118   119   120
    121   122   123   124   125   126   129   132   127   130
    133   128   131   134   135   136   137   138   139   140
    141   142   143   144   145   146   147   148   149   150
    151   152   153   154   155   156   159   162   157   160
    163   158   161   164   165   166   167   168   169   170
    171   172   173   174   175   176   177   178   179   180
    181   182   183   184   185   186   189   192   187   190
    193   188   191   194   195   196   197   198   199   200
    201   202   203   204   205   206   207   208   209   210
    211   212   213   214   215   216   219   222   217   220
    223   218   221   224   225   226   227   228   229   230
    231   232   233   234   235   236   237   238   239   240
    241   242   243   244   245   246   249   252   247   250
    253   248   251   254   255   256   257   258   259   260
    261   262   263   264   265   266   267   268   269   270
    271   272   273   274   275   276   279   282   277   280
    283   278   281   284   285   286   287   288   289   290
    291   292   293   294   295   296   297   298   299   300
    301   302   303   304   305   306   309   312   307   310
    313   308   311   314   315   316   317   318   319   320
    321   322   323   324   325   326   327   328   329   330
    331   332   333   334   335   336   339   342   337   340
    343   338   341   344   345   346   347   348   349   350
    351   352   353   354   355   356   357   358   359   360
    361   362   363   364   365   366   369   372   367   370
    373   368   371   374   375   376   377   378   379   380
    381   382   383   384   385   386   387   388   389   390
    391   392   393   394   395   396   399   402   397   400
    403   398   401   404   405   406   407   408   409   410
    411   412   413   414   415   416   417   418   419   420
    421   422   423   424   425   426   427   428   429   430
    431   432   433   434   435   436   437   438   439   440
    441   442   443   444   445   446   447   448   449   450
    451   452   453   454   455   456   457   458   459   460
    461   462   463   464   465   466   467   468   469   470
    471   472   473   474   475   476   477   478   479   480
    481   482   483   484   485   486   487   488   489   490
    491   492   493   494   495   496   497   498   499   500
    501   502   503   504   505   506   507   508   509   510
    511   512   513   514   515   516   517   518   519   520
    521   522   523   524   525   526   527   528   529   530
    531   532   533   534   537   540   535   538   541   536
    539   542   543   544   545   546   547   548   549   550
    551   552   553   554   555   556   557   558   559   560
    561   562   563   564   567   570   565   568   571   566
    569   572   573   574   575   576   577   578   579   580
    581   582   583   584   585   586   587   588   589   590
    591   592   593   594   597   600   595   598   601   596
    599   602   603   604   605   606   607   608   609   610
    611   612   613   614   615   616   617   618   619   620
    621   622   623   624   627   630   625   628   631   626
    629   632   633   634   635   636   637   638   639   640
    641   642   643   644   645   646   647   648   649   650
    651   652   653   654   657   660   655   658   661   656
    659   662   663   664   665   666   667   668   669   670
    671   672   673   674   675   676   677   678   679   680
    681   682   683   684   687   690   685   688   691   686
    689   692   693   694   695   696   697   698   699   700
    701   702   703   704   705   706   707   708   709   710
    711   712   713   714   717   720   715   718   721   716
    719   722   723   724   725   726   727   728   729   730
    731   732   733   734   735   736   737   738   739   740
    741   742   743   744   747   750   745   748   751   746
    749   752   753   754   755   756   757   758   759   760
    761   762   763   764   765   766   767   768   769   770
    771   772   773   774   777   780   775   778   781   776
    779   782   783   784   785   786   787   788   789   790
    791   792   793   794   795   796   797   798   799   800
    801   802   803   804   807   810   805   808   811   806
    809   812   813   814   815   816   817   818   819   820
    821   822   823   824   825   826   827   828   829   830
    831   832   833   834   837   840   835   838   841   836
    839   842   843   844   845   846   847   848   849   850
    851   852   853   854   855   856   857   858   859   860
    861   862   863   864   867   870   865   868   871   866
    869   872   873   874   875   876   877   878   879   880
    881   882   883   884   885   886   887   888   889   890
    891   892   893   894   897   900   895   898   901   896
    899   902   903   904   905   906   907   908   909   910
    911   912   913   914   915   916   917   918   919   920
    921   922   923   924   925   926   927   928   929   930
    931   932   933   934   935   936   937   938   939   940
    941   942   943   944   945   946   947   948   949   950
    951   952   953   954   955   956   957   958   959   960
    961   962   963   964   965   966   967   968   969   970
    971   972   973   974   975   976   977   978   979   980
    981   982   983   984   985   986   987   988   989   990
    991   992   993   994   995   996   997   998   999  1000
   1001  1002  1003  1004  1005  1006  1007  1008  1009  1010
   1011  1012  1013  1014  1015  1016  1017  1018  1019  1020
   1021  1022  1023  1024  1025  1026  1027  1028  1029  1030
   1031  1032  1033  1034  1035  1036  1037  1038  1039  1040
   1041  1042  1043  1044  1045  1046  1047  1048  1049  1050
   1051  1052  1053  1054  1055  1056  1057  1058  1059  1060
   1061  1062  1063  1064  1065  1066  1067  1068  1069  1070
   1071  1072  1073  1074  1075  1076  1077  1078  1079  1080
   1081  1082  1083  1084  1085  1086

    SFO  (index         Fragment          Generating    Expansion in Fragment Orbitals
  indx  incl.CFs)   Occup   Orb.Energy   FragmentType  Coeff.   Orbital     on Fragment
 --------------------------------------------------------------------------------------
     1       1      2.000     -18.886 au  fA            1.00      1 A               1
                        (    -513.926 eV)
     2       2      2.000     -18.869 au  fA            1.00      2 A               1
                        (    -513.462 eV)
     3       3      2.000     -18.810 au  fA            1.00      3 A               1
                        (    -511.859 eV)
     4       4      2.000     -18.784 au  fA            1.00      4 A               1
                        (    -511.144 eV)
     5       5      2.000     -18.782 au  fA            1.00      5 A               1
                        (    -511.072 eV)
     6       6      2.000     -14.149 au  fA            1.00      6 A               1
                        (    -385.012 eV)
     7       7      2.000     -10.081 au  fA            1.00      7 A               1
                        (    -274.315 eV)
     8       8      2.000     -10.056 au  fA            1.00      8 A               1
                        (    -273.639 eV)
     9       9      2.000     -10.052 au  fA            1.00      9 A               1
                        (    -273.528 eV)
    10      10      2.000     -10.018 au  fA            1.00     10 A               1
                        (    -272.608 eV)
    11      11      2.000      -9.997 au  fA            1.00     11 A               1
                        (    -272.041 eV)
    12      12      2.000      -9.987 au  fA            1.00     12 A               1
                        (    -271.750 eV)
    13      13      2.000      -9.981 au  fA            1.00     13 A               1
                        (    -271.610 eV)
    14      14      2.000      -9.921 au  fA            1.00     14 A               1
                        (    -269.971 eV)
    15      15      2.000      -1.072 au  fA            1.00     15 A               1
                        (     -29.184 eV)
    16      16      2.000      -1.046 au  fA            1.00     16 A               1
                        (     -28.473 eV)
    17      17      2.000      -0.965 au  fA            1.00     17 A               1
                        (     -26.265 eV)
    18      18      2.000      -0.959 au  fA            1.00     18 A               1
                        (     -26.086 eV)
    19      19      2.000      -0.954 au  fA            1.00     19 A               1
                        (     -25.965 eV)
    20      20      2.000      -0.924 au  fA            1.00     20 A               1
                        (     -25.154 eV)
    21      21      2.000      -0.743 au  fA            1.00     21 A               1
                        (     -20.206 eV)
    22      22      2.000      -0.714 au  fA            1.00     22 A               1
                        (     -19.426 eV)
    23      23      2.000      -0.687 au  fA            1.00     23 A               1
                        (     -18.698 eV)
    24      24      2.000      -0.670 au  fA            1.00     24 A               1
                        (     -18.237 eV)
    25      25      2.000      -0.608 au  fA            1.00     25 A               1
                        (     -16.542 eV)
    26      26      2.000      -0.581 au  fA            1.00     26 A               1
                        (     -15.799 eV)
    27      27      2.000      -0.549 au  fA            1.00     27 A               1
                        (     -14.928 eV)
    28      28      2.000      -0.533 au  fA            1.00     28 A               1
                        (     -14.501 eV)
    29      29      2.000      -0.499 au  fA            1.00     29 A               1
                        (     -13.570 eV)
    30      30      2.000      -0.484 au  fA            1.00     30 A               1
                        (     -13.165 eV)
    31      31      2.000      -0.462 au  fA            1.00     31 A               1
                        (     -12.573 eV)
    32      32      2.000      -0.456 au  fA            1.00     32 A               1
                        (     -12.403 eV)
    33      33      2.000      -0.448 au  fA            1.00     33 A               1
                        (     -12.195 eV)
    34      34      2.000      -0.426 au  fA            1.00     34 A               1
                        (     -11.599 eV)
    35      35      2.000      -0.417 au  fA            1.00     35 A               1
                        (     -11.360 eV)
    36      36      2.000      -0.405 au  fA            1.00     36 A               1
                        (     -11.033 eV)
    37      37      2.000      -0.400 au  fA            1.00     37 A               1
                        (     -10.884 eV)
    38      38      2.000      -0.397 au  fA            1.00     38 A               1
                        (     -10.791 eV)
    39      39      2.000      -0.393 au  fA            1.00     39 A               1
                        (     -10.706 eV)
    40      40      2.000      -0.386 au  fA            1.00     40 A               1
                        (     -10.491 eV)
    41      41      2.000      -0.381 au  fA            1.00     41 A               1
                        (     -10.362 eV)
    42      42      2.000      -0.362 au  fA            1.00     42 A               1
                        (      -9.843 eV)
    43      43      2.000      -0.352 au  fA            1.00     43 A               1
                        (      -9.566 eV)
    44      44      2.000      -0.339 au  fA            1.00     44 A               1
                        (      -9.234 eV)
    45      45      2.000      -0.338 au  fA            1.00     45 A               1
                        (      -9.197 eV)
    46      46      2.000      -0.327 au  fA            1.00     46 A               1
                        (      -8.906 eV)
    47      47      2.000      -0.314 au  fA            1.00     47 A               1
                        (      -8.536 eV)
    48      48      2.000      -0.295 au  fA            1.00     48 A               1
                        (      -8.014 eV)
    49      49      2.000      -0.273 au  fA            1.00     49 A               1
                        (      -7.437 eV)
    50      50      2.000      -0.245 au  fA            1.00     50 A               1
                        (      -6.664 eV)
    51      51      2.000      -0.218 au  fA            1.00     51 A               1
                        (      -5.941 eV)
    52      52      2.000      -0.207 au  fA            1.00     52 A               1
                        (      -5.638 eV)
    53      53       --        -0.139 au  fA            1.00     53 A               1
                        (      -3.780 eV)
    54      54       --        -0.059 au  fA            1.00     54 A               1
                        (      -1.594 eV)
    55      55       --        -0.038 au  fA            1.00     55 A               1
                        (      -1.046 eV)
    56      56       --        -0.015 au  fA            1.00     56 A               1
                        (      -0.412 eV)
    57      57       --        -0.002 au  fA            1.00     57 A               1
                        (      -0.047 eV)
    58      58       --         0.011 au  fA            1.00     58 A               1
                        (       0.298 eV)
    59      59       --         0.017 au  fA            1.00     59 A               1
                        (       0.451 eV)
    60      60       --         0.021 au  fA            1.00     60 A               1
                        (       0.558 eV)
    61      61       --         0.037 au  fA            1.00     61 A               1
                        (       0.996 eV)
    62      62       --         0.039 au  fA            1.00     62 A               1
                        (       1.068 eV)
    63      63       --         0.044 au  fA            1.00     63 A               1
                        (       1.196 eV)
    64      64       --         0.053 au  fA            1.00     64 A               1
                        (       1.437 eV)
    65      65       --         0.059 au  fA            1.00     65 A               1
                        (       1.616 eV)
    66      66       --         0.068 au  fA            1.00     66 A               1
                        (       1.854 eV)
    67      67       --         0.069 au  fA            1.00     67 A               1
                        (       1.874 eV)
    68      68       --         0.083 au  fA            1.00     68 A               1
                        (       2.247 eV)
    69      69       --         0.095 au  fA            1.00     69 A               1
                        (       2.576 eV)
    70      70       --         0.107 au  fA            1.00     70 A               1
                        (       2.916 eV)
    71      71       --         0.117 au  fA            1.00     71 A               1
                        (       3.192 eV)
    72      72       --         0.120 au  fA            1.00     72 A               1
                        (       3.267 eV)
    73      73       --         0.139 au  fA            1.00     73 A               1
                        (       3.783 eV)
    74      74       --         0.147 au  fA            1.00     74 A               1
                        (       4.002 eV)
    75      75       --         0.155 au  fA            1.00     75 A               1
                        (       4.225 eV)
    76      76       --         0.163 au  fA            1.00     76 A               1
                        (       4.427 eV)
    77      77       --         0.166 au  fA            1.00     77 A               1
                        (       4.509 eV)
    78      78       --         0.170 au  fA            1.00     78 A               1
                        (       4.629 eV)
    79      79       --         0.182 au  fA            1.00     79 A               1
                        (       4.960 eV)
    80      80       --         0.195 au  fA            1.00     80 A               1
                        (       5.301 eV)
    81      81       --         0.199 au  fA            1.00     81 A               1
                        (       5.412 eV)
    82      82       --         0.214 au  fA            1.00     82 A               1
                        (       5.824 eV)
    83      83       --         0.216 au  fA            1.00     83 A               1
                        (       5.872 eV)
    84      84       --         0.232 au  fA            1.00     84 A               1
                        (       6.301 eV)
    85      85       --         0.232 au  fA            1.00     85 A               1
                        (       6.322 eV)
    86      86       --         0.249 au  fA            1.00     86 A               1
                        (       6.774 eV)
    87      87       --         0.252 au  fA            1.00     87 A               1
                        (       6.860 eV)
    88      88       --         0.262 au  fA            1.00     88 A               1
                        (       7.138 eV)
    89      89       --         0.267 au  fA            1.00     89 A               1
                        (       7.258 eV)
    90      90       --         0.286 au  fA            1.00     90 A               1
                        (       7.777 eV)
    91      91       --         0.292 au  fA            1.00     91 A               1
                        (       7.939 eV)
    92      92       --         0.298 au  fA            1.00     92 A               1
                        (       8.105 eV)
    93      93       --         0.304 au  fA            1.00     93 A               1
                        (       8.279 eV)
    94      94       --         0.310 au  fA            1.00     94 A               1
                        (       8.447 eV)
    95      95       --         0.319 au  fA            1.00     95 A               1
                        (       8.692 eV)
    96      96       --         0.326 au  fA            1.00     96 A               1
                        (       8.878 eV)
    97      97       --         0.331 au  fA            1.00     97 A               1
                        (       8.998 eV)
    98      98       --         0.334 au  fA            1.00     98 A               1
                        (       9.099 eV)
    99      99       --         0.343 au  fA            1.00     99 A               1
                        (       9.332 eV)
   100     100       --         0.361 au  fA            1.00    100 A               1
                        (       9.832 eV)
   101     101       --         0.364 au  fA            1.00    101 A               1
                        (       9.908 eV)
   102     102       --         0.376 au  fA            1.00    102 A               1
                        (      10.230 eV)
   103     103       --         0.386 au  fA            1.00    103 A               1
                        (      10.499 eV)
   104     104       --         0.403 au  fA            1.00    104 A               1
                        (      10.971 eV)
   105     105       --         0.410 au  fA            1.00    105 A               1
                        (      11.151 eV)
   106     106       --         0.418 au  fA            1.00    106 A               1
                        (      11.379 eV)
   107     107       --         0.427 au  fA            1.00    107 A               1
                        (      11.608 eV)
   108     108       --         0.438 au  fA            1.00    108 A               1
                        (      11.925 eV)
   109     109       --         0.451 au  fA            1.00    109 A               1
                        (      12.278 eV)
   110     110       --         0.464 au  fA            1.00    110 A               1
                        (      12.626 eV)
   111     111       --         0.476 au  fA            1.00    111 A               1
                        (      12.956 eV)
   112     112       --         0.485 au  fA            1.00    112 A               1
                        (      13.188 eV)
   113     113       --         0.499 au  fA            1.00    113 A               1
                        (      13.573 eV)
   114     114       --         0.505 au  fA            1.00    114 A               1
                        (      13.732 eV)
   115     115       --         0.512 au  fA            1.00    115 A               1
                        (      13.923 eV)
   116     116       --         0.539 au  fA            1.00    116 A               1
                        (      14.668 eV)
   117     117       --         0.545 au  fA            1.00    117 A               1
                        (      14.837 eV)
   118     118       --         0.560 au  fA            1.00    118 A               1
                        (      15.226 eV)
   119     119       --         0.576 au  fA            1.00    119 A               1
                        (      15.676 eV)
   120     120       --         0.601 au  fA            1.00    120 A               1
                        (      16.350 eV)
   121     121       --         0.620 au  fA            1.00    121 A               1
                        (      16.880 eV)
   122     122       --         0.624 au  fA            1.00    122 A               1
                        (      16.993 eV)
   123     123       --         0.645 au  fA            1.00    123 A               1
                        (      17.557 eV)
   124     124       --         0.651 au  fA            1.00    124 A               1
                        (      17.708 eV)
   125     125       --         0.659 au  fA            1.00    125 A               1
                        (      17.936 eV)
   126     126       --         0.684 au  fA            1.00    126 A               1
                        (      18.620 eV)
   127     127       --         0.701 au  fA            1.00    127 A               1
                        (      19.070 eV)
   128     128       --         0.742 au  fA            1.00    128 A               1
                        (      20.195 eV)
   129     129       --         0.751 au  fA            1.00    129 A               1
                        (      20.440 eV)
   130     130       --         0.756 au  fA            1.00    130 A               1
                        (      20.566 eV)
   131     131       --         0.769 au  fA            1.00    131 A               1
                        (      20.928 eV)
   132     132       --         0.796 au  fA            1.00    132 A               1
                        (      21.661 eV)
   133     133       --         0.806 au  fA            1.00    133 A               1
                        (      21.928 eV)
   134     134       --         0.822 au  fA            1.00    134 A               1
                        (      22.367 eV)
   135     135       --         0.842 au  fA            1.00    135 A               1
                        (      22.908 eV)
   136     136       --         0.846 au  fA            1.00    136 A               1
                        (      23.032 eV)
   137     137       --         0.858 au  fA            1.00    137 A               1
                        (      23.360 eV)
   138     138       --         0.886 au  fA            1.00    138 A               1
                        (      24.117 eV)
   139     139       --         0.889 au  fA            1.00    139 A               1
                        (      24.195 eV)
   140     140       --         0.891 au  fA            1.00    140 A               1
                        (      24.252 eV)
   141     141       --         0.918 au  fA            1.00    141 A               1
                        (      24.991 eV)
   142     142       --         0.928 au  fA            1.00    142 A               1
                        (      25.254 eV)
   143     143       --         0.932 au  fA            1.00    143 A               1
                        (      25.356 eV)
   144     144       --         0.945 au  fA            1.00    144 A               1
                        (      25.708 eV)
   145     145       --         0.962 au  fA            1.00    145 A               1
                        (      26.172 eV)
   146     146       --         0.969 au  fA            1.00    146 A               1
                        (      26.366 eV)
   147     147       --         0.984 au  fA            1.00    147 A               1
                        (      26.766 eV)
   148     148       --         0.989 au  fA            1.00    148 A               1
                        (      26.901 eV)
   149     149       --         0.998 au  fA            1.00    149 A               1
                        (      27.145 eV)
   150     150       --         1.013 au  fA            1.00    150 A               1
                        (      27.561 eV)
   151     151       --         1.030 au  fA            1.00    151 A               1
                        (      28.033 eV)
   152     152       --         1.035 au  fA            1.00    152 A               1
                        (      28.156 eV)
   153     153       --         1.046 au  fA            1.00    153 A               1
                        (      28.455 eV)
   154     154       --         1.062 au  fA            1.00    154 A               1
                        (      28.897 eV)
   155     155       --         1.078 au  fA            1.00    155 A               1
                        (      29.321 eV)
   156     156       --         1.087 au  fA            1.00    156 A               1
                        (      29.587 eV)
   157     157       --         1.098 au  fA            1.00    157 A               1
                        (      29.891 eV)
   158     158       --         1.112 au  fA            1.00    158 A               1
                        (      30.269 eV)
   159     159       --         1.119 au  fA            1.00    159 A               1
                        (      30.445 eV)
   160     160       --         1.135 au  fA            1.00    160 A               1
                        (      30.880 eV)
   161     161       --         1.152 au  fA            1.00    161 A               1
                        (      31.348 eV)
   162     162       --         1.165 au  fA            1.00    162 A               1
                        (      31.692 eV)
   163     163       --         1.175 au  fA            1.00    163 A               1
                        (      31.971 eV)
   164     164       --         1.185 au  fA            1.00    164 A               1
                        (      32.252 eV)
   165     165       --         1.216 au  fA            1.00    165 A               1
                        (      33.087 eV)
   166     166       --         1.225 au  fA            1.00    166 A               1
                        (      33.323 eV)
   167     167       --         1.235 au  fA            1.00    167 A               1
                        (      33.595 eV)
   168     168       --         1.250 au  fA            1.00    168 A               1
                        (      34.009 eV)
   169     169       --         1.261 au  fA            1.00    169 A               1
                        (      34.319 eV)
   170     170       --         1.287 au  fA            1.00    170 A               1
                        (      35.032 eV)
   171     171       --         1.299 au  fA            1.00    171 A               1
                        (      35.346 eV)
   172     172       --         1.307 au  fA            1.00    172 A               1
                        (      35.561 eV)
   173     173       --         1.318 au  fA            1.00    173 A               1
                        (      35.863 eV)
   174     174       --         1.333 au  fA            1.00    174 A               1
                        (      36.268 eV)
   175     175       --         1.358 au  fA            1.00    175 A               1
                        (      36.949 eV)
   176     176       --         1.370 au  fA            1.00    176 A               1
                        (      37.272 eV)
   177     177       --         1.386 au  fA            1.00    177 A               1
                        (      37.719 eV)
   178     178       --         1.416 au  fA            1.00    178 A               1
                        (      38.526 eV)
   179     179       --         1.427 au  fA            1.00    179 A               1
                        (      38.821 eV)
   180     180       --         1.434 au  fA            1.00    180 A               1
                        (      39.021 eV)
   181     181       --         1.448 au  fA            1.00    181 A               1
                        (      39.390 eV)
   182     182       --         1.478 au  fA            1.00    182 A               1
                        (      40.219 eV)
   183     183       --         1.493 au  fA            1.00    183 A               1
                        (      40.621 eV)
   184     184       --         1.503 au  fA            1.00    184 A               1
                        (      40.886 eV)
   185     185       --         1.526 au  fA            1.00    185 A               1
                        (      41.520 eV)
   186     186       --         1.546 au  fA            1.00    186 A               1
                        (      42.057 eV)
   187     187       --         1.559 au  fA            1.00    187 A               1
                        (      42.427 eV)
   188     188       --         1.569 au  fA            1.00    188 A               1
                        (      42.695 eV)
   189     189       --         1.585 au  fA            1.00    189 A               1
                        (      43.142 eV)
   190     190       --         1.600 au  fA            1.00    190 A               1
                        (      43.552 eV)
   191     191       --         1.624 au  fA            1.00    191 A               1
                        (      44.190 eV)
   192     192       --         1.650 au  fA            1.00    192 A               1
                        (      44.899 eV)
   193     193       --         1.656 au  fA            1.00    193 A               1
                        (      45.050 eV)
   194     194       --         1.677 au  fA            1.00    194 A               1
                        (      45.621 eV)
   195     195       --         1.680 au  fA            1.00    195 A               1
                        (      45.716 eV)
   196     196       --         1.701 au  fA            1.00    196 A               1
                        (      46.286 eV)
   197     197       --         1.714 au  fA            1.00    197 A               1
                        (      46.641 eV)
   198     198       --         1.742 au  fA            1.00    198 A               1
                        (      47.402 eV)
   199     199       --         1.756 au  fA            1.00    199 A               1
                        (      47.776 eV)
   200     200       --         1.771 au  fA            1.00    200 A               1
                        (      48.178 eV)
   201     201       --         1.778 au  fA            1.00    201 A               1
                        (      48.374 eV)
   202     202       --         1.812 au  fA            1.00    202 A               1
                        (      49.315 eV)
   203     203       --         1.817 au  fA            1.00    203 A               1
                        (      49.437 eV)
   204     204       --         1.826 au  fA            1.00    204 A               1
                        (      49.699 eV)
   205     205       --         1.845 au  fA            1.00    205 A               1
                        (      50.204 eV)
   206     206       --         1.857 au  fA            1.00    206 A               1
                        (      50.535 eV)
   207     207       --         1.874 au  fA            1.00    207 A               1
                        (      50.992 eV)
   208     208       --         1.904 au  fA            1.00    208 A               1
                        (      51.798 eV)
   209     209       --         1.918 au  fA            1.00    209 A               1
                        (      52.192 eV)
   210     210       --         1.927 au  fA            1.00    210 A               1
                        (      52.423 eV)
   211     211       --         1.962 au  fA            1.00    211 A               1
                        (      53.383 eV)
   212     212       --         1.977 au  fA            1.00    212 A               1
                        (      53.807 eV)
   213     213       --         1.995 au  fA            1.00    213 A               1
                        (      54.273 eV)
   214     214       --         2.025 au  fA            1.00    214 A               1
                        (      55.095 eV)
   215     215       --         2.033 au  fA            1.00    215 A               1
                        (      55.332 eV)
   216     216       --         2.043 au  fA            1.00    216 A               1
                        (      55.593 eV)
   217     217       --         2.052 au  fA            1.00    217 A               1
                        (      55.827 eV)
   218     218       --         2.068 au  fA            1.00    218 A               1
                        (      56.281 eV)
   219     219       --         2.076 au  fA            1.00    219 A               1
                        (      56.484 eV)
   220     220       --         2.105 au  fA            1.00    220 A               1
                        (      57.279 eV)
   221     221       --         2.136 au  fA            1.00    221 A               1
                        (      58.137 eV)
   222     222       --         2.154 au  fA            1.00    222 A               1
                        (      58.601 eV)
   223     223       --         2.169 au  fA            1.00    223 A               1
                        (      59.032 eV)
   224     224       --         2.190 au  fA            1.00    224 A               1
                        (      59.605 eV)
   225     225       --         2.212 au  fA            1.00    225 A               1
                        (      60.187 eV)
   226     226       --         2.233 au  fA            1.00    226 A               1
                        (      60.766 eV)
   227     227       --         2.245 au  fA            1.00    227 A               1
                        (      61.094 eV)
   228     228       --         2.285 au  fA            1.00    228 A               1
                        (      62.177 eV)
   229     229       --         2.300 au  fA            1.00    229 A               1
                        (      62.581 eV)
   230     230       --         2.328 au  fA            1.00    230 A               1
                        (      63.350 eV)
   231     231       --         2.337 au  fA            1.00    231 A               1
                        (      63.601 eV)
   232     232       --         2.372 au  fA            1.00    232 A               1
                        (      64.550 eV)
   233     233       --         2.399 au  fA            1.00    233 A               1
                        (      65.288 eV)
   234     234       --         2.405 au  fA            1.00    234 A               1
                        (      65.442 eV)
   235     235       --         2.440 au  fA            1.00    235 A               1
                        (      66.394 eV)
   236     236       --         2.446 au  fA            1.00    236 A               1
                        (      66.559 eV)
   237     237       --         2.470 au  fA            1.00    237 A               1
                        (      67.202 eV)
   238     238       --         2.472 au  fA            1.00    238 A               1
                        (      67.277 eV)
   239     239       --         2.495 au  fA            1.00    239 A               1
                        (      67.893 eV)
   240     240       --         2.527 au  fA            1.00    240 A               1
                        (      68.765 eV)
   241     241       --         2.541 au  fA            1.00    241 A               1
                        (      69.155 eV)
   242     242       --         2.577 au  fA            1.00    242 A               1
                        (      70.123 eV)
   243     243       --         2.587 au  fA            1.00    243 A               1
                        (      70.389 eV)
   244     244       --         2.623 au  fA            1.00    244 A               1
                        (      71.363 eV)
   245     245       --         2.637 au  fA            1.00    245 A               1
                        (      71.745 eV)
   246     246       --         2.682 au  fA            1.00    246 A               1
                        (      72.995 eV)
   247     247       --         2.713 au  fA            1.00    247 A               1
                        (      73.824 eV)
   248     248       --         2.733 au  fA            1.00    248 A               1
                        (      74.357 eV)
   249     249       --         2.753 au  fA            1.00    249 A               1
                        (      74.925 eV)
   250     250       --         2.762 au  fA            1.00    250 A               1
                        (      75.153 eV)
   251     251       --         2.768 au  fA            1.00    251 A               1
                        (      75.329 eV)
   252     252       --         2.780 au  fA            1.00    252 A               1
                        (      75.644 eV)
   253     253       --         2.797 au  fA            1.00    253 A               1
                        (      76.106 eV)
   254     254       --         2.807 au  fA            1.00    254 A               1
                        (      76.390 eV)
   255     255       --         2.817 au  fA            1.00    255 A               1
                        (      76.647 eV)
   256     256       --         2.824 au  fA            1.00    256 A               1
                        (      76.858 eV)
   257     257       --         2.834 au  fA            1.00    257 A               1
                        (      77.128 eV)
   258     258       --         2.850 au  fA            1.00    258 A               1
                        (      77.553 eV)
   259     259       --         2.873 au  fA            1.00    259 A               1
                        (      78.190 eV)
   260     260       --         2.890 au  fA            1.00    260 A               1
                        (      78.629 eV)
   261     261       --         2.900 au  fA            1.00    261 A               1
                        (      78.913 eV)
   262     262       --         2.909 au  fA            1.00    262 A               1
                        (      79.155 eV)
   263     263       --         2.914 au  fA            1.00    263 A               1
                        (      79.306 eV)
   264     264       --         2.920 au  fA            1.00    264 A               1
                        (      79.456 eV)
   265     265       --         2.960 au  fA            1.00    265 A               1
                        (      80.551 eV)
   266     266       --         2.984 au  fA            1.00    266 A               1
                        (      81.210 eV)
   267     267       --         3.001 au  fA            1.00    267 A               1
                        (      81.657 eV)
   268     268       --         3.022 au  fA            1.00    268 A               1
                        (      82.239 eV)
   269     269       --         3.038 au  fA            1.00    269 A               1
                        (      82.658 eV)
   270     270       --         3.081 au  fA            1.00    270 A               1
                        (      83.830 eV)
   271     271       --         3.102 au  fA            1.00    271 A               1
                        (      84.416 eV)
   272     272       --         3.137 au  fA            1.00    272 A               1
                        (      85.363 eV)
   273     273       --         3.142 au  fA            1.00    273 A               1
                        (      85.511 eV)
   274     274       --         3.169 au  fA            1.00    274 A               1
                        (      86.227 eV)
   275     275       --         3.221 au  fA            1.00    275 A               1
                        (      87.642 eV)
   276     276       --         3.242 au  fA            1.00    276 A               1
                        (      88.207 eV)
   277     277       --         3.263 au  fA            1.00    277 A               1
                        (      88.788 eV)
   278     278       --         3.284 au  fA            1.00    278 A               1
                        (      89.358 eV)
   279     279       --         3.296 au  fA            1.00    279 A               1
                        (      89.679 eV)
   280     280       --         3.312 au  fA            1.00    280 A               1
                        (      90.114 eV)
   281     281       --         3.323 au  fA            1.00    281 A               1
                        (      90.411 eV)
   282     282       --         3.343 au  fA            1.00    282 A               1
                        (      90.964 eV)
   283     283       --         3.349 au  fA            1.00    283 A               1
                        (      91.140 eV)
   284     284       --         3.370 au  fA            1.00    284 A               1
                        (      91.693 eV)
   285     285       --         3.380 au  fA            1.00    285 A               1
                        (      91.970 eV)
   286     286       --         3.388 au  fA            1.00    286 A               1
                        (      92.201 eV)
   287     287       --         3.394 au  fA            1.00    287 A               1
                        (      92.357 eV)
   288     288       --         3.406 au  fA            1.00    288 A               1
                        (      92.695 eV)
   289     289       --         3.414 au  fA            1.00    289 A               1
                        (      92.887 eV)
   290     290       --         3.434 au  fA            1.00    290 A               1
                        (      93.443 eV)
   291     291       --         3.436 au  fA            1.00    291 A               1
                        (      93.500 eV)
   292     292       --         3.458 au  fA            1.00    292 A               1
                        (      94.105 eV)
   293     293       --         3.464 au  fA            1.00    293 A               1
                        (      94.257 eV)
   294     294       --         3.480 au  fA            1.00    294 A               1
                        (      94.686 eV)
   295     295       --         3.484 au  fA            1.00    295 A               1
                        (      94.812 eV)
   296     296       --         3.499 au  fA            1.00    296 A               1
                        (      95.226 eV)
   297     297       --         3.519 au  fA            1.00    297 A               1
                        (      95.764 eV)
   298     298       --         3.537 au  fA            1.00    298 A               1
                        (      96.235 eV)
   299     299       --         3.552 au  fA            1.00    299 A               1
                        (      96.666 eV)
   300     300       --         3.556 au  fA            1.00    300 A               1
                        (      96.764 eV)
   301     301       --         3.565 au  fA            1.00    301 A               1
                        (      96.995 eV)
   302     302       --         3.597 au  fA            1.00    302 A               1
                        (      97.892 eV)
   303     303       --         3.613 au  fA            1.00    303 A               1
                        (      98.327 eV)
   304     304       --         3.643 au  fA            1.00    304 A               1
                        (      99.138 eV)
   305     305       --         3.661 au  fA            1.00    305 A               1
                        (      99.630 eV)
   306     306       --         3.695 au  fA            1.00    306 A               1
                        (     100.549 eV)
   307     307       --         3.714 au  fA            1.00    307 A               1
                        (     101.051 eV)
   308     308       --         3.729 au  fA            1.00    308 A               1
                        (     101.482 eV)
   309     309       --         3.735 au  fA            1.00    309 A               1
                        (     101.627 eV)
   310     310       --         3.758 au  fA            1.00    310 A               1
                        (     102.269 eV)
   311     311       --         3.786 au  fA            1.00    311 A               1
                        (     103.018 eV)
   312     312       --         3.788 au  fA            1.00    312 A               1
                        (     103.090 eV)
   313     313       --         3.802 au  fA            1.00    313 A               1
                        (     103.447 eV)
   314     314       --         3.810 au  fA            1.00    314 A               1
                        (     103.664 eV)
   315     315       --         3.823 au  fA            1.00    315 A               1
                        (     104.016 eV)
   316     316       --         3.861 au  fA            1.00    316 A               1
                        (     105.063 eV)
   317     317       --         3.885 au  fA            1.00    317 A               1
                        (     105.709 eV)
   318     318       --         3.925 au  fA            1.00    318 A               1
                        (     106.807 eV)
   319     319       --         3.961 au  fA            1.00    319 A               1
                        (     107.778 eV)
   320     320       --         3.966 au  fA            1.00    320 A               1
                        (     107.932 eV)
   321     321       --         3.995 au  fA            1.00    321 A               1
                        (     108.716 eV)
   322     322       --         4.043 au  fA            1.00    322 A               1
                        (     110.019 eV)
   323     323       --         4.066 au  fA            1.00    323 A               1
                        (     110.649 eV)
   324     324       --         4.083 au  fA            1.00    324 A               1
                        (     111.100 eV)
   325     325       --         4.115 au  fA            1.00    325 A               1
                        (     111.982 eV)
   326     326       --         4.117 au  fA            1.00    326 A               1
                        (     112.019 eV)
   327     327       --         4.126 au  fA            1.00    327 A               1
                        (     112.273 eV)
   328     328       --         4.192 au  fA            1.00    328 A               1
                        (     114.061 eV)
   329     329       --         4.207 au  fA            1.00    329 A               1
                        (     114.486 eV)
   330     330       --         4.221 au  fA            1.00    330 A               1
                        (     114.867 eV)
   331     331       --         4.253 au  fA            1.00    331 A               1
                        (     115.720 eV)
   332     332       --         4.264 au  fA            1.00    332 A               1
                        (     116.034 eV)
   333     333       --         4.297 au  fA            1.00    333 A               1
                        (     116.919 eV)
   334     334       --         4.318 au  fA            1.00    334 A               1
                        (     117.493 eV)
   335     335       --         4.324 au  fA            1.00    335 A               1
                        (     117.669 eV)
   336     336       --         4.352 au  fA            1.00    336 A               1
                        (     118.432 eV)
   337     337       --         4.365 au  fA            1.00    337 A               1
                        (     118.766 eV)
   338     338       --         4.384 au  fA            1.00    338 A               1
                        (     119.296 eV)
   339     339       --         4.391 au  fA            1.00    339 A               1
                        (     119.484 eV)
   340     340       --         4.422 au  fA            1.00    340 A               1
                        (     120.321 eV)
   341     341       --         4.437 au  fA            1.00    341 A               1
                        (     120.748 eV)
   342     342       --         4.442 au  fA            1.00    342 A               1
                        (     120.879 eV)
   343     343       --         4.467 au  fA            1.00    343 A               1
                        (     121.559 eV)
   344     344       --         4.473 au  fA            1.00    344 A               1
                        (     121.714 eV)
   345     345       --         4.512 au  fA            1.00    345 A               1
                        (     122.767 eV)
   346     346       --         4.538 au  fA            1.00    346 A               1
                        (     123.496 eV)
   347     347       --         4.553 au  fA            1.00    347 A               1
                        (     123.888 eV)
   348     348       --         4.569 au  fA            1.00    348 A               1
                        (     124.337 eV)
   349     349       --         4.592 au  fA            1.00    349 A               1
                        (     124.960 eV)
   350     350       --         4.605 au  fA            1.00    350 A               1
                        (     125.300 eV)
   351     351       --         4.634 au  fA            1.00    351 A               1
[...]
     450       58.6564         0.000       
     449       58.6175         0.000       
     448       58.4506         0.000       
     447       58.1632         0.000       
     446       57.8868         0.000       
     445       57.6108         0.000       
     444       57.5451         0.000       
     443       57.3040         0.000       
     442       57.2107         0.000       
     441       56.9481         0.000       
     440       56.6411         0.000       
     439       56.5111         0.000       
     438       56.1738         0.000       
     437       55.9791         0.000       
     436       55.7870         0.000       
     435       55.5825         0.000       
     434       55.4600         0.000       
     433       54.8727         0.000       
     432       54.6084         0.000       
     431       54.5881         0.000       
     430       54.3983         0.000       
     429       54.1884         0.000       
     428       53.9617         0.000       
     427       53.6521         0.000       
     426       53.6159         0.000       
     425       53.1995         0.000       
     424       53.0423         0.000       
     423       52.8394         0.000       
     422       52.7067         0.000       
     421       52.5999         0.000       
     420       52.4547         0.000       
     419       52.0887         0.000       
     418       51.8853         0.000       
     417       51.5775         0.000       
     416       51.5390         0.000       
     415       51.1437         0.000       
     414       51.0089         0.000       
     413       50.9130         0.000       
     412       50.6438         0.000       
     411       50.4925         0.000       
     410       50.3909         0.000       
     409       50.1796         0.000       
     408       49.9789         0.000       
     407       49.7491         0.000       
     406       49.3633         0.000       
     405       49.2832         0.000       
     404       49.1611         0.000       
     403       49.1265         0.000       
     402       48.6032         0.000       
     401       48.2616         0.000       
     400       48.1517         0.000       
     399       48.0489         0.000       
     398       47.8382         0.000       
     397       47.4800         0.000       
     396       47.3426         0.000       
     395       47.2315         0.000       
     394       46.8957         0.000       
     393       46.6455         0.000       
     392       46.2978         0.000       
     391       46.2593         0.000       
     390       46.0578         0.000       
     389       45.9900         0.000       
     388       45.8418         0.000       
     387       45.4235         0.000       
     386       45.2068         0.000       
     385       44.8559         0.000       
     384       44.7765         0.000       
     383       44.5250         0.000       
     382       44.3567         0.000       
     381       44.2189         0.000       
     380       44.0917         0.000       
     379       43.7391         0.000       
     378       43.3347         0.000       
     377       43.1415         0.000       
     376       42.8239         0.000       
     375       42.6980         0.000       
     374       42.5377         0.000       
     373       42.2796         0.000       
     372       42.1858         0.000       
     371       42.0224         0.000       
     370       41.8800         0.000       
     369       41.7430         0.000       
     368       41.5242         0.000       
     367       41.1858         0.000       
     366       41.0632         0.000       
     365       41.0164         0.000       
     364       40.7156         0.000       
     363       40.5465         0.000       
     362       40.2594         0.000       
     361       39.9999         0.000       
     360       39.8254         0.000       
     359       39.5727         0.000       
     358       39.3805         0.000       
     357       39.1640         0.000       
     356       38.9486         0.000       
     355       38.6188         0.000       
     354       38.4808         0.000       
     353       38.2772         0.000       
     352       38.1430         0.000       
     351       37.7974         0.000       
     350       37.7212         0.000       
     349       37.4785         0.000       
     348       37.3089         0.000       
     347       37.0770         0.000       
     346       36.9001         0.000       
     345       36.7520         0.000       
     344       36.6917         0.000       
     343       36.5084         0.000       
     342       36.1401         0.000       
     341       36.0280         0.000       
     340       35.8633         0.000       
     339       35.8168         0.000       
     338       35.6822         0.000       
     337       35.3556         0.000       
     336       35.2613         0.000       
     335       35.0592         0.000       
     334       35.0093         0.000       
     333       34.6882         0.000       
     332       34.5474         0.000       
     331       34.4472         0.000       
     330       34.3218         0.000       
     329       34.1631         0.000       
     328       33.9550         0.000       
     327       33.8359         0.000       
     326       33.6809         0.000       
     325       33.2600         0.000       
     324       33.1017         0.000       
     323       32.9156         0.000       
     322       32.7928         0.000       
     321       32.7445         0.000       
     320       32.5674         0.000       
     319       32.2649         0.000       
     318       32.1037         0.000       
     317       32.0173         0.000       
     316       31.8211         0.000       
     315       31.7208         0.000       
     314       31.4976         0.000       
     313       31.3383         0.000       
     312       31.1518         0.000       
     311       31.0223         0.000       
     310       30.9354         0.000       
     309       30.7758         0.000       
     308       30.5131         0.000       
     307       30.1320         0.000       
     306       30.0913         0.000       
     305       29.9797         0.000       
     304       29.7417         0.000       
     303       29.5941         0.000       
     302       29.4964         0.000       
     301       29.2153         0.000       
     300       29.0492         0.000       
     299       28.9643         0.000       
     298       28.8312         0.000       
     297       28.6730         0.000       
     296       28.4944         0.000       
     295       28.4232         0.000       
     294       28.1778         0.000       
     293       28.0214         0.000       
     292       27.8662         0.000       
     291       27.7123         0.000       
     290       27.5443         0.000       
     289       27.3022         0.000       
     288       27.2180         0.000       
     287       26.9603         0.000       
     286       26.7527         0.000       
     285       26.4631         0.000       
     284       26.3420         0.000       
     283       26.1911         0.000       
     282       25.9368         0.000       
     281       25.7831         0.000       
     280       25.6772         0.000       
     279       25.6173         0.000       
     278       25.3690         0.000       
     277       25.3371         0.000       
     276       25.0903         0.000       
     275       24.9301         0.000       
     274       24.7319         0.000       
     273       24.5573         0.000       
     272       24.4295         0.000       
     271       24.1720         0.000       
     270       24.0177         0.000       
     269       23.7516         0.000       
     268       23.6683         0.000       
     267       23.4905         0.000       
     266       23.2642         0.000       
     265       23.1307         0.000       
     264       22.9540         0.000       
     263       22.9058         0.000       
     262       22.7098         0.000       
     261       22.3739         0.000       
     260       22.1229         0.000       
     259       21.9243         0.000       
     258       21.8701         0.000       
     257       21.6285         0.000       
     256       21.2888         0.000       
     255       20.9990         0.000       
     254       20.7690         0.000       
     253       20.6414         0.000       
     252       20.2746         0.000       
     251       20.0668         0.000       
     250       19.9830         0.000       
     249       19.7557         0.000       
     248       19.2152         0.000       
     247       18.9606         0.000       
     246       18.9300         0.000       
     245       18.8828         0.000       
     244       18.5892         0.000       
     243       18.3294         0.000       
     242       18.0188         0.000       
     241       17.8089         0.000       
     240       17.3893         0.000       
     239       17.2441         0.000       
     238       17.1001         0.000       
     237       17.0559         0.000       
     236       16.6429         0.000       
     235       16.4613         0.000       
     234       16.3098         0.000       
     233       16.1673         0.000       
     232       15.9074         0.000       
     231       15.4832         0.000       
     230       15.3582         0.000       
     229       15.3058         0.000       
     228       15.0013         0.000       
     227       14.8903         0.000       
     226       14.8443         0.000       
     225       14.5674         0.000       
     224       14.4845         0.000       
     223       14.2390         0.000       
     222       14.0054         0.000       
     221       13.8149         0.000       
     220       13.5888         0.000       
     219       13.5848         0.000       
     218       13.3626         0.000       
     217       13.2132         0.000       
     216       13.0122         0.000       
     215       12.8699         0.000       
     214       12.6537         0.000       
     213       12.5516         0.000       
     212       12.3267         0.000       
     211       12.1736         0.000       
     210       11.9811         0.000       
     209       11.8963         0.000       
     208       11.8138         0.000       
     207       11.7505         0.000       
     206       11.6609         0.000       
     205       11.4691         0.000       
     204       11.4396         0.000       
     203       11.2320         0.000       
     202       11.0642         0.000       
     201       10.9008         0.000       
     200       10.8263         0.000       
     199       10.7134         0.000       
     198       10.4594         0.000       
     197       10.4406         0.000       
     196       10.3482         0.000       
     195       10.2742         0.000       
     194       10.1028         0.000       
     193       10.0400         0.000       
     192        9.9328         0.000       
     191        9.7240         0.000       
     190        9.6271         0.000       
     189        9.5229         0.000       
     188        9.3824         0.000       
     187        9.2833         0.000       
     186        9.1356         0.000       
     185        8.9634         0.000       
     184        8.8307         0.000       
     183        8.5184         0.000       
     182        8.4690         0.000       
     181        8.4147         0.000       
     180        8.3967         0.000       
     179        8.3149         0.000       
     178        8.2838         0.000       
     177        8.1234         0.000       
     176        7.8888         0.000       
     175        7.8148         0.000       
     174        7.6850         0.000       
     173        7.5006         0.000       
     172        7.3962         0.000       
     171        7.2450         0.000       
     170        7.1650         0.000       
     169        7.0610         0.000       
     168        6.9205         0.000       
     167        6.7769         0.000       
     166        6.6933         0.000       
     165        6.6591         0.000       
     164        6.4535         0.000       
     163        6.2705         0.000       
     162        6.1318         0.000       
     161        5.9951         0.000       
     160        5.8734         0.000       
     159        5.7798         0.000       
     158        5.7591         0.000       
     157        5.6565         0.000       
     156        5.5733         0.000       
     155        5.4406         0.000       
     154        5.3183         0.000       
     153        5.2943         0.000       
     152        5.0748         0.000       
     151        4.9434         0.000       
     150        4.6901         0.000       
     149        4.6132         0.000       
     148        4.5271         0.000       
     147        4.4316         0.000       
     146        4.2343         0.000       
     145        4.1026         0.000       
     144        4.0476         0.000       
     143        3.9721         0.000       
     142        3.7797         0.000       
     141        3.6092         0.000       
     140        3.5051         0.000       
     139        3.3700         0.000       
     138        3.2075         0.000       
     137        3.0243         0.000       
     136        2.8802         0.000       
     135        2.7667         0.000       
     134        2.6831         0.000       
     133        2.6345         0.000       
     132        2.5450         0.000       
     131        2.4685         0.000       
     130        2.3625         0.000       
     129        2.1965         0.000       
     128        2.0545         0.000       
     127        1.9604         0.000       
     126        1.8336         0.000       
     125        1.7436         0.000       
     124        1.6901         0.000       
     123        1.5577         0.000       
     122        1.3995         0.000       
     121        1.3141         0.000       
     120        1.2440         0.000       
     119        1.1335         0.000       
     118        1.0304         0.000       
     117        0.8428         0.000       
     116        0.7541         0.000       
     115        0.6282         0.000       
     114        0.5741         0.000       
     113        0.3967         0.000       
     112        0.3324         0.000       
     111        0.1446         0.000       
     110        0.0690         0.000       
     109       -0.0664         0.000       
     108       -0.3475         0.000       
     107       -0.6982         0.000       
     106       -1.0636         0.000       
     105       -1.5078         0.000       
     104       -1.9311         0.000       
     103       -3.2473         0.000 < LUMO
     102       -5.9415         2.000 < HOMO
     101       -6.0338         2.000       
     100       -6.3770         2.000       
      99       -6.5971         2.000       
      98       -6.7014         2.000       
      97       -6.9290         2.000       
      96       -7.3210         2.000       
      95       -7.7858         2.000       
      94       -7.9340         2.000       
      93       -7.9617         2.000       
      92       -8.2048         2.000       
      91       -8.3524         2.000       
      90       -8.4907         2.000       
      89       -8.6014         2.000       
      88       -8.9283         2.000       
      87       -9.0960         2.000       
      86       -9.1631         2.000       
      85       -9.2525         2.000       
      84       -9.4329         2.000       
      83       -9.5025         2.000       
      82       -9.5963         2.000       
      81       -9.6596         2.000       
      80       -9.7823         2.000       
      79       -9.9662         2.000       
      78       -9.9812         2.000       
      77      -10.1614         2.000       
      76      -10.3016         2.000       
      75      -10.3515         2.000       
      74      -10.4544         2.000       
      73      -10.4900         2.000       
      72      -10.6198         2.000       
      71      -10.7073         2.000       
      70      -10.7606         2.000       
      69      -10.9017         2.000       
      68      -11.0226         2.000       
      67      -11.1188         2.000       
      66      -11.4073         2.000       
      65      -11.5691         2.000       
      64      -11.7428         2.000       
      63      -11.8324         2.000       
      62      -12.0936         2.000       
      61      -12.3073         2.000       
      60      -12.3318         2.000       
      59      -12.4723         2.000       
      58      -12.9843         2.000       
      57      -13.1036         2.000       
      56      -13.3972         2.000       
      55      -13.5282         2.000       
      54      -13.9366         2.000       
      53      -14.4199         2.000       
      52      -14.6427         2.000       
      51      -14.7304         2.000       
      50      -14.8670         2.000       
      49      -15.6243         2.000       
      48      -16.2063         2.000       
      47      -16.4636         2.000       
      46      -17.1685         2.000       
      45      -17.6359         2.000       
      44      -18.1680         2.000       
      43      -18.2450         2.000       
      42      -18.4959         2.000       
      41      -19.2379         2.000       
      40      -19.4845         2.000       
      39      -20.0095         2.000       
      38      -20.1806         2.000       
      37      -20.9831         2.000       
      36      -24.7879         2.000       
      35      -25.8933         2.000       
      34      -26.0682         2.000       
      33      -26.1774         2.000       
      32      -26.3882         2.000       
      31      -28.3533         2.000       
      30      -28.9288         2.000       
      29      -29.6678         2.000       
      28      -31.2259         2.000       
      27     -269.8717         2.000       
      26     -270.1658         2.000       
      25     -270.2502         2.000       
      24     -270.3282         2.000       
      23     -270.3465         2.000       
      22     -270.3651         2.000       
      21     -270.4603         2.000       
      20     -270.5889         2.000       
      19     -271.2272         2.000       
      18     -271.5934         2.000       
      17     -272.0269         2.000       
      16     -272.0490         2.000       
      15     -272.5153         2.000       
      14     -272.7244         2.000       
      13     -273.5229         2.000       
      12     -273.7139         2.000       
      11     -274.1955         2.000       
      10     -274.7841         2.000       
       9     -384.0754         2.000       
       8     -511.0436         2.000       
       7     -511.2996         2.000       
       6     -511.6760         2.000       
       5     -512.0483         2.000       
       4     -513.3874         2.000       
       3     -513.3896         2.000       
       2     -661.5787         2.000       
       1     -661.6353         2.000       

AMS application finished. Exiting.
NORMAL TERMINATION
     Total cpu time:     938.16
  Total system time:       3.86
 Total elapsed time:     946.99
NORMAL TERMINATION
