
 *******************************************************************************
 *                                                                             *
 *  --------------------------------                                           *
 *   Amsterdam Modeling Suite (AMS)              2026.103                      *
 *  --------------------------------                                           *
 *                                               r260501 2026-05-01 873454b5   *
 *                                                                             *
 *                                                                             *
 *                              =================                              *
 *                              |               |                              *
 *                              |     A M S     |                              *
 *                              |               |                              *
 *                              =================                              *
 *                                                                             *
 *                                                                             *
 *   Online information and documentation:  https://www.scm.com/support/       *
 *   E-mail:  support@scm.com   info@scm.com                                   *
 *                                                                             *
 *   Scientific publications using AMS results must be properly referenced     *
 *   See the User Manuals (or the web site) for recommended citations          *
 *   The terms and conditions of the End User License Agreement apply to       *
 *   the use of AMS, https://www.scm.com/license-terms/                        *
 *                                                                             *
 **********************  x86_64_linux_intel / intelmpi  ************************
 
 Licensed to: Jong-June Jeon / University of Seoul 2026-05-13 16:10:32
 SCM User ID: u30731
  
 AMS 2026.103  RunTime: May30-2026 15:32:18  ShM Nodes: 1  Procs: 1

 AMS jobname: c5_fragB_opt
 AMS jobid  : 1952287817

 Start   directory: /gpfs/home1/yeseo1ee/projects/eda-asm-prediction/adf_outputs/batch_001/dipolar_001803/
 Results directory: /gpfs/home1/yeseo1ee/projects/eda-asm-prediction/adf_outputs/batch_001/dipolar_001803/c5_fragB_opt.results/
 Scratch directory: /tmp/amstmp_c5_fragB_opt_kid0.1952287817/

 RNG seed: -84980086 1258743806 -399678980 1925939620 -492380648 -613292499 -1503669854 1189148226



                      ************************************************************************
                      *  ADF 2026.103  RunTime: May30-2026 15:32:18  ShM Nodes: 1  Procs: 1  *
                      ************************************************************************
  

       ***************************
       *  GEOMETRY OPTIMIZATION  *
       ***************************

Optimization Method                    Quasi Newton
Optimization Coordinates               Delocalized Coordinates
Optimize lattice                       F
 
 ------------------------------------------------------
 Convergence criteria (Hartree,Angstrom)
 ------------------------------------------------------
 Maximum gradient               0.000100000000
 Maximum rms gradient           0.000066666667
 Maximum step allowed           0.010000000000
 Maximum rms step allowed       0.006666666667
 Maximum energy change allowe   0.000270000000
 Maximum stress energy allowe   0.000500000000
 
Initial model Hessian                  Automatic Hessian
 
------------------------------------
Quasi-Newton Optimizer Parameters
------------------------------------
Hessian Update Method                  BFGS
Maximum number of steps                  200
First GDIIS cycle                          0
Maximum GDIIS vectors                      0
Trust radius (bohr)                        0.200000
Trust radius varies                        T
Constraints converged at all steps         T
Use projector                              T
 
 Rigid motions settings for: old optimizer
 Atomic rotations (x,y,z):     T T T
 Atomic translations (x,y,z):  T T T
 Tolerance:                  1.000000000000000E-006

--------
Geometry
--------
Formula: C10H14F2O
Atoms
  Index Symbol   x (angstrom)   y (angstrom)   z (angstrom)
      1      C     0.96202000    -0.69841000    -0.14494000
      2      C     0.42693000     0.00348000     0.73990000
      3      C     0.23291000     0.13916000     2.21348000
      4      C     1.18555000     1.19869000     2.78030000
      5      O    -1.14547000     0.49301000     2.37829000
      6      C    -1.59745000     0.82419000     3.67682000
      7      C     0.53014000    -1.24277000     2.84077000
      8      C    -0.27144000    -2.42469000     2.25754000
      9      C     0.52894000    -3.44586000     1.42511000
     10      C     0.76712000    -3.17798000    -0.06677000
     11      C     1.63373000    -1.97790000    -0.41736000
     12      F     2.01189000    -2.08040000    -1.74117000
     13      F     2.82209000    -2.03088000     0.28618000
     14      H     1.12912000     1.22504000     3.87810000
     15      H     2.21786000     0.94711000     2.50025000
     16      H     0.94441000     2.19213000     2.38186000
     17      H    -1.09513000     1.71816000     4.08133000
     18      H    -2.67107000     1.04029000     3.58299000
     19      H    -1.46892000    -0.00845000     4.38990000
     20      H     0.34524000    -1.15208000     3.92234000
     21      H     1.61051000    -1.42182000     2.73161000
     22      H    -0.71270000    -2.98015000     3.09906000
     23      H    -1.12827000    -2.04731000     1.67537000
     24      H     1.50115000    -3.62558000     1.91353000
     25      H    -0.00706000    -4.40736000     1.46445000
     26      H    -0.18548000    -3.05072000    -0.60299000
     27      H     1.27625000    -4.05076000    -0.50686000

Total System Charge              0.00000


----------------
ADF Engine Input
----------------
 
   Basis
     Type TZ2P
     Core None
   End
   XC
     GGA BLYP
     Dispersion GRIMME3 BJDAMP
   End
   Symmetry NOSYM
   NumericalQuality Normal
   Unrestricted No
   SCF
     Iterations 200
     Converge 1.0e-6
   End
   Save TAPE21
 

 Title: *** (NO TITLE) ***

 Using automatic Hessian for delocalized coordinates.
 *** GO1_GOStep1 ***

 Energy gradients wrt nuclear displacements
 ==========================================

     Atom      Cartesian (a.u./angstrom)
                 X         Y         Z
 ----------------------------------------
     1 C     0.042065 -0.065414 -0.090206
     2 C    -0.067036  0.090451  0.059915
     3 C     0.006463 -0.023360  0.014675
     4 C    -0.011402 -0.007849 -0.005360
     5 O     0.024053 -0.006347  0.015367
     6 C     0.007281 -0.003298 -0.020424
     7 C    -0.013177  0.007077 -0.003210
     8 C     0.014854  0.002242 -0.002480
     9 C    -0.004869  0.012814 -0.007039
    10 C     0.006795  0.010895  0.006179
    11 C     0.023104 -0.011971  0.020322
    12 F    -0.005589  0.003125  0.035009
    13 F    -0.025826 -0.001683 -0.021955
    14 H    -0.000143 -0.000601  0.004148
    15 H     0.004674 -0.002587 -0.001265
    16 H    -0.000008  0.002472 -0.001212
    17 H     0.001751  0.001675 -0.000000
    18 H    -0.005454  0.001828  0.000288
    19 H     0.000985 -0.002011 -0.000315
    20 H     0.000140 -0.001369  0.003533
    21 H     0.004487  0.000496 -0.001405
    22 H    -0.001062 -0.001673  0.002236
    23 H    -0.004065  0.000309 -0.003168
    24 H     0.003878 -0.000135  0.001900
    25 H    -0.001483 -0.002718 -0.000835
    26 H    -0.002362  0.000549 -0.002887
    27 H     0.001947 -0.002917 -0.001810
 ----------------------------------------
 
----------------------------------------------------------------------
Geometry Convergence after Step   1       (Hartree/Angstrom,Angstrom)
----------------------------------------------------------------------
current energy                               -5.42331011 Hartree
energy change                      -5.42331011     0.00027000    F
constrained gradient max            0.09045255     0.00010000    F
constrained gradient rms            0.02150350     0.00006667    F
gradient max                        0.09045255
gradient rms                        0.02150350
cart. step max                      0.06265154     0.01000000    F
cart. step rms                      0.02340408     0.00666667    F
 

--------
Geometry
--------
Formula: C10H14F2O
Atoms
  Index Symbol   x (angstrom)   y (angstrom)   z (angstrom)
      1      C     0.99038157    -0.71940940    -0.09805110
      2      C     0.48692735    -0.05565550     0.77214462
      3      C     0.24304404     0.14164870     2.22882017
      4      C     1.18009037     1.22420689     2.79389146
      5      O    -1.15257767     0.49611465     2.36974945
      6      C    -1.61632526     0.83629189     3.67272380
      7      C     0.54260308    -1.24442528     2.86295406
      8      C    -0.25126177    -2.43113975     2.26519037
      9      C     0.53677695    -3.46105125     1.41812420
     10      C     0.75728487    -3.18260861    -0.08252114
     11      C     1.64256805    -1.99007398    -0.45005816
     12      F     1.97990676    -2.06494542    -1.80382154
     13      F     2.85509214    -2.07300877     0.23995574
     14      H     1.10176950     1.27556076     3.88733241
     15      H     2.21828752     0.97997250     2.54069356
     16      H     0.93712233     2.20488964     2.36952495
     17      H    -1.12378176     1.73516152     4.07560369
     18      H    -2.68730641     1.04526381     3.56759617
     19      H    -1.49213929     0.01219268     4.39538205
     20      H     0.34439417    -1.15456511     3.94050212
     21      H     1.62275613    -1.41875503     2.76721312
     22      H    -0.69662784    -2.98684798     3.10242102
     23      H    -1.10301734    -2.04605730     1.68538374
     24      H     1.50924147    -3.66010193     1.89341556
     25      H    -0.01345253    -4.41268426     1.45794537
     26      H    -0.20631258    -3.03354139    -0.58916620
     27      H     1.23742611    -4.05829207    -0.54385951

Total System Charge              0.00000

 *** GO1_GOStep2 ***

 Energy gradients wrt nuclear displacements
 ==========================================

     Atom      Cartesian (a.u./angstrom)
                 X         Y         Z
 ----------------------------------------
     1 C    -0.022437  0.017187  0.018316
     2 C     0.001915 -0.001059 -0.040919
     3 C     0.006162 -0.016725  0.015404
     4 C    -0.005219 -0.002460 -0.003159
     5 O     0.009602 -0.002362  0.011694
     6 C     0.003064 -0.000939 -0.012665
     7 C    -0.008091  0.004074 -0.005848
     8 C     0.011243  0.001934 -0.002086
     9 C    -0.005355  0.003377 -0.004206
    10 C     0.000449  0.008081  0.007537
    11 C     0.019012 -0.010963  0.011072
    12 F    -0.000409  0.000798  0.006654
    13 F    -0.012220  0.000434 -0.004679
    14 H     0.000186 -0.000113  0.001915
    15 H     0.002176 -0.001024 -0.000146
    16 H     0.000724  0.001262 -0.000368
    17 H     0.000626  0.001112  0.001062
    18 H    -0.002388  0.001153  0.001101
    19 H    -0.000175 -0.000693  0.001094
    20 H     0.000787  0.000044  0.001132
    21 H     0.001837  0.000227 -0.000449
    22 H    -0.000851 -0.000290  0.001245
    23 H    -0.001417  0.000138 -0.001936
    24 H     0.001683 -0.001143  0.000866
    25 H    -0.000677 -0.001736 -0.000029
    26 H    -0.001669 -0.000307 -0.000623
    27 H     0.001443 -0.000006 -0.001978
 ----------------------------------------

 dE(predicted):    -0.71958E-02, dE(actual):    -0.69882E-02, Trust radius:    0.400000, all in a.u.
 
----------------------------------------------------------------------
Geometry Convergence after Step   2       (Hartree/Angstrom,Angstrom)
----------------------------------------------------------------------
current energy                               -5.43029834 Hartree
energy change                      -0.00698823     0.00027000    F
constrained gradient max            0.04091367     0.00010000    F
constrained gradient rms            0.00795332     0.00006667    F
gradient max                        0.04091367
gradient rms                        0.00795332
cart. step max                      0.16635063     0.01000000    F
cart. step rms                      0.04812827     0.00666667    F
 

--------
Geometry
--------
Formula: C10H14F2O
Atoms
  Index Symbol   x (angstrom)   y (angstrom)   z (angstrom)
      1      C     1.07451331    -0.74809825    -0.06804370
      2      C     0.59883114    -0.09117080     0.83017541
      3      C     0.27630169     0.16642343     2.25402019
      4      C     1.18823761     1.26217673     2.84471844
      5      O    -1.13538510     0.51871722     2.32491464
      6      C    -1.65070893     0.80848190     3.62970056
      7      C     0.55777895    -1.22366372     2.90679904
      8      C    -0.22825908    -2.41318246     2.29068298
      9      C     0.55671463    -3.44095467     1.42364378
     10      C     0.72813755    -3.18927509    -0.09671737
     11      C     1.63657283    -2.02470903    -0.52233648
     12      F     1.86568815    -2.07725738    -1.90795195
     13      F     2.90435044    -2.17892412     0.07360511
     14      H     1.06103013     1.33257947     3.93065322
     15      H     2.23579152     1.02168858     2.64048374
     16      H     0.95705241     2.23234982     2.39326357
     17      H    -1.18662702     1.69894584     4.07900024
     18      H    -2.71766531     1.00404381     3.48928726
     19      H    -1.53971065    -0.03803009     4.32674284
     20      H     0.33193405    -1.13155129     3.97759071
     21      H     1.63778556    -1.40081346     2.83809680
     22      H    -0.66917025    -2.97712322     3.12302332
     23      H    -1.08299307    -2.02547092     1.72106591
     24      H     1.53869723    -3.63947095     1.87442323
     25      H     0.00475626    -4.38854592     1.48571058
     26      H    -0.25294167    -3.01255092    -0.55546621
     27      H     1.15215763    -4.08647450    -0.56799585

Total System Charge              0.00000

 *** GO1_GOStep3 ***

 Energy gradients wrt nuclear displacements
 ==========================================

     Atom      Cartesian (a.u./angstrom)
                 X         Y         Z
 ----------------------------------------
     1 C    -0.010107  0.003163  0.006855
     2 C     0.000189  0.000732 -0.015281
     3 C     0.001334 -0.005026  0.014288
     4 C     0.001365 -0.000177 -0.001020
     5 O    -0.003067 -0.000588  0.005631
     6 C     0.001625  0.001014 -0.005793
     7 C    -0.002132  0.003363 -0.007805
     8 C     0.005065  0.000165 -0.000244
     9 C    -0.002065  0.000368 -0.000881
    10 C    -0.001194  0.002238  0.005392
    11 C     0.009455 -0.006595  0.000195
    12 F     0.003769 -0.000287 -0.007089
    13 F    -0.003564  0.001119  0.002648
    14 H     0.000429  0.000192 -0.000006
    15 H     0.000036  0.000241  0.000510
    16 H     0.000768  0.000090  0.000196
    17 H    -0.000285  0.000271  0.001240
    18 H     0.000135  0.000211  0.000862
    19 H    -0.000311 -0.000383  0.001726
    20 H     0.000877  0.000672 -0.000324
    21 H     0.000227  0.000124 -0.000255
    22 H    -0.001173  0.001180  0.000228
    23 H    -0.000040 -0.000825 -0.000252
    24 H    -0.000261 -0.002033  0.000303
    25 H    -0.000864  0.000605 -0.000179
    26 H    -0.000403 -0.000886  0.001139
    27 H     0.000192  0.001051 -0.002083
 ----------------------------------------

 dE(predicted):    -0.33200E-02, dE(actual):    -0.37346E-02, Trust radius:    0.800000, all in a.u.
 
----------------------------------------------------------------------
Geometry Convergence after Step   3       (Hartree/Angstrom,Angstrom)
----------------------------------------------------------------------
current energy                               -5.43403289 Hartree
energy change                      -0.00373456     0.00027000    F
constrained gradient max            0.01526569     0.00010000    F
constrained gradient rms            0.00367223     0.00006667    F
gradient max                        0.01526569
gradient rms                        0.00367223
cart. step max                      0.21354694     0.01000000    F
cart. step rms                      0.06022726     0.00666667    F
 

--------
Geometry
--------
Formula: C10H14F2O
Atoms
  Index Symbol   x (angstrom)   y (angstrom)   z (angstrom)
      1      C     1.15522994    -0.75653950    -0.04010184
      2      C     0.71523104    -0.11748038     0.88502316
      3      C     0.33037143     0.17573946     2.27512846
      4      C     1.20811703     1.28035646     2.90245834
      5      O    -1.08299038     0.54168213     2.25292093
      6      C    -1.67894256     0.77183715     3.54138920
      7      C     0.56752743    -1.21297135     2.96871905
      8      C    -0.20975200    -2.40270976     2.33389698
      9      C     0.58989463    -3.40698802     1.44155031
     10      C     0.68760248    -3.17739821    -0.09510141
     11      C     1.60254267    -2.03621545    -0.58071745
     12      F     1.67517388    -2.05697299    -1.98394009
     13      F     2.92835036    -2.27151834    -0.13994183
     14      H     1.02020877     1.36461131     3.97762179
     15      H     2.26468005     1.04102266     2.75661784
     16      H     0.99609122     2.24187879     2.42489279
     17      H    -1.23928080     1.63759645     4.05645603
     18      H    -2.73332838     0.97731344     3.34174003
     19      H    -1.60946571    -0.10825954     4.19890973
     20      H     0.30348605    -1.10809334     4.02925925
     21      H     1.64592978    -1.40409229     2.93998789
     22      H    -0.63418541    -2.98848772     3.15881344
     23      H    -1.07371483    -2.01687749     1.77897903
     24      H     1.59364314    -3.56666394     1.85540370
     25      H     0.07208327    -4.37047226     1.53413420
     26      H    -0.31220526    -2.98021341    -0.50095077
     27      H     1.06057217    -4.09194384    -0.57405875

Total System Charge              0.00000

 *** GO1_GOStep4 ***

 Energy gradients wrt nuclear displacements
 ==========================================

     Atom      Cartesian (a.u./angstrom)
                 X         Y         Z
 ----------------------------------------
     1 C    -0.007980  0.005324  0.009087
     2 C     0.002789 -0.007730 -0.012485
     3 C     0.000809  0.000789  0.006888
     4 C     0.003105  0.000963  0.001054
     5 O    -0.004835  0.000781 -0.002192
     6 C     0.000882  0.000830  0.000433
     7 C     0.002393  0.001147 -0.003775
     8 C    -0.001832 -0.000612  0.001158
     9 C     0.003308  0.000353  0.002665
    10 C    -0.002066 -0.001962 -0.001544
    11 C     0.000849  0.002503  0.001330
    12 F     0.002895 -0.000603 -0.005961
    13 F     0.004283  0.000997  0.002525
    14 H     0.000152  0.000202 -0.000679
    15 H    -0.001601  0.000324  0.000088
    16 H     0.000345 -0.000466  0.000261
    17 H    -0.000253 -0.000336  0.000414
    18 H     0.001125 -0.000491  0.000296
    19 H     0.000176 -0.000330  0.001139
    20 H     0.000958 -0.000196  0.000166
    21 H    -0.000826  0.000162 -0.000558
    22 H    -0.001250  0.001214 -0.000533
    23 H     0.000234 -0.001490  0.000799
    24 H    -0.001272 -0.002196  0.000053
    25 H    -0.001562  0.001745 -0.000672
    26 H     0.000054 -0.001485  0.001277
    27 H    -0.000882  0.000562 -0.001233
 ----------------------------------------

 dE(predicted):    -0.21668E-02, dE(actual):    -0.25523E-02, Trust radius:    0.800000, all in a.u.
 
----------------------------------------------------------------------
Geometry Convergence after Step   4       (Hartree/Angstrom,Angstrom)
----------------------------------------------------------------------
current energy                               -5.43658522 Hartree
energy change                      -0.00255232     0.00027000    F
constrained gradient max            0.01248208     0.00010000    F
constrained gradient rms            0.00284702     0.00006667    F
gradient max                        0.01248208
gradient rms                        0.00284702
cart. step max                      0.21440283     0.01000000    F
cart. step rms                      0.06569708     0.00666667    F
 

--------
Geometry
--------
Formula: C10H14F2O
Atoms
  Index Symbol   x (angstrom)   y (angstrom)   z (angstrom)
      1      C     1.23022247    -0.76723656    -0.01240286
      2      C     0.81956153    -0.14723433     0.94138299
      3      C     0.38933606     0.17203113     2.30264427
      4      C     1.23366172     1.28287106     2.96319340
      5      O    -1.01688424     0.55533711     2.19147877
      6      C    -1.71663131     0.75113615     3.43659273
      7      C     0.58135615    -1.21177630     3.03383443
      8      C    -0.17846680    -2.40323178     2.37981812
      9      C     0.63635657    -3.37329503     1.45621980
     10      C     0.64065584    -3.15761026    -0.08811957
     11      C     1.55314017    -2.04110928    -0.63405426
     12      F     1.46488129    -2.01348661    -2.03429409
     13      F     2.90556767    -2.36803156    -0.35434465
     14      H     0.99019095     1.37654266     4.02610466
     15      H     2.29736839     1.04595753     2.87273722
     16      H     1.04089011     2.23817277     2.46530215
     17      H    -1.30263546     1.58661351     4.01768660
     18      H    -2.74529306     0.98866472     3.15542590
     19      H    -1.71959170    -0.15535328     4.05858166
     20      H     0.27619058    -1.09084218     4.08118029
     21      H     1.65787149    -1.41402103     3.04936438
     22      H    -0.57624925    -3.01717770     3.19734653
     23      H    -1.05682297    -2.02275467     1.84416837
     24      H     1.66774346    -3.46861384     1.81802010
     25      H     0.18095576    -4.36383762     1.58492838
     26      H    -0.37693896    -2.94003380    -0.43549065
     27      H     0.96643354    -4.08354083    -0.57821469

Total System Charge              0.00000

 *** GO1_GOStep5 ***

 Energy gradients wrt nuclear displacements
 ==========================================

     Atom      Cartesian (a.u./angstrom)
                 X         Y         Z
 ----------------------------------------
     1 C    -0.001299 -0.001625 -0.000484
     2 C    -0.003907 -0.005896  0.001343
     3 C     0.002745  0.003368 -0.001975
     4 C     0.002402  0.001448  0.002970
     5 O    -0.000962  0.002213 -0.004774
     6 C    -0.002904  0.000683  0.004112
     7 C     0.004387 -0.001079  0.000701
     8 C    -0.004428  0.000300  0.001035
     9 C     0.005891  0.000037  0.004292
    10 C    -0.001551 -0.002566 -0.004342
    11 C    -0.002928  0.009948  0.001030
    12 F     0.001141 -0.001093 -0.003604
    13 F     0.006015 -0.002158  0.001722
    14 H     0.000265  0.000224 -0.000906
    15 H    -0.001452  0.000135 -0.000273
    16 H    -0.000176 -0.000493  0.000120
    17 H    -0.000387 -0.000627 -0.000571
    18 H     0.000976 -0.000658  0.000300
    19 H    -0.000012  0.000532 -0.000005
    20 H     0.001782 -0.000757  0.000143
    21 H    -0.001092 -0.000044 -0.000959
    22 H    -0.000747  0.000548 -0.000728
    23 H     0.000085 -0.001210  0.001119
    24 H    -0.001096 -0.001962 -0.000107
    25 H    -0.001861  0.001347 -0.000915
    26 H    -0.000129 -0.001167  0.000646
    27 H    -0.000757  0.000550  0.000111
 ----------------------------------------

 dE(predicted):    -0.18240E-02, dE(actual):    -0.14917E-02, Trust radius:    0.800000, all in a.u.
 
----------------------------------------------------------------------
Geometry Convergence after Step   5       (Hartree/Angstrom,Angstrom)
----------------------------------------------------------------------
current energy                               -5.43807696 Hartree
energy change                      -0.00149174     0.00027000    F
constrained gradient max            0.00992267     0.00010000    F
constrained gradient rms            0.00241034     0.00006667    F
gradient max                        0.00992267
gradient rms                        0.00241034
cart. step max                      0.16520571     0.01000000    F
cart. step rms                      0.04977177     0.00666667    F
 

--------
Geometry
--------
Formula: C10H14F2O
Atoms
  Index Symbol   x (angstrom)   y (angstrom)   z (angstrom)
      1      C     1.28539225    -0.77542692     0.00314532
      2      C     0.88828692    -0.16680502     0.97101492
      3      C     0.42166120     0.16119843     2.31393098
      4      C     1.24523466     1.27055501     2.99868650
      5      O    -0.97300478     0.56046755     2.14762482
      6      C    -1.71784590     0.74452663     3.36707951
      7      C     0.55940788    -1.21298359     3.07888968
      8      C    -0.16459048    -2.41211393     2.40231928
      9      C     0.68251476    -3.34495628     1.46785327
     10      C     0.61457738    -3.14673972    -0.07540456
     11      C     1.51251047    -2.04378415    -0.66707578
     12      F     1.29977939    -1.97065906    -2.04924663
     13      F     2.87069086    -2.41823139    -0.51955036
     14      H     0.95857799     1.37091932     4.05061997
     15      H     2.31202050     1.02941615     2.95352769
     16      H     1.07601946     2.22365366     2.48754967
     17      H    -1.29783094     1.54618590     3.99078436
     18      H    -2.72435693     1.02935496     3.04972526
     19      H    -1.77815038    -0.18099058     3.95673776
     20      H     0.19209496    -1.07042639     4.10345407
     21      H     1.63253257    -1.42067682     3.16118375
     22      H    -0.54592960    -3.04876438     3.21064557
     23      H    -1.04911257    -2.04478764     1.86642715
     24      H     1.73160765    -3.35401297     1.79026384
     25      H     0.31061372    -4.36512960     1.63126158
     26      H    -0.41521998    -2.92330175    -0.38122458
     27      H     0.91538896    -4.07834744    -0.57113303

Total System Charge              0.00000

 *** GO1_GOStep6 ***

 Energy gradients wrt nuclear displacements
 ==========================================

     Atom      Cartesian (a.u./angstrom)
                 X         Y         Z
 ----------------------------------------
     1 C     0.003432 -0.003982 -0.006240
     2 C    -0.006367 -0.003123  0.005622
     3 C     0.003451  0.004292 -0.006578
     4 C    -0.000256  0.000890  0.002300
     5 O     0.002051  0.001539 -0.004245
     6 C    -0.001670 -0.000645  0.004116
     7 C     0.000773 -0.002485  0.004280
     8 C    -0.003816  0.001096  0.000394
     9 C     0.004767 -0.000043  0.002565
    10 C    -0.001619 -0.000954 -0.003781
    11 C    -0.004193  0.008651  0.003004
    12 F     0.000683 -0.000095  0.000751
    13 F     0.003641 -0.000971  0.000067
    14 H    -0.000291 -0.000126 -0.000481
    15 H    -0.000247 -0.000066 -0.000382
    16 H    -0.000337 -0.000279 -0.000101
    17 H     0.000536 -0.000035 -0.000598
    18 H     0.000598 -0.000523 -0.000222
    19 H     0.000878 -0.000130 -0.000512
    20 H     0.000981 -0.000395  0.000989
    21 H    -0.000623  0.000214 -0.001343
    22 H     0.000178 -0.000266 -0.000296
    23 H     0.000014 -0.000645  0.000457
    24 H    -0.000598 -0.001242 -0.000056
    25 H    -0.001547  0.000124 -0.000794
    26 H    -0.000452 -0.000844  0.000313
    27 H     0.000032  0.000043  0.000771
 ----------------------------------------

 dE(predicted):    -0.63218E-03, dE(actual):    -0.81404E-03, Trust radius:    0.800000, all in a.u.
 
----------------------------------------------------------------------
Geometry Convergence after Step   6       (Hartree/Angstrom,Angstrom)
----------------------------------------------------------------------
current energy                               -5.43889100 Hartree
energy change                      -0.00081404     0.00027000    F
constrained gradient max            0.00862746     0.00010000    F
constrained gradient rms            0.00246583     0.00006667    F
gradient max                        0.00862746
gradient rms                        0.00246583
cart. step max                      0.14280081     0.01000000    F
cart. step rms                      0.04257722     0.00666667    F
 

--------
Geometry
--------
Formula: C10H14F2O
Atoms
  Index Symbol   x (angstrom)   y (angstrom)   z (angstrom)
      1      C     1.30521411    -0.78460047     0.01799911
      2      C     0.91767497    -0.18468904     0.99579671
      3      C     0.42945619     0.13878993     2.33246275
      4      C     1.25287922     1.24072675     3.02672029
      5      O    -0.95718711     0.55390958     2.13571985
      6      C    -1.73292215     0.78869133     3.32509070
      7      C     0.53993062    -1.23050106     3.10638392
      8      C    -0.14431815    -2.43953081     2.41105593
      9      C     0.73731755    -3.33061079     1.46973198
     10      C     0.60911392    -3.14893988    -0.06874036
     11      C     1.47846522    -2.04390844    -0.69272729
     12      F     1.17099083    -1.93596305    -2.05317664
     13      F     2.83556490    -2.43400633    -0.64690318
     14      H     0.95165352     1.34588761     4.07461798
     15      H     2.31869080     0.98954721     3.00039194
     16      H     1.10216177     2.19514852     2.51173621
     17      H    -1.29542454     1.57388987     3.95815704
     18      H    -2.71128606     1.12445199     2.96938398
     19      H    -1.86568490    -0.12552447     3.92032109
     20      H     0.12161912    -1.08095108     4.10978901
     21      H     1.60941228    -1.43247004     3.24395709
     22      H    -0.50971410    -3.09543456     3.21160265
     23      H    -1.03577879    -2.09013070     1.87343536
     24      H     1.79379940    -3.25179042     1.75879423
     25      H     0.45341453    -4.37376885     1.66132579
     26      H    -0.43109176    -2.93016837    -0.34090454
     27      H     0.89891861    -4.07991443    -0.57293160

Total System Charge              0.00000

 *** GO1_GOStep7 ***

 Energy gradients wrt nuclear displacements
 ==========================================

     Atom      Cartesian (a.u./angstrom)
                 X         Y         Z
 ----------------------------------------
     1 C     0.004588 -0.002215 -0.006121
     2 C    -0.005490 -0.000382  0.007304
     3 C     0.002170  0.002377 -0.006216
     4 C    -0.000891 -0.000380 -0.000076
     5 O     0.002388  0.001340 -0.000546
     6 C    -0.002601 -0.000597  0.002335
     7 C     0.000704 -0.003467  0.003919
     8 C    -0.002097  0.001359 -0.000343
     9 C     0.002300  0.000561  0.000177
    10 C    -0.000626  0.000614 -0.001980
    11 C    -0.003310  0.004083  0.002146
    12 F     0.000173 -0.000712  0.003028
    13 F     0.001302 -0.000308 -0.000331
    14 H    -0.000330 -0.000335 -0.000269
    15 H     0.000563 -0.000003 -0.000160
    16 H    -0.000261  0.000013 -0.000286
    17 H     0.000397  0.000084 -0.000473
    18 H    -0.000116 -0.000042 -0.000194
    19 H     0.000197  0.000687 -0.000840
    20 H     0.001174 -0.000321  0.000016
    21 H     0.000060  0.000183 -0.000935
    22 H     0.000735 -0.000493  0.000209
    23 H    -0.000189 -0.000369 -0.000305
    24 H    -0.000037 -0.000336  0.000095
    25 H    -0.000837 -0.000719 -0.000584
    26 H    -0.000462 -0.000272 -0.000178
    27 H     0.000498 -0.000348  0.000607
 ----------------------------------------

 dE(predicted):    -0.34026E-03, dE(actual):    -0.43976E-03, Trust radius:    0.800000, all in a.u.
 
----------------------------------------------------------------------
Geometry Convergence after Step   7       (Hartree/Angstrom,Angstrom)
----------------------------------------------------------------------
current energy                               -5.43933076 Hartree
energy change                      -0.00043976     0.00027000    F
constrained gradient max            0.00730762     0.00010000    F
constrained gradient rms            0.00197010     0.00006667    F
gradient max                        0.00730762
gradient rms                        0.00197010
cart. step max                      0.07676777     0.01000000    F
cart. step rms                      0.02040002     0.00666667    F
 

--------
Geometry
--------
Formula: C10H14F2O
Atoms
  Index Symbol   x (angstrom)   y (angstrom)   z (angstrom)
      1      C     1.30765526    -0.79369840     0.02061482
      2      C     0.92764155    -0.19072166     0.99905436
      3      C     0.43000796     0.13186568     2.33611950
      4      C     1.25526818     1.22757698     3.03869362
      5      O    -0.95445439     0.54876710     2.13040164
      6      C    -1.72639566     0.80298360     3.31593993
      7      C     0.51733802    -1.23222912     3.11363245
      8      C    -0.14010715    -2.44743992     2.40617062
      9      C     0.76438963    -3.32010707     1.47174756
     10      C     0.61226962    -3.15594167    -0.06515684
     11      C     1.46465127    -2.04998744    -0.70872607
     12      F     1.11838810    -1.92713966    -2.05947395
     13      F     2.81921011    -2.44152447    -0.70425105
     14      H     0.94837029     1.33469253     4.08516560
     15      H     2.31918856     0.96783436     3.02155021
     16      H     1.11775632     2.18447731     2.52458102
     17      H    -1.27723641     1.58159873     3.94927303
     18      H    -2.69767689     1.15703165     2.95782614
     19      H    -1.87944776    -0.10616589     3.91537671
     20      H     0.05779758    -1.07650652     4.09813711
     21      H     1.58089420    -1.43227055     3.29655960
     22      H    -0.50947686    -3.10806609     3.20096129
     23      H    -1.02861937    -2.10601302     1.85828990
     24      H     1.81976612    -3.19078190     1.74760579
     25      H     0.53018230    -4.37113726     1.68314336
     26      H    -0.43191837    -2.94101497    -0.32390857
     27      H     0.89742778    -4.08794231    -0.57023780

Total System Charge              0.00000

 *** GO1_GOStep8 ***

 Energy gradients wrt nuclear displacements
 ==========================================

     Atom      Cartesian (a.u./angstrom)
                 X         Y         Z
 ----------------------------------------
     1 C     0.003329  0.000962 -0.002205
     2 C    -0.003681 -0.000455  0.003668
     3 C     0.001037  0.002628 -0.003161
     4 C    -0.000713 -0.000695 -0.000340
     5 O     0.001353 -0.000637  0.000410
     6 C     0.000078 -0.000826  0.000904
     7 C    -0.000971 -0.001926  0.001780
     8 C    -0.000094  0.000581 -0.000547
     9 C    -0.000416  0.000338 -0.000799
    10 C     0.000852  0.001399  0.000563
    11 C    -0.002232 -0.000887 -0.000416
    12 F     0.000053 -0.000298  0.001363
    13 F    -0.000256 -0.000491 -0.000462
    14 H    -0.000239 -0.000073  0.000260
    15 H     0.000513  0.000137  0.000188
    16 H    -0.000089  0.000092 -0.000144
    17 H     0.000230  0.000083 -0.000017
    18 H    -0.000245  0.000179 -0.000228
    19 H     0.000235  0.000122 -0.000352
    20 H     0.000104  0.000163  0.000010
    21 H     0.000411  0.000456 -0.000503
    22 H     0.000552 -0.000132  0.000405
    23 H    -0.000155 -0.000272 -0.000485
    24 H     0.000028  0.000161  0.000314
    25 H    -0.000154 -0.000633 -0.000094
    26 H    -0.000008  0.000247 -0.000300
    27 H     0.000479 -0.000225  0.000190
 ----------------------------------------

 dE(predicted):    -0.14024E-03, dE(actual):    -0.13562E-03, Trust radius:    0.800000, all in a.u.
 
----------------------------------------------------------------------
Geometry Convergence after Step   8       (Hartree/Angstrom,Angstrom)
----------------------------------------------------------------------
current energy                               -5.43946639 Hartree
energy change                      -0.00013562     0.00027000    T
constrained gradient max            0.00367665     0.00010000    F
constrained gradient rms            0.00106108     0.00006667    F
gradient max                        0.00367665
gradient rms                        0.00106108
cart. step max                      0.02836406     0.01000000    F
cart. step rms                      0.00887076     0.00666667    F
 

--------
Geometry
--------
Formula: C10H14F2O
Atoms
  Index Symbol   x (angstrom)   y (angstrom)   z (angstrom)
      1      C     1.29179444    -0.79525639     0.01920362
      2      C     0.91472956    -0.18847045     0.99553673
      3      C     0.42071608     0.12866108     2.33775918
      4      C     1.25283247     1.22210740     3.03684317
      5      O    -0.96499011     0.54677802     2.13855549
      6      C    -1.72511790     0.82060147     3.32663010
      7      C     0.51165246    -1.23588436     3.10958063
      8      C    -0.13943376    -2.45316445     2.39984708
      9      C     0.76906186    -3.32485344     1.46904768
     10      C     0.61973320    -3.16383785    -0.06871335
     11      C     1.46677777    -2.05101074    -0.70901702
     12      F     1.12975647    -1.93026334    -2.06326638
     13      F     2.82512657    -2.42618592    -0.69305295
     14      H     0.95590180     1.32803207     4.08621487
     15      H     2.31538327     0.95891616     3.00988065
     16      H     1.11439374     2.18065227     2.52623577
     17      H    -1.27112756     1.60961078     3.94341497
     18      H    -2.70016978     1.16824804     2.97306448
     19      H    -1.87273919    -0.07815287     3.94374077
     20      H     0.04660768    -1.08426669     4.09227563
     21      H     1.57441896    -1.43405861     3.29883863
     22      H    -0.51414885    -3.11307528     3.19258843
     23      H    -1.02571880    -2.11170995     1.84868193
     24      H     1.82363881    -3.19106378     1.74589067
     25      H     0.53898235    -4.37585060     1.68263289
     26      H    -0.42509519    -2.95444280    -0.32905819
     27      H     0.90990365    -4.09391976    -0.57426547

Total System Charge              0.00000

 *** GO1_GOStep9 ***

 Energy gradients wrt nuclear displacements
 ==========================================

     Atom      Cartesian (a.u./angstrom)
                 X         Y         Z
 ----------------------------------------
     1 C     0.001800  0.002520  0.000215
     2 C    -0.001693 -0.000740  0.000256
     3 C    -0.000060  0.001190 -0.000136
     4 C    -0.000263 -0.000411 -0.000561
     5 O     0.000361 -0.000387  0.000292
     6 C     0.000401 -0.000403 -0.000076
     7 C    -0.000436 -0.000761  0.000174
     8 C     0.000914 -0.000057 -0.000094
     9 C    -0.001153  0.000085 -0.000693
    10 C     0.000784  0.000591  0.000971
    11 C    -0.001216 -0.002883 -0.000810
    12 F    -0.000062  0.000447  0.000245
    13 F    -0.000332  0.000153 -0.000094
    14 H    -0.000058  0.000040  0.000161
    15 H     0.000175  0.000085  0.000177
    16 H     0.000064  0.000094 -0.000012
    17 H     0.000016  0.000004  0.000184
    18 H    -0.000031  0.000150  0.000040
    19 H     0.000048 -0.000071 -0.000065
    20 H    -0.000011  0.000159 -0.000116
    21 H     0.000228  0.000148 -0.000171
    22 H     0.000157  0.000081  0.000286
    23 H     0.000075 -0.000180 -0.000165
    24 H    -0.000012  0.000152  0.000226
    25 H     0.000038 -0.000118 -0.000048
    26 H     0.000127  0.000195 -0.000112
    27 H     0.000140 -0.000080 -0.000073
 ----------------------------------------

 dE(predicted):    -0.41514E-04, dE(actual):    -0.46874E-04, Trust radius:    0.800000, all in a.u.
 
----------------------------------------------------------------------
Geometry Convergence after Step   9       (Hartree/Angstrom,Angstrom)
----------------------------------------------------------------------
current energy                               -5.43951326 Hartree
energy change                      -0.00004687     0.00027000    T
constrained gradient max            0.00290502     0.00010000    F
constrained gradient rms            0.00063479     0.00006667    F
gradient max                        0.00290502
gradient rms                        0.00063479
cart. step max                      0.04723686     0.01000000    F
cart. step rms                      0.01212981     0.00666667    F
 

--------
Geometry
--------
Formula: C10H14F2O
Atoms
  Index Symbol   x (angstrom)   y (angstrom)   z (angstrom)
      1      C     1.27434244    -0.79920078     0.01885648
      2      C     0.90104012    -0.18957682     0.99431457
      3      C     0.41093198     0.12305362     2.34075928
      4      C     1.24830373     1.21448215     3.03789539
      5      O    -0.97606622     0.54274551     2.14799593
      6      C    -1.72203834     0.84577694     3.33773971
      7      C     0.50412041    -1.24248252     3.10692768
      8      C    -0.14016397    -2.46052649     2.39157101
      9      C     0.77652489    -3.32864178     1.46508777
     10      C     0.62835480    -3.17191500    -0.07388977
     11      C     1.46880578    -2.05089346    -0.71043748
     12      F     1.13893954    -1.93491012    -2.06765235
     13      F     2.83094472    -2.41056661    -0.68507164
     14      H     0.96160578     1.31648633     4.09032406
     15      H     2.30995333     0.95027632     2.99930886
     16      H     1.10587561     2.17494938     2.53223925
     17      H    -1.26685338     1.65684764     3.92416386
     18      H    -2.70515738     1.17383790     2.98830631
     19      H    -1.85346381    -0.03468253     3.98478560
     20      H     0.03403843    -1.09665744     4.08828606
     21      H     1.56604503    -1.43912553     3.30179622
     22      H    -0.51958415    -3.12243965     3.18020402
     23      H    -1.02420728    -2.11928900     1.83678754
     24      H     1.83003706    -3.18837755     1.74269640
     25      H     0.55256990    -4.38022970     1.68056237
     26      H    -0.41779488    -2.97094807    -0.33565095
     27      H     0.92576586    -4.09985274    -0.57881616

Total System Charge              0.00000

 *** GO1_GOStep10 ***

 Energy gradients wrt nuclear displacements
 ==========================================

     Atom      Cartesian (a.u./angstrom)
                 X         Y         Z
 ----------------------------------------
     1 C     0.000291  0.001964  0.001734
     2 C    -0.000371 -0.000858 -0.001663
     3 C    -0.000351 -0.000345  0.001500
     4 C    -0.000013  0.000116 -0.000286
     5 O    -0.000329  0.000052  0.000328
     6 C     0.000291  0.000049 -0.000649
     7 C     0.000295  0.000423 -0.000972
     8 C     0.000873 -0.000355 -0.000055
     9 C    -0.000616  0.000279 -0.000152
    10 C     0.000211  0.000072  0.000532
    11 C     0.000298 -0.001961 -0.000655
    12 F    -0.000358  0.000202 -0.000676
    13 F    -0.000155  0.000155  0.000085
    14 H     0.000098  0.000163  0.000037
    15 H    -0.000136 -0.000029  0.000081
    16 H     0.000081 -0.000008  0.000057
    17 H    -0.000069 -0.000062  0.000277
    18 H     0.000124  0.000103  0.000262
    19 H    -0.000090 -0.000199  0.000179
    20 H     0.000018 -0.000010 -0.000056
    21 H    -0.000024 -0.000037  0.000066
    22 H    -0.000066  0.000129  0.000033
    23 H    -0.000029 -0.000111  0.000145
    24 H     0.000101 -0.000076  0.000111
    25 H     0.000078  0.000292 -0.000100
    26 H     0.000040 -0.000001  0.000007
    27 H    -0.000191  0.000053 -0.000168
 ----------------------------------------

 dE(predicted):    -0.25978E-04, dE(actual):    -0.20755E-04, Trust radius:    0.800000, all in a.u.
 
----------------------------------------------------------------------
Geometry Convergence after Step  10       (Hartree/Angstrom,Angstrom)
----------------------------------------------------------------------
current energy                               -5.43953401 Hartree
energy change                      -0.00002075     0.00027000    T
constrained gradient max            0.00198448     0.00010000    F
constrained gradient rms            0.00052545     0.00006667    F
gradient max                        0.00198448
gradient rms                        0.00052545
cart. step max                      0.03509704     0.01000000    F
cart. step rms                      0.00816757     0.00666667    F
 

--------
Geometry
--------
Formula: C10H14F2O
Atoms
  Index Symbol   x (angstrom)   y (angstrom)   z (angstrom)
      1      C     1.26591366    -0.80091168     0.01884299
      2      C     0.89564900    -0.19049346     0.99488176
      3      C     0.40735366     0.11917189     2.34280203
      4      C     1.24665426     1.20906645     3.04038413
      5      O    -0.98038336     0.53853135     2.15196565
      6      C    -1.71953911     0.86030108     3.34118044
      7      C     0.49970508    -1.24715284     3.10709392
      8      C    -0.14161900    -2.46476456     2.38765348
      9      C     0.78008524    -3.33049824     1.46305866
     10      C     0.63232776    -3.17568810    -0.07665566
     11      C     1.46823192    -2.04949965    -0.71122285
     12      F     1.14082973    -1.93477298    -2.06915617
     13      F     2.83228469    -2.40165514    -0.68369274
     14      H     0.96518079     1.30615046     4.09457507
     15      H     2.30832253     0.94627475     2.99467611
     16      H     1.10024120     2.17124268     2.53915089
     17      H    -1.27013277     1.69194469     3.90258311
     18      H    -2.71047429     1.16548905     2.99312036
     19      H    -1.83252001    -0.00531853     4.01133653
     20      H     0.02687435    -1.10365867     4.08755413
     21      H     1.56107119    -1.44380849     3.30487664
     22      H    -0.52337248    -3.12859568     3.17348689
     23      H    -1.02393632    -2.12289853     1.83055511
     24      H     1.83282853    -3.18496036     1.74049955
     25      H     0.56090800    -4.38289195     1.67970349
     26      H    -0.41471740    -2.98031680    -0.33920400
     27      H     0.93510313    -4.10214676    -0.58095950

Total System Charge              0.00000

 *** GO1_GOStep11 ***

 Energy gradients wrt nuclear displacements
 ==========================================

     Atom      Cartesian (a.u./angstrom)
                 X         Y         Z
 ----------------------------------------
     1 C    -0.000008  0.000698  0.001364
     2 C    -0.000170 -0.000347 -0.001770
     3 C    -0.000092 -0.000847  0.001515
     4 C     0.000263  0.000242 -0.000107
     5 O    -0.000427  0.000072  0.000246
     6 C     0.000075  0.000117 -0.000559
     7 C     0.000359  0.000901 -0.000880
     8 C     0.000483 -0.000321 -0.000009
     9 C    -0.000231  0.000214  0.000127
    10 C    -0.000006 -0.000131  0.000094
    11 C     0.000599 -0.000720 -0.000189
    12 F    -0.000195  0.000099 -0.000633
    13 F    -0.000279  0.000268 -0.000020
    14 H     0.000156  0.000109 -0.000067
    15 H    -0.000138 -0.000047  0.000023
    16 H     0.000015 -0.000070  0.000031
    17 H    -0.000123 -0.000108  0.000260
    18 H     0.000124  0.000073  0.000242
    19 H    -0.000097 -0.000199  0.000180
    20 H     0.000059 -0.000091  0.000068
    21 H    -0.000102 -0.000068  0.000095
    22 H    -0.000059  0.000062 -0.000051
    23 H    -0.000085 -0.000055  0.000190
    24 H     0.000090 -0.000100 -0.000024
    25 H     0.000077  0.000243 -0.000059
    26 H    -0.000029 -0.000059  0.000075
    27 H    -0.000259  0.000067 -0.000138
 ----------------------------------------

 dE(predicted):    -0.99300E-05, dE(actual):    -0.16314E-04, Trust radius:    0.800000, all in a.u.
 
----------------------------------------------------------------------
Geometry Convergence after Step  11       (Hartree/Angstrom,Angstrom)
----------------------------------------------------------------------
current energy                               -5.43955033 Hartree
energy change                      -0.00001631     0.00027000    T
constrained gradient max            0.00175836     0.00010000    F
constrained gradient rms            0.00040928     0.00006667    F
gradient max                        0.00175836
gradient rms                        0.00040928
cart. step max                      0.11953011     0.01000000    F
cart. step rms                      0.02909716     0.00666667    F
 

--------
Geometry
--------
Formula: C10H14F2O
Atoms
  Index Symbol   x (angstrom)   y (angstrom)   z (angstrom)
      1      C     1.24336718    -0.80628005     0.01994093
      2      C     0.88099997    -0.19633398     0.99922456
      3      C     0.39493782     0.10391851     2.34967173
      4      C     1.23396342     1.19068355     3.05286700
      5      O    -0.99470897     0.52108661     2.16332573
      6      C    -1.70597339     0.91328021     3.34883832
      7      C     0.48525582    -1.26572587     3.10827423
      8      C    -0.14490693    -2.48206280     2.37534767
      9      C     0.79347764    -3.33765230     1.45563529
     10      C     0.64526432    -3.18741363    -0.08569364
     11      C     1.46501247    -2.04504330    -0.71503031
     12      F     1.13861157    -1.93079693    -2.07303476
     13      F     2.83441942    -2.37715852    -0.68693399
     14      H     0.96299007     1.27056920     4.11106320
     15      H     2.29669112     0.93608557     2.99026637
     16      H     1.07485751     2.15826200     2.56596994
     17      H    -1.27609190     1.81147480     3.81456330
     18      H    -2.72258851     1.13965501     3.01480241
     19      H    -1.75240452     0.10804553     4.09738052
     20      H     0.00250078    -1.12921015     4.08495000
     21      H     1.54509521    -1.46104030     3.31575919
     22      H    -0.53224420    -3.15295342     3.15230137
     23      H    -1.02206227    -2.13927186     1.81093439
     24      H     1.84325709    -3.17259445     1.73229986
     25      H     0.59223488    -4.39319435     1.67527851
     26      H    -0.40455875    -3.00975710    -0.35003376
     27      H     0.96547315    -4.10843199    -0.58887806

Total System Charge              0.00000

 *** GO1_GOStep12 ***

 Energy gradients wrt nuclear displacements
 ==========================================

     Atom      Cartesian (a.u./angstrom)
                 X         Y         Z
 ----------------------------------------
     1 C    -0.000601 -0.002713 -0.000081
     2 C    -0.000016  0.001014 -0.001083
     3 C     0.000488 -0.002275  0.000950
     4 C     0.000177  0.000677  0.000448
     5 O    -0.000323  0.000685 -0.000297
     6 C     0.000119  0.000198 -0.000125
     7 C     0.000535  0.001655 -0.000320
     8 C    -0.000713 -0.000137  0.000133
     9 C     0.000752 -0.000199  0.000768
    10 C    -0.000546 -0.000529 -0.001092
    11 C     0.001046  0.002697  0.000878
    12 F     0.000019 -0.000189 -0.000238
    13 F    -0.000403  0.000214 -0.000126
    14 H     0.000106 -0.000080 -0.000157
    15 H    -0.000110 -0.000118 -0.000166
    16 H    -0.000250 -0.000186  0.000011
    17 H     0.000069 -0.000047  0.000066
    18 H    -0.000005 -0.000074 -0.000016
    19 H    -0.000104  0.000087  0.000095
    20 H     0.000302 -0.000261  0.000240
    21 H    -0.000173 -0.000167  0.000124
    22 H     0.000060 -0.000158 -0.000159
    23 H    -0.000117  0.000078  0.000184
    24 H     0.000066 -0.000065 -0.000292
    25 H     0.000074 -0.000013  0.000057
    26 H    -0.000148 -0.000112  0.000175
    27 H    -0.000301  0.000020  0.000023
 ----------------------------------------

 dE(predicted):    -0.26684E-04, dE(actual):    -0.58754E-05, Trust radius:    0.800000, all in a.u.
 
----------------------------------------------------------------------
Geometry Convergence after Step  12       (Hartree/Angstrom,Angstrom)
----------------------------------------------------------------------
current energy                               -5.43955620 Hartree
energy change                      -0.00000588     0.00027000    T
constrained gradient max            0.00272034     0.00010000    F
constrained gradient rms            0.00065343     0.00006667    F
gradient max                        0.00272034
gradient rms                        0.00065343
cart. step max                      0.05233279     0.01000000    F
cart. step rms                      0.01249358     0.00666667    F
 

--------
Geometry
--------
Formula: C10H14F2O
Atoms
  Index Symbol   x (angstrom)   y (angstrom)   z (angstrom)
      1      C     1.25580679    -0.80295268     0.01896410
      2      C     0.88972327    -0.19348773     0.99737627
      3      C     0.40180085     0.11172955     2.34555234
      4      C     1.24027223     1.19966593     3.04705778
      5      O    -0.98749641     0.52780762     2.15764584
      6      C    -1.71110620     0.88686675     3.34626279
      7      C     0.49149835    -1.25690873     3.10751831
      8      C    -0.14536918    -2.47258517     2.38019263
      9      C     0.78524129    -3.33408217     1.45913991
     10      C     0.63923002    -3.18155661    -0.08147144
     11      C     1.46694090    -2.04699506    -0.71283606
     12      F     1.14000169    -1.93262697    -2.07048847
     13      F     2.83376837    -2.39027039    -0.68512603
     14      H     0.96334344     1.28656137     4.10327109
     15      H     2.30285038     0.94207125     2.99286408
     16      H     1.08708265     2.16513955     2.55402122
     17      H    -1.27773822     1.76259130     3.85008967
     18      H    -2.72003239     1.13788297     3.00655348
     19      H    -1.77748721     0.05571275     4.06425263
     20      H     0.01318886    -1.11599040     4.08565564
     21      H     1.55202840    -1.45371227     3.31012976
     22      H    -0.53157207    -3.13973224     3.16100915
     23      H    -1.02356834    -2.12888408     1.81789312
     24      H     1.83614100    -3.17874306     1.73750671
     25      H     0.57430104    -4.38812392     1.67704184
     26      H    -0.40898387    -2.99609896    -0.34675720
     27      H     0.95300437    -4.10513859    -0.58422918

Total System Charge              0.00000

 *** GO1_GOStep13 ***

 Energy gradients wrt nuclear displacements
 ==========================================

     Atom      Cartesian (a.u./angstrom)
                 X         Y         Z
 ----------------------------------------
     1 C    -0.000142 -0.001279 -0.000095
     2 C    -0.000224  0.000576 -0.000489
     3 C     0.000514 -0.000944  0.000305
     4 C     0.000255  0.000299  0.000150
     5 O    -0.000232  0.000039  0.000098
     6 C    -0.000033  0.000006 -0.000119
     7 C     0.000049  0.000918 -0.000147
     8 C    -0.000357 -0.000073  0.000063
     9 C     0.000387 -0.000034  0.000348
    10 C    -0.000259 -0.000285 -0.000602
    11 C     0.000485  0.001324  0.000425
    12 F    -0.000072 -0.000085 -0.000060
    13 F    -0.000232  0.000057 -0.000098
    14 H     0.000078 -0.000052 -0.000096
    15 H    -0.000002 -0.000014 -0.000079
    16 H    -0.000091 -0.000085 -0.000019
    17 H     0.000027 -0.000052  0.000101
    18 H    -0.000036  0.000040  0.000077
    19 H     0.000031 -0.000140  0.000099
    20 H     0.000058 -0.000062  0.000150
    21 H    -0.000027 -0.000033  0.000005
    22 H     0.000094 -0.000078 -0.000031
    23 H    -0.000058 -0.000004  0.000066
    24 H    -0.000009  0.000015 -0.000141
    25 H     0.000023 -0.000036 -0.000001
    26 H    -0.000082 -0.000017  0.000078
    27 H    -0.000146 -0.000001  0.000013
 ----------------------------------------

 dE(predicted):    -0.16158E-04, dE(actual):    -0.10830E-04, Trust radius:    0.800000, all in a.u.
 
----------------------------------------------------------------------
Geometry Convergence after Step  13       (Hartree/Angstrom,Angstrom)
----------------------------------------------------------------------
current energy                               -5.43956703 Hartree
energy change                      -0.00001083     0.00027000    T
constrained gradient max            0.00130636     0.00010000    F
constrained gradient rms            0.00031337     0.00006667    F
gradient max                        0.00130636
gradient rms                        0.00031337
cart. step max                      0.00965989     0.01000000    T
cart. step rms                      0.00245134     0.00666667    T
 

--------
Geometry
--------
Formula: C10H14F2O
Atoms
  Index Symbol   x (angstrom)   y (angstrom)   z (angstrom)
      1      C     1.25626851    -0.80247220     0.01903717
      2      C     0.89003554    -0.19432764     0.99825455
      3      C     0.40136001     0.11082831     2.34591019
      4      C     1.23891196     1.19876126     3.04822913
      5      O    -0.98813119     0.52579012     2.15798902
      6      C    -1.70990774     0.88971598     3.34639946
      7      C     0.49131220    -1.25848190     3.10765513
      8      C    -0.14557134    -2.47346467     2.37953570
      9      C     0.78533378    -3.33470832     1.45866244
     10      C     0.63980294    -3.18167335    -0.08174866
     11      C     1.46666513    -2.04672780    -0.71318606
     12      F     1.13891946    -1.93166099    -2.07048100
     13      F     2.83370326    -2.38996205    -0.68660429
     14      H     0.96092922     1.28539142     4.10422559
     15      H     2.30166137     0.94160432     2.99498143
     16      H     1.08611818     2.16442705     2.55533393
     17      H    -1.28026372     1.77225119     3.84140382
     18      H    -2.72156865     1.13145169     3.00820711
     19      H    -1.76843673     0.06405304     4.07122459
     20      H     0.01270167    -1.11767318     4.08558287
     21      H     1.55191111    -1.45517460     3.31017706
     22      H    -0.53255946    -3.14070940     3.15988665
     23      H    -1.02314001    -2.12909374     1.81670975
     24      H     1.83606386    -3.17923445     1.73761611
     25      H     0.57439134    -4.38884317     1.67616375
     26      H    -0.40842769    -2.99707133    -0.34755366
     27      H     0.95478700    -4.10485556    -0.58452177

Total System Charge              0.00000

 *** GO1_GOStep14 ***

 Energy gradients wrt nuclear displacements
 ==========================================

     Atom      Cartesian (a.u./angstrom)
                 X         Y         Z
 ----------------------------------------
     1 C    -0.000081 -0.000945 -0.000112
     2 C    -0.000231  0.000442 -0.000221
     3 C     0.000427 -0.000658  0.000044
     4 C     0.000148  0.000195  0.000112
     5 O    -0.000159  0.000052  0.000012
     6 C    -0.000036 -0.000019  0.000067
     7 C     0.000039  0.000559 -0.000012
     8 C    -0.000343 -0.000016  0.000051
     9 C     0.000341 -0.000086  0.000233
    10 C    -0.000236 -0.000184 -0.000408
    11 C     0.000181  0.000953  0.000286
    12 F    -0.000026 -0.000023 -0.000010
    13 F    -0.000133  0.000028 -0.000122
    14 H     0.000058 -0.000049 -0.000057
    15 H     0.000029  0.000015 -0.000076
    16 H    -0.000070 -0.000040 -0.000028
    17 H     0.000011 -0.000056  0.000069
    18 H     0.000001 -0.000002  0.000066
    19 H     0.000032 -0.000079  0.000037
    20 H     0.000056 -0.000018  0.000067
    21 H     0.000027 -0.000035 -0.000020
    22 H     0.000108 -0.000052  0.000008
    23 H    -0.000010 -0.000005  0.000033
    24 H    -0.000026  0.000046 -0.000102
    25 H     0.000012 -0.000047  0.000005
    26 H    -0.000053  0.000013  0.000050
    27 H    -0.000067  0.000010  0.000030
 ----------------------------------------

 dE(predicted):    -0.23978E-05, dE(actual):    -0.27367E-05, Trust radius:    0.800000, all in a.u.
 
----------------------------------------------------------------------
Geometry Convergence after Step  14       (Hartree/Angstrom,Angstrom)
----------------------------------------------------------------------
current energy                               -5.43956977 Hartree
energy change                      -0.00000274     0.00027000    T
constrained gradient max            0.00095806     0.00010000    F
constrained gradient rms            0.00021883     0.00006667    F
gradient max                        0.00095806
gradient rms                        0.00021883
cart. step max                      0.03864461     0.01000000    F
cart. step rms                      0.00968489     0.00666667    F
 

--------
Geometry
--------
Formula: C10H14F2O
Atoms
  Index Symbol   x (angstrom)   y (angstrom)   z (angstrom)
      1      C     1.25416700    -0.80146711     0.01915568
      2      C     0.88784782    -0.19713951     1.00082087
      3      C     0.39753386     0.10644671     2.34800485
      4      C     1.23346174     1.19389316     3.05228044
      5      O    -0.99286624     0.51767520     2.16141335
      6      C    -1.70542475     0.90458224     3.34839917
      7      C     0.48864440    -1.26494272     3.10806183
      8      C    -0.14568409    -2.47839097     2.37607043
      9      C     0.78778591    -3.33738895     1.45610847
     10      C     0.64356672    -3.18356577    -0.08377925
     11      C     1.46608250    -2.04560069    -0.71459034
     12      F     1.13618794    -1.92959591    -2.07109917
     13      F     2.83436140    -2.38533474    -0.68991847
     14      H     0.95394592     1.27940192     4.10804085
     15      H     2.29641608     0.93738562     3.00018038
     16      H     1.08160989     2.16038772     2.56047934
     17      H    -1.28643489     1.81089580     3.80826186
     18      H    -2.72644762     1.11507790     3.01769769
     19      H    -1.73684342     0.10183703     4.09995209
     20      H     0.00761344    -1.12604138     4.08495573
     21      H     1.54926388    -1.46023566     3.31202268
     22      H    -0.53545479    -3.14690577     3.15394344
     23      H    -1.02133921    -2.13260065     1.81124071
     24      H     1.83784243    -3.17986439     1.73660155
     25      H     0.57881967    -4.39207631     1.67267006
     26      H    -0.40508003    -3.00331768    -0.35095956
     27      H     0.96329444    -4.10497508    -0.58692468

Total System Charge              0.00000

 *** GO1_GOStep15 ***

 Energy gradients wrt nuclear displacements
 ==========================================

     Atom      Cartesian (a.u./angstrom)
                 X         Y         Z
 ----------------------------------------
     1 C    -0.000040 -0.000072 -0.000082
     2 C    -0.000054  0.000209  0.000220
     3 C     0.000065  0.000005 -0.000229
     4 C    -0.000067 -0.000052 -0.000011
     5 O    -0.000028  0.000040 -0.000119
     6 C    -0.000031 -0.000068  0.000303
     7 C    -0.000037 -0.000202  0.000222
     8 C    -0.000097  0.000070  0.000025
     9 C     0.000073 -0.000136 -0.000072
    10 C    -0.000127 -0.000017  0.000003
    11 C    -0.000259 -0.000009 -0.000130
    12 F    -0.000094  0.000031  0.000069
    13 F     0.000104 -0.000048 -0.000056
    14 H     0.000023 -0.000030  0.000027
    15 H     0.000055  0.000067 -0.000056
    16 H    -0.000032  0.000043 -0.000027
    17 H     0.000026  0.000008 -0.000018
    18 H     0.000068 -0.000100  0.000075
    19 H     0.000065  0.000093 -0.000054
    20 H     0.000090  0.000024 -0.000067
    21 H     0.000084  0.000008 -0.000068
    22 H     0.000082  0.000008  0.000053
    23 H     0.000094  0.000003 -0.000006
    24 H    -0.000027  0.000072 -0.000024
    25 H     0.000015 -0.000004 -0.000006
    26 H     0.000001  0.000036  0.000008
    27 H     0.000048  0.000018  0.000019
 ----------------------------------------

 dE(predicted):    -0.52677E-05, dE(actual):    -0.70949E-05, Trust radius:    0.800000, all in a.u.
 
----------------------------------------------------------------------
Geometry Convergence after Step  15       (Hartree/Angstrom,Angstrom)
----------------------------------------------------------------------
current energy                               -5.43957687 Hartree
energy change                      -0.00000709     0.00027000    T
constrained gradient max            0.00025381     0.00010000    F
constrained gradient rms            0.00008593     0.00006667    F
gradient max                        0.00025381
gradient rms                        0.00008593
cart. step max                      0.01607287     0.01000000    F
cart. step rms                      0.00415337     0.00666667    T
 

--------
Geometry
--------
Formula: C10H14F2O
Atoms
  Index Symbol   x (angstrom)   y (angstrom)   z (angstrom)
      1      C     1.25593225    -0.80138343     0.01908046
      2      C     0.88914480    -0.19660434     1.00023463
      3      C     0.39894040     0.10804802     2.34737599
      4      C     1.23533905     1.19575088     3.05080147
      5      O    -0.99091423     0.52067611     2.15978294
      6      C    -1.70747247     0.89876045     3.34706365
      7      C     0.48992354    -1.26260391     3.10822208
      8      C    -0.14495448    -2.47679045     2.37787790
      9      C     0.78727038    -3.33617851     1.45712887
     10      C     0.64203251    -3.18241045    -0.08269798
     11      C     1.46600805    -2.04600774    -0.71444580
     12      F     1.13563996    -1.93002858    -2.07092751
     13      F     2.83368711    -2.38748030    -0.69034018
     14      H     0.95502905     1.28331459     4.10617156
     15      H     2.29803301     0.93790286     3.00018868
     16      H     1.08486186     2.16155040     2.55730968
     17      H    -1.28319003     1.79482294     3.82197201
     18      H    -2.72426169     1.12354113     3.01262364
     19      H    -1.75152148     0.08633071     4.08762543
     20      H     0.00967344    -1.12301007     4.08545203
     21      H     1.55058269    -1.45798887     3.31175051
     22      H    -0.53328570    -3.14495704     3.15677682
     23      H    -1.02177587    -2.13187825     1.81425166
     24      H     1.83770621    -3.17967006     1.73688352
     25      H     0.57765440    -4.39068684     1.67385903
     26      H    -0.40655092    -3.00032979    -0.34888880
     27      H     0.95933814    -4.10454947    -0.58604229

Total System Charge              0.00000

 *** GO1_GOStep16 ***

 Energy gradients wrt nuclear displacements
 ==========================================

     Atom      Cartesian (a.u./angstrom)
                 X         Y         Z
 ----------------------------------------
     1 C    -0.000001  0.000017  0.000107
     2 C    -0.000071  0.000066 -0.000054
     3 C     0.000044 -0.000072 -0.000020
     4 C    -0.000044  0.000001 -0.000019
     5 O    -0.000029  0.000052 -0.000039
     6 C     0.000015 -0.000073  0.000175
     7 C     0.000034 -0.000062  0.000051
     8 C    -0.000017  0.000009  0.000017
     9 C     0.000029 -0.000053 -0.000040
    10 C    -0.000073  0.000005  0.000038
    11 C    -0.000157 -0.000067 -0.000126
    12 F    -0.000083  0.000030 -0.000018
    13 F     0.000003  0.000016 -0.000070
    14 H     0.000033  0.000001  0.000005
    15 H     0.000024  0.000040 -0.000052
    16 H    -0.000017  0.000021 -0.000020
    17 H     0.000019 -0.000024  0.000038
    18 H     0.000001 -0.000029  0.000075
    19 H     0.000032  0.000040  0.000004
    20 H     0.000079  0.000006 -0.000027
    21 H     0.000056  0.000001 -0.000046
    22 H     0.000058  0.000002  0.000028
    23 H     0.000044 -0.000007  0.000028
    24 H     0.000010  0.000034 -0.000034
    25 H     0.000028  0.000019 -0.000007
    26 H    -0.000014  0.000009  0.000014
    27 H    -0.000002  0.000019 -0.000008
 ----------------------------------------

 dE(predicted):    -0.13483E-05, dE(actual):     0.40290E-05, Trust radius:    0.020000, all in a.u.
 
----------------------------------------------------------------------
Geometry Convergence after Step  16       (Hartree/Angstrom,Angstrom)
----------------------------------------------------------------------
current energy                               -5.43957284 Hartree
energy change                       0.00000403     0.00027000    T
constrained gradient max            0.00012946     0.00010000    F
constrained gradient rms            0.00003947     0.00006667    T
gradient max                        0.00012946
gradient rms                        0.00003947
cart. step max                      0.00128783     0.01000000    T
cart. step rms                      0.00038489     0.00666667    T
 

--------
Geometry
--------
Formula: C10H14F2O
Atoms
  Index Symbol   x (angstrom)   y (angstrom)   z (angstrom)
      1      C     1.25550726    -0.80123576     0.01892062
      2      C     0.88875884    -0.19659466     1.00017708
      3      C     0.39871083     0.10799261     2.34741377
      4      C     1.23540973     1.19554765     3.05070387
      5      O    -0.99121763     0.52036179     2.16006645
      6      C    -1.70740067     0.89914151     3.34731691
      7      C     0.48968817    -1.26267769     3.10820097
      8      C    -0.14503441    -2.47688271     2.37773719
      9      C     0.78726106    -3.33622956     1.45703032
     10      C     0.64225252    -3.18243314    -0.08282140
     11      C     1.46612458    -2.04584459    -0.71438596
     12      F     1.13607642    -1.93018394    -2.07097656
     13      F     2.83386519    -2.38694506    -0.68981203
     14      H     0.95521410     1.28324228     4.10608343
     15      H     2.29800761     0.93735585     2.99999713
     16      H     1.08516054     2.16135419     2.55717039
     17      H    -1.28361895     1.79611076     3.82096486
     18      H    -2.72459777     1.12262317     3.01325829
     19      H    -1.75023485     0.08746898     4.08884499
     20      H     0.00931043    -1.12319922     4.08540855
     21      H     1.55032559    -1.45799175     3.31187325
     22      H    -0.53341176    -3.14513374     3.15654413
     23      H    -1.02187859    -2.13201265     1.81409919
     24      H     1.83768952    -3.17987262     1.73690056
     25      H     0.57753759    -4.39074602     1.67366860
     26      H    -0.40635051    -3.00055775    -0.34912278
     27      H     0.95971515    -4.10451792    -0.58617180

Total System Charge              0.00000

 *** GO1_GOStep17 ***

 Energy gradients wrt nuclear displacements
 ==========================================

     Atom      Cartesian (a.u./angstrom)
                 X         Y         Z
 ----------------------------------------
     1 C    -0.000012 -0.000018  0.000060
     2 C    -0.000059  0.000068 -0.000066
     3 C     0.000041 -0.000010  0.000007
     4 C     0.000006 -0.000006 -0.000017
     5 O    -0.000035 -0.000007 -0.000010
     6 C     0.000003 -0.000039  0.000116
     7 C     0.000008 -0.000030  0.000036
     8 C     0.000005  0.000009  0.000021
     9 C     0.000021 -0.000024 -0.000029
    10 C    -0.000045 -0.000006  0.000009
    11 C    -0.000111  0.000003 -0.000092
    12 F    -0.000098  0.000015 -0.000002
    13 F    -0.000016  0.000016 -0.000060
    14 H     0.000039 -0.000002 -0.000008
    15 H     0.000018  0.000033 -0.000049
    16 H    -0.000019  0.000012 -0.000018
    17 H     0.000016 -0.000022  0.000036
    18 H     0.000006 -0.000033  0.000076
    19 H     0.000043 -0.000002  0.000030
    20 H     0.000070 -0.000000 -0.000000
    21 H     0.000047  0.000016 -0.000044
    22 H     0.000050 -0.000006  0.000019
    23 H     0.000029 -0.000008  0.000029
    24 H     0.000011  0.000022 -0.000041
    25 H     0.000027  0.000011 -0.000006
    26 H    -0.000027 -0.000003  0.000018
    27 H    -0.000019  0.000012 -0.000014
 ----------------------------------------
 
---------------------------------------------------------
Geometry Convergence after Step  17       ** CONVERGED **
---------------------------------------------------------
current energy                               -5.43957356 Hartree
energy change                      -0.00000072     0.00027000    T
constrained gradient max            0.00008277     0.00010000    T
constrained gradient rms            0.00002321     0.00006667    T
gradient max                        0.00008277
gradient rms                        0.00002321
cart. step max                      0.00230021     0.01000000    T
cart. step rms                      0.00060648     0.00666667    T
 
Geometry optimization converged

Optimized geometry:

--------
Geometry
--------
Formula: C10H14F2O
Atoms
  Index Symbol   x (angstrom)   y (angstrom)   z (angstrom)
      1      C     1.25550726    -0.80123576     0.01892062
      2      C     0.88875884    -0.19659466     1.00017708
      3      C     0.39871083     0.10799261     2.34741377
      4      C     1.23540973     1.19554765     3.05070387
      5      O    -0.99121763     0.52036179     2.16006645
      6      C    -1.70740067     0.89914151     3.34731691
      7      C     0.48968817    -1.26267769     3.10820097
      8      C    -0.14503441    -2.47688271     2.37773719
      9      C     0.78726106    -3.33622956     1.45703032
     10      C     0.64225252    -3.18243314    -0.08282140
     11      C     1.46612458    -2.04584459    -0.71438596
     12      F     1.13607642    -1.93018394    -2.07097656
     13      F     2.83386519    -2.38694506    -0.68981203
     14      H     0.95521410     1.28324228     4.10608343
     15      H     2.29800761     0.93735585     2.99999713
     16      H     1.08516054     2.16135419     2.55717039
     17      H    -1.28361895     1.79611076     3.82096486
     18      H    -2.72459777     1.12262317     3.01325829
     19      H    -1.75023485     0.08746898     4.08884499
     20      H     0.00931043    -1.12319922     4.08540855
     21      H     1.55032559    -1.45799175     3.31187325
     22      H    -0.53341176    -3.14513374     3.15654413
     23      H    -1.02187859    -2.13201265     1.81409919
     24      H     1.83768952    -3.17987262     1.73690056
     25      H     0.57753759    -4.39074602     1.67366860
     26      H    -0.40635051    -3.00055775    -0.34912278
     27      H     0.95971515    -4.10451792    -0.58617180

Total System Charge              0.00000

Performing a single point calculation on the final geometry ...

 *** adf ***



 ===========================
 A T T A C H E D   F I L E S
 ===========================
  
 Restart/tmp/amstmp_c5_fragB_opt_kid0.1952287817/GO1_GOStep17.rkf*** GO1_GOStep17 ***



 ===============================
 M O D E L   P A R A M E T E R S
 ===============================
  
 DENSITY FUNCTIONAL POTENTIAL (scf)
    LDA:                               Exchange only                           == Not Default ==
    Gradient Corrections:              Becke88 LYP                             == Not Default ==

 SPIN  (restricted / unrestr.)
    Molecule:                          Restricted                               
    Fragments:                         Restricted                               

 OTHER ASPECTS
    Relativistic Corrections:          scalar (ZORA,MAPA)                       

    Nuclear Charge Density Model:      Point Charge Nuclei                      
    Core Treatment:                    Frozen Orbital(s)                        

    Hyperfine or Zeeman Interaction:   ---                                      

 Settings for Grimme D3 dispersion correction

      damping                        BJ
      s6                          1.000
      s8                          2.700
      a1                          0.430
      a2                          4.236

 Other (technical) parameters

      alpha                      14.000
      version                         4
 



 ===============
 G E O M E T R Y  ***  3D  Molecule  ***
 ===============
  

 ATOMS
 =====                            X Y Z                    CHARGE
                                (Angstrom)             Nucl     +Core       At.Mass
                       --------------------------    ----------------       -------
    1  C               1.2555   -0.8012    0.0189      6.00      6.00       12.0000
    2  C               0.8888   -0.1966    1.0002      6.00      6.00       12.0000
    3  C               0.3987    0.1080    2.3474      6.00      6.00       12.0000
    4  C               1.2354    1.1955    3.0507      6.00      6.00       12.0000
    5  O              -0.9912    0.5204    2.1601      8.00      8.00       15.9949
    6  C              -1.7074    0.8991    3.3473      6.00      6.00       12.0000
    7  C               0.4897   -1.2627    3.1082      6.00      6.00       12.0000
    8  C              -0.1450   -2.4769    2.3777      6.00      6.00       12.0000
    9  C               0.7873   -3.3362    1.4570      6.00      6.00       12.0000
   10  C               0.6423   -3.1824   -0.0828      6.00      6.00       12.0000
   11  C               1.4661   -2.0458   -0.7144      6.00      6.00       12.0000
   12  F               1.1361   -1.9302   -2.0710      9.00      9.00       18.9984
   13  F               2.8339   -2.3869   -0.6898      9.00      9.00       18.9984
   14  H               0.9552    1.2832    4.1061      1.00      1.00        1.0078
   15  H               2.2980    0.9374    3.0000      1.00      1.00        1.0078
   16  H               1.0852    2.1614    2.5572      1.00      1.00        1.0078
   17  H              -1.2836    1.7961    3.8210      1.00      1.00        1.0078
   18  H              -2.7246    1.1226    3.0133      1.00      1.00        1.0078
   19  H              -1.7502    0.0875    4.0888      1.00      1.00        1.0078
   20  H               0.0093   -1.1232    4.0854      1.00      1.00        1.0078
   21  H               1.5503   -1.4580    3.3119      1.00      1.00        1.0078
   22  H              -0.5334   -3.1451    3.1565      1.00      1.00        1.0078
   23  H              -1.0219   -2.1320    1.8141      1.00      1.00        1.0078
   24  H               1.8377   -3.1799    1.7369      1.00      1.00        1.0078
   25  H               0.5775   -4.3907    1.6737      1.00      1.00        1.0078
   26  H              -0.4064   -3.0006   -0.3491      1.00      1.00        1.0078
   27  H               0.9597   -4.1045   -0.5862      1.00      1.00        1.0078


 FRAGMENTS
 =========                                     Atoms in this Fragment     Cart. coord.s (Angstrom)
                                               -------------------------------------------------------
    1  C                                                 1  C            1.2555   -0.8012    0.0189
    2  C                                                 2  C            0.8888   -0.1966    1.0002
    3  C                                                 3  C            0.3987    0.1080    2.3474
    4  C                                                 4  C            1.2354    1.1955    3.0507
    5  C                                                 6  C           -1.7074    0.8991    3.3473
    6  C                                                 7  C            0.4897   -1.2627    3.1082
    7  C                                                 8  C           -0.1450   -2.4769    2.3777
    8  C                                                 9  C            0.7873   -3.3362    1.4570
    9  C                                                10  C            0.6423   -3.1824   -0.0828
   10  C                                                11  C            1.4661   -2.0458   -0.7144
   11  O                                                 5  O           -0.9912    0.5204    2.1601
   12  F                                                12  F            1.1361   -1.9302   -2.0710
   13  F                                                13  F            2.8339   -2.3869   -0.6898
   14  H                                                14  H            0.9552    1.2832    4.1061
   15  H                                                15  H            2.2980    0.9374    3.0000
[...]
                                   -1.00%     2 P:z             4.589  0.00     6 C

 Energy gradients wrt nuclear displacements
 ==========================================

     Atom      Cartesian (a.u./angstrom)
                 X         Y         Z
 ----------------------------------------
     1 C    -0.000012 -0.000018  0.000060
     2 C    -0.000059  0.000068 -0.000066
     3 C     0.000041 -0.000010  0.000007
     4 C     0.000006 -0.000006 -0.000017
     5 O    -0.000035 -0.000007 -0.000010
     6 C     0.000003 -0.000039  0.000116
     7 C     0.000008 -0.000030  0.000036
     8 C     0.000005  0.000009  0.000021
     9 C     0.000021 -0.000024 -0.000029
    10 C    -0.000045 -0.000006  0.000009
    11 C    -0.000111  0.000003 -0.000092
    12 F    -0.000098  0.000015 -0.000002
    13 F    -0.000016  0.000016 -0.000060
    14 H     0.000039 -0.000002 -0.000008
    15 H     0.000018  0.000033 -0.000049
    16 H    -0.000019  0.000012 -0.000018
    17 H     0.000016 -0.000022  0.000036
    18 H     0.000006 -0.000033  0.000076
    19 H     0.000043 -0.000002  0.000030
    20 H     0.000070 -0.000000 -0.000000
    21 H     0.000047  0.000016 -0.000044
    22 H     0.000050 -0.000006  0.000019
    23 H     0.000029 -0.000008  0.000029
    24 H     0.000011  0.000022 -0.000041
    25 H     0.000027  0.000011 -0.000006
    26 H    -0.000027 -0.000003  0.000018
    27 H    -0.000019  0.000012 -0.000014
 ----------------------------------------



 =======================================================================
 Electrostatic potential at the Nuclei due to electrons and other nuclei
 =======================================================================
  
         Atom                  Potential
         ----                  ---------
     1)   C                  14.78975160
     2)   C                  14.78343326
     3)   C                  14.68778001
     4)   C                  14.77832006
     5)   O                  22.38522720
     6)   C                  14.73584495
     7)   C                  14.76999828
     8)   C                  14.77650261
     9)   C                  14.77303051
    10)   C                  14.76804541
    11)   C                  14.60304966
    12)   F                  26.64805223
    13)   F                  26.64824686
    14)   H                   1.10021831
    15)   H                   1.09969574
    16)   H                   1.10327996
    17)   H                   1.10603845
    18)   H                   1.10223377
    19)   H                   1.10409983
    20)   H                   1.10424384
    21)   H                   1.10416843
    22)   H                   1.11839801
    23)   H                   1.11650906
    24)   H                   1.11358541
    25)   H                   1.11632468
    26)   H                   1.10060877
    27)   H                   1.10291404
 Mulliken charges used for AMS results%charges...


    =====================
     CALCULATION RESULTS
    =====================

Energy (hartree)            -5.43957356

Gradients (hartree/bohr)
  Index   Atom            d/dx            d/dy            d/dz
      1      C   -0.0000061208   -0.0000094180    0.0000319885
      2      C   -0.0000312348    0.0000360866   -0.0000350287
      3      C    0.0000214427   -0.0000054081    0.0000037013
      4      C    0.0000032719   -0.0000031764   -0.0000092189
      5      O   -0.0000182686   -0.0000038092   -0.0000050546
      6      C    0.0000018452   -0.0000205704    0.0000612665
      7      C    0.0000039972   -0.0000160953    0.0000191909
      8      C    0.0000028275    0.0000046109    0.0000110119
      9      C    0.0000108958   -0.0000126971   -0.0000152245
     10      C   -0.0000238419   -0.0000031260    0.0000047293
     11      C   -0.0000589424    0.0000016216   -0.0000488623
     12      F   -0.0000516153    0.0000077350   -0.0000012318
     13      F   -0.0000082193    0.0000085585   -0.0000315975
     14      H    0.0000203897   -0.0000011652   -0.0000041802
     15      H    0.0000093145    0.0000176723   -0.0000261237
     16      H   -0.0000098403    0.0000061109   -0.0000097319
     17      H    0.0000086120   -0.0000115191    0.0000190342
     18      H    0.0000029194   -0.0000174809    0.0000401803
     19      H    0.0000228235   -0.0000008127    0.0000156991
     20      H    0.0000371260   -0.0000002409   -0.0000002399
     21      H    0.0000249173    0.0000082096   -0.0000235170
     22      H    0.0000266119   -0.0000029227    0.0000100825
     23      H    0.0000151145   -0.0000040171    0.0000156057
     24      H    0.0000059642    0.0000115880   -0.0000217821
     25      H    0.0000140632    0.0000057196   -0.0000030110
     26      H   -0.0000141800   -0.0000015978    0.0000095825
     27      H   -0.0000098731    0.0000061438   -0.0000072684


--------------
Atomic charges
--------------
  Index   Atom    Charge
      1      C   -0.0767
      2      C    0.0096
      3      C    0.2633
      4      C    0.7122
      5      O   -0.5838
      6      C    0.9870
      7      C    0.4662
      8      C    0.4021
      9      C    0.4016
     10      C    0.4072
     11      C    0.8161
     12      F   -0.4202
     13      F   -0.4242
     14      H   -0.2358
     15      H   -0.2214
     16      H   -0.2153
     17      H   -0.2211
     18      H   -0.2355
     19      H   -0.2204
     20      H   -0.2182
     21      H   -0.2104
     22      H   -0.2102
     23      H   -0.1870
     24      H   -0.1967
     25      H   -0.1982
     26      H   -0.1980
     27      H   -0.1923


Dipole moment vector    (Debye):    -1.53040238   -0.32372608    4.67505963
              magnitude (Debye):     4.92981872


-----------------------
Molecular orbitals info
-----------------------
n orbitals:              492
n spin:                    1

Note: only printing virtual orbitals with
      energy smaller than HOMO + 100. eV

HOMO (eV):              -6.2122
LUMO (eV):              -1.4221
HOMO-LUMO gap (eV):      4.7901

   Index   Energy (eV)    Occupation
     311       93.5760         0.000       
     310       93.2139         0.000       
     309       92.9010         0.000       
     308       92.7217         0.000       
     307       92.4410         0.000       
     306       91.8486         0.000       
     305       91.4471         0.000       
     304       91.0433         0.000       
     303       90.7538         0.000       
     302       90.5288         0.000       
     301       90.1650         0.000       
     300       89.7046         0.000       
     299       88.7089         0.000       
     298       88.6044         0.000       
     297       88.1482         0.000       
     296       87.3037         0.000       
     295       87.1199         0.000       
     294       85.5712         0.000       
     293       85.5195         0.000       
     292       84.9507         0.000       
     291       84.2635         0.000       
     290       83.4639         0.000       
     289       83.4047         0.000       
     288       82.8845         0.000       
     287       82.5093         0.000       
     286       82.2784         0.000       
     285       81.8610         0.000       
     284       81.7666         0.000       
     283       81.4892         0.000       
     282       80.8482         0.000       
     281       80.4368         0.000       
     280       80.2381         0.000       
     279       80.0647         0.000       
     278       79.5723         0.000       
     277       79.4965         0.000       
     276       79.2557         0.000       
     275       78.3859         0.000       
     274       78.3626         0.000       
     273       77.7347         0.000       
     272       77.6406         0.000       
     271       77.2349         0.000       
     270       76.8675         0.000       
     269       76.4858         0.000       
     268       76.2119         0.000       
     267       75.7346         0.000       
     266       75.5730         0.000       
     265       75.0530         0.000       
     264       74.7896         0.000       
     263       74.3884         0.000       
     262       73.6045         0.000       
     261       73.2805         0.000       
     260       72.5538         0.000       
     259       71.6905         0.000       
     258       71.3501         0.000       
     257       70.0717         0.000       
     256       69.9850         0.000       
     255       69.1508         0.000       
     254       68.3746         0.000       
     253       67.9459         0.000       
     252       67.0873         0.000       
     251       66.7848         0.000       
     250       65.6522         0.000       
     249       65.5705         0.000       
     248       64.6979         0.000       
     247       64.1726         0.000       
     246       63.9321         0.000       
     245       63.3572         0.000       
     244       62.5281         0.000       
     243       62.2191         0.000       
     242       61.5901         0.000       
     241       61.0789         0.000       
     240       59.9911         0.000       
     239       59.6748         0.000       
     238       59.1633         0.000       
     237       58.7846         0.000       
     236       58.6400         0.000       
     235       58.2681         0.000       
     234       57.8759         0.000       
     233       57.7742         0.000       
     232       57.1534         0.000       
     231       56.8467         0.000       
     230       56.1083         0.000       
     229       55.7993         0.000       
     228       55.7087         0.000       
     227       55.1402         0.000       
     226       54.6477         0.000       
     225       54.2275         0.000       
     224       53.7883         0.000       
     223       53.0728         0.000       
     222       52.5467         0.000       
     221       52.1539         0.000       
     220       51.9635         0.000       
     219       51.2746         0.000       
     218       51.0256         0.000       
     217       50.6084         0.000       
     216       50.3996         0.000       
     215       49.9825         0.000       
     214       49.5929         0.000       
     213       49.2661         0.000       
     212       48.6499         0.000       
     211       48.5664         0.000       
     210       48.2101         0.000       
     209       47.7449         0.000       
     208       47.5946         0.000       
     207       46.7129         0.000       
     206       46.3320         0.000       
     205       45.8806         0.000       
     204       45.5993         0.000       
     203       45.3699         0.000       
     202       44.8539         0.000       
     201       44.3429         0.000       
     200       43.9090         0.000       
     199       43.4697         0.000       
     198       43.0262         0.000       
     197       42.9655         0.000       
     196       42.5842         0.000       
     195       42.2584         0.000       
     194       41.6701         0.000       
     193       41.2615         0.000       
     192       40.6357         0.000       
     191       40.3640         0.000       
     190       39.9426         0.000       
     189       39.4377         0.000       
     188       39.2474         0.000       
     187       39.0439         0.000       
     186       38.4950         0.000       
     185       37.6015         0.000       
     184       37.2578         0.000       
     183       37.0067         0.000       
     182       36.8266         0.000       
     181       36.4927         0.000       
     180       36.2426         0.000       
     179       35.7395         0.000       
     178       35.6845         0.000       
     177       35.6163         0.000       
     176       35.0230         0.000       
     175       34.7338         0.000       
     174       34.5370         0.000       
     173       33.9338         0.000       
     172       33.7284         0.000       
     171       33.5424         0.000       
     170       33.2547         0.000       
     169       32.9430         0.000       
     168       32.5548         0.000       
     167       32.3272         0.000       
     166       31.8387         0.000       
     165       31.5573         0.000       
     164       31.3923         0.000       
     163       31.0425         0.000       
     162       30.8422         0.000       
     161       30.4570         0.000       
     160       30.3706         0.000       
     159       30.1604         0.000       
     158       29.4159         0.000       
     157       29.2500         0.000       
     156       28.9509         0.000       
     155       28.4578         0.000       
     154       28.3505         0.000       
     153       27.5736         0.000       
     152       27.2571         0.000       
     151       27.0936         0.000       
     150       26.8299         0.000       
     149       26.6666         0.000       
     148       26.2417         0.000       
     147       26.0239         0.000       
     146       25.4493         0.000       
     145       25.2835         0.000       
     144       24.8282         0.000       
     143       24.5614         0.000       
     142       24.3549         0.000       
     141       24.0924         0.000       
     140       23.7696         0.000       
     139       23.4767         0.000       
     138       22.9722         0.000       
     137       22.8483         0.000       
     136       22.2192         0.000       
     135       21.6611         0.000       
     134       21.2290         0.000       
     133       20.6788         0.000       
     132       20.4678         0.000       
     131       20.3316         0.000       
     130       20.1679         0.000       
     129       19.7419         0.000       
     128       18.8163         0.000       
     127       18.4655         0.000       
     126       18.3074         0.000       
     125       17.3967         0.000       
     124       16.8713         0.000       
     123       16.6365         0.000       
     122       16.1021         0.000       
     121       15.4021         0.000       
     120       14.7995         0.000       
     119       14.4265         0.000       
     118       14.1889         0.000       
     117       13.7679         0.000       
     116       13.2276         0.000       
     115       13.0536         0.000       
     114       12.5365         0.000       
     113       12.3658         0.000       
     112       12.2052         0.000       
     111       12.1175         0.000       
     110       11.8430         0.000       
     109       11.3568         0.000       
     108       11.1175         0.000       
     107       11.0515         0.000       
     106       11.0107         0.000       
     105       10.6546         0.000       
     104       10.4994         0.000       
     103       10.2582         0.000       
     102       10.1899         0.000       
     101        9.8982         0.000       
     100        9.7469         0.000       
      99        9.4641         0.000       
      98        9.2680         0.000       
      97        9.0563         0.000       
      96        8.6668         0.000       
      95        8.4445         0.000       
      94        8.3591         0.000       
      93        8.2273         0.000       
      92        8.0110         0.000       
      91        7.6037         0.000       
      90        7.3959         0.000       
      89        7.3184         0.000       
      88        7.0539         0.000       
      87        6.6661         0.000       
      86        6.3878         0.000       
      85        6.3503         0.000       
      84        5.9772         0.000       
      83        5.8374         0.000       
      82        5.6964         0.000       
      81        5.3779         0.000       
      80        5.1381         0.000       
      79        4.8967         0.000       
      78        4.7919         0.000       
      77        4.6265         0.000       
      76        4.2911         0.000       
      75        4.1728         0.000       
      74        3.9234         0.000       
      73        3.6127         0.000       
      72        3.3117         0.000       
      71        3.0754         0.000       
      70        2.9435         0.000       
      69        2.6419         0.000       
      68        2.5930         0.000       
      67        2.2938         0.000       
      66        2.0908         0.000       
      65        1.9283         0.000       
      64        1.8080         0.000       
      63        1.7293         0.000       
      62        1.5500         0.000       
      61        1.4557         0.000       
      60        1.2416         0.000       
      59        1.0259         0.000       
      58        0.8459         0.000       
      57        0.6875         0.000       
      56        0.3683         0.000       
      55        0.1623         0.000       
      54       -0.0405         0.000       
      53       -0.4803         0.000       
      52       -1.0617         0.000       
      51       -1.4221         0.000 < LUMO
      50       -6.2122         2.000 < HOMO
      49       -6.8531         2.000       
      48       -7.0689         2.000       
      47       -7.6684         2.000       
      46       -7.8952         2.000       
      45       -8.2266         2.000       
      44       -8.4253         2.000       
      43       -8.5357         2.000       
      42       -9.0176         2.000       
      41       -9.3237         2.000       
      40       -9.5976         2.000       
      39       -9.6750         2.000       
      38       -9.7820         2.000       
      37       -9.9155         2.000       
      36      -10.0300         2.000       
      35      -10.3196         2.000       
      34      -10.4979         2.000       
      33      -10.6099         2.000       
      32      -11.2283         2.000       
      31      -11.5624         2.000       
      30      -11.7599         2.000       
      29      -12.2382         2.000       
      28      -12.8034         2.000       
      27      -13.1349         2.000       
      26      -13.6224         2.000       
      25      -14.6122         2.000       
      24      -14.8186         2.000       
      23      -16.1711         2.000       
      22      -17.0303         2.000       
      21      -17.3898         2.000       
      20      -18.1405         2.000       
      19      -19.2442         2.000       
      18      -19.9483         2.000       
      17      -20.8242         2.000       
      16      -25.7734         2.000       
      15      -29.3640         2.000       
      14      -30.7611         2.000       
      13     -270.1708         2.000       
      12     -270.2207         2.000       
      11     -270.2221         2.000       
      10     -270.3179         2.000       
       9     -270.4167         2.000       
       8     -270.4479         2.000       
       7     -270.5033         2.000       
       6     -271.3365         2.000       
       5     -272.5799         2.000       
       4     -274.8738         2.000       
       3     -511.8144         2.000       
       2     -661.4786         2.000       
       1     -661.4810         2.000       

AMS application finished. Exiting.
NORMAL TERMINATION
     Total cpu time:    2531.82
  Total system time:      12.71
 Total elapsed time:    2557.45
NORMAL TERMINATION
