
 *******************************************************************************
 *                                                                             *
 *  --------------------------------                                           *
 *   Amsterdam Modeling Suite (AMS)              2026.103                      *
 *  --------------------------------                                           *
 *                                               r260501 2026-05-01 873454b5   *
 *                                                                             *
 *                                                                             *
 *                              =================                              *
 *                              |               |                              *
 *                              |     A M S     |                              *
 *                              |               |                              *
 *                              =================                              *
 *                                                                             *
 *                                                                             *
 *   Online information and documentation:  https://www.scm.com/support/       *
 *   E-mail:  support@scm.com   info@scm.com                                   *
 *                                                                             *
 *   Scientific publications using AMS results must be properly referenced     *
 *   See the User Manuals (or the web site) for recommended citations          *
 *   The terms and conditions of the End User License Agreement apply to       *
 *   the use of AMS, https://www.scm.com/license-terms/                        *
 *                                                                             *
 **********************  x86_64_linux_intel / intelmpi  ************************
 
 Licensed to: Jong-June Jeon / University of Seoul 2026-06-02 13:44:15
 SCM User ID: u30731
  
 AMS 2026.103  RunTime: Jun03-2026 18:03:00  ShM Nodes: 1  Procs: 1

 AMS jobname: c2_fragB_ts
 AMS jobid  : 814425769

 Start   directory: /gpfs/home1/yeseo1ee/projects/eda-asm-prediction/ADF_800/adf_outputs/batch_003/qmrxn20_e2_B_A_A_C_A_A/
 Results directory: /gpfs/home1/yeseo1ee/projects/eda-asm-prediction/ADF_800/adf_outputs/batch_003/qmrxn20_e2_B_A_A_C_A_A/c2_fragB_ts.results/
 Scratch directory: /tmp/amstmp_c2_fragB_ts_kid0.814425769/

 RNG seed: 1132224704 337933127 -884207450 1217580723 -430926863 -465778369 516993798 455622658



                      ************************************************************************
                      *  ADF 2026.103  RunTime: Jun03-2026 18:03:00  ShM Nodes: 1  Procs: 1  *
                      ************************************************************************
  

       ****************************
       * SINGLE POINT CALCULATION *
       ****************************

--------
Geometry
--------
Formula: C3H3FN2O2
Atoms
  Index Symbol   x (angstrom)   y (angstrom)   z (angstrom)
      1      C    -0.32140040     0.00167740    -0.35529295
      2      C    -0.15599197    -0.17402543     1.12018671
      3      F     0.74287143     0.59378641    -0.98736238
      4      H    -1.28256961    -0.02516139     1.46952732
      5      H    -1.22799373     0.61436026    -0.49940551
      6      H     0.32014404     0.73430935     1.50158415
      7      C     0.56726292    -1.34296614     1.56006533
      8      N     1.16356836    -2.27281830     1.96784930
      9      N    -0.58637948    -1.30538306    -1.05280683
     10      O    -0.11464180    -1.46978965    -2.17530996
     11      O    -1.32588777    -2.08690610    -0.46221352

Total System Charge              0.00000


----------------
ADF Engine Input
----------------
 
   Basis
     Type TZ2P
     Core None
   End
   XC
     GGA BLYP
     Dispersion GRIMME3 BJDAMP
   End
   Symmetry NOSYM
   NumericalQuality Normal
   Unrestricted No
   SCF
     Iterations 200
     Converge 1.0e-6
   End
   Save TAPE21
 

 Title: *** (NO TITLE) ***

 *** adf ***



 ===========================
 A T T A C H E D   F I L E S
 ===========================
  



 ===============================
 M O D E L   P A R A M E T E R S
 ===============================
  
 DENSITY FUNCTIONAL POTENTIAL (scf)
    LDA:                               Exchange only                           == Not Default ==
    Gradient Corrections:              Becke88 LYP                             == Not Default ==

 SPIN  (restricted / unrestr.)
    Molecule:                          Restricted                               
    Fragments:                         Restricted                               

 OTHER ASPECTS
    Relativistic Corrections:          scalar (ZORA,MAPA)                       

    Nuclear Charge Density Model:      Point Charge Nuclei                      
    Core Treatment:                    Frozen Orbital(s)                        

    Hyperfine or Zeeman Interaction:   ---                                      

 Settings for Grimme D3 dispersion correction

      damping                        BJ
      s6                          1.000
      s8                          2.700
      a1                          0.430
      a2                          4.236

 Other (technical) parameters

      alpha                      14.000
      version                         4
 


 Fragment File(s)
 ----------------
 C:
         file : /gpfs/home1/yeseo1ee/projects/eda-asm-prediction/ADF_800/adf_outputs/batch_003/qmrxn20_e2_B_A_A_C_A_A/c2_fragB_ts.results/t21.50BA88D5.C
         jobid: 0
         title: Carbon (TZ2P)
 F:
         file : /gpfs/home1/yeseo1ee/projects/eda-asm-prediction/ADF_800/adf_outputs/batch_003/qmrxn20_e2_B_A_A_C_A_A/c2_fragB_ts.results/t21.CCE1280.F
         jobid: 0
         title: Fluorine (TZ2P)
 H:
         file : /gpfs/home1/yeseo1ee/projects/eda-asm-prediction/ADF_800/adf_outputs/batch_003/qmrxn20_e2_B_A_A_C_A_A/c2_fragB_ts.results/t21.6F35CCAB.H
         jobid: 0
         title: Hydrogen (TZ2P)
 N:
         file : /gpfs/home1/yeseo1ee/projects/eda-asm-prediction/ADF_800/adf_outputs/batch_003/qmrxn20_e2_B_A_A_C_A_A/c2_fragB_ts.results/t21.44EAA48D.N
         jobid: 0
         title: Nitrogen (TZ2P)
 O:
         file : /gpfs/home1/yeseo1ee/projects/eda-asm-prediction/ADF_800/adf_outputs/batch_003/qmrxn20_e2_B_A_A_C_A_A/c2_fragB_ts.results/t21.6E90ABAE.O
         jobid: 0
         title: Oxygen (TZ2P)



 ===============
 G E O M E T R Y  ***  3D  Molecule  ***
 ===============
  

 ATOMS
 =====                            X Y Z                    CHARGE
                                (Angstrom)             Nucl     +Core       At.Mass
                       --------------------------    ----------------       -------
    1  C              -0.3214    0.0017   -0.3553      6.00      6.00       12.0000
    2  C              -0.1560   -0.1740    1.1202      6.00      6.00       12.0000
    3  F               0.7429    0.5938   -0.9874      9.00      9.00       18.9984
    4  H              -1.2826   -0.0252    1.4695      1.00      1.00        1.0078
    5  H              -1.2280    0.6144   -0.4994      1.00      1.00        1.0078
    6  H               0.3201    0.7343    1.5016      1.00      1.00        1.0078
    7  C               0.5673   -1.3430    1.5601      6.00      6.00       12.0000
    8  N               1.1636   -2.2728    1.9678      7.00      7.00       14.0031
    9  N              -0.5864   -1.3054   -1.0528      7.00      7.00       14.0031
   10  O              -0.1146   -1.4698   -2.1753      8.00      8.00       15.9949
   11  O              -1.3259   -2.0869   -0.4622      8.00      8.00       15.9949


 FRAGMENTS
 =========                                     Atoms in this Fragment     Cart. coord.s (Angstrom)
                                               -------------------------------------------------------
    1  C                                                 1  C           -0.3214    0.0017   -0.3553
    2  C                                                 2  C           -0.1560   -0.1740    1.1202
    3  C                                                 7  C            0.5673   -1.3430    1.5601
    4  F                                                 3  F            0.7429    0.5938   -0.9874
    5  H                                                 4  H           -1.2826   -0.0252    1.4695
    6  H                                                 5  H           -1.2280    0.6144   -0.4994
    7  H                                                 6  H            0.3201    0.7343    1.5016
    8  N                                                 8  N            1.1636   -2.2728    1.9678
    9  N                                                 9  N           -0.5864   -1.3054   -1.0528
   10  O                                                10  O           -0.1146   -1.4698   -2.1753
   11  O                                                11  O           -1.3259   -2.0869   -0.4622


 Interatomic Distance Matrix (Angstrom)
 --------------------------------------

   1)     0.000
   2)     1.495   0.000
   3)     1.372   2.416   0.000
   4)     2.063   1.189   3.244   0.000
   5)     1.104   2.096   2.030   2.071   0.000
   6)     2.097   1.094   2.528   1.774   2.533   0.000
   7)     2.503   1.443   3.205   2.273   3.361   2.093   0.000
   8)     3.574   2.620   4.139   3.359   4.488   3.158   1.177   0.000
   9)     1.505   2.487   2.319   2.913   2.098   3.392   2.856   3.623   0.000
  10)     2.350   3.541   2.531   4.091   2.897   4.309   3.799   4.410   1.229   0.000
  11)     2.320   2.744   3.427   2.826   2.703   3.811   2.868   3.484   1.227   2.187
          0.000

 Min. Distance =    1.0942
 Max. Distance =    4.4881



 =====================================
 S Y M M E T R Y ,   E L E C T R O N S
 =====================================
  
 Symmetry: NOSYM

 Irreducible Representations, including subspecies
 -------------------------------------------------
 A


 Configuration of Valence Electrons
 ==================================
 ( determined in the SCF procedure )

 Total:   60

 Net Charge: 0 (Nuclei minus Electrons)

 Aufbau principle for MO occupations will be applied through SCF cycle no.     100
 Thereafter, the program will assign electrons to MOs that are spatially
 similar to the occupied MOs in a "reference" cycle ("KeepOrbitals").
 The reference cycle is always the PREVIOUS cycle: it will evolve with
 the SCF procedure.
 ***************************************************************************************************



                                      ****************************************
                                      *  B U I L D : (Fragments, Functions)  *
                                      ****************************************
  



 =======
 S F O s  ***  (Symmetrized Fragment Orbitals)  ***
 =======
  
 SFOs are linear combinations of (valence) Fragment Orbitals (FOs), such that the SFOs transform as the
 irreducible representations of the (molecular) symmetry group. Each SFO is therefore characterized by
 an irrep of the molecule and by a few (or only one) generating FOs.
 The SFOs constitute a symmetry-adapted basis for the Fock matrix. The MO eigenvector coefficients in
 this basis provide a direct interpretation of the MOs in terms of Frontier Orbital Theory.

 The SFOs are combined with auxiliary Core Functions (CFs) to ensure orthogonalization on the (frozen)
 Core Orbitals (COs). The Core-orthogonalized SFOs (CSFOs) constitute the true Fock basis.

 The FOs, and hence also the (C)SFOs are combinations of the elementary basis functions (BAS). The basis
 functions that participate in the description of the SFOs depend on the irrep. The indices of the
 involved functions are printed below for each irrep.
 (The complete list of primitive basis functions is printed in another section)

 Total nr. of (C)SFOs (summation over all irreps) :   241

 NOTE: a (C)SFO that is defined as a combination of more than one FO is usually NOT normalized.



                                       === A ===
 Nr. of SFOs :  241
 Cartesian basis functions that participate in this irrep (total number =   276) :
      1     2     3     4     5     6     9    12     7    10
     13     8    11    14    15    16    17    18    19    20
     21    22    23    24    25    26    27    28    29    30
     31    32    33    34    35    36    39    42    37    40
     43    38    41    44    45    46    47    48    49    50
     51    52    53    54    55    56    57    58    59    60
     61    62    63    64    65    66    69    72    67    70
     73    68    71    74    75    76    77    78    79    80
     81    82    83    84    85    86    87    88    89    90
     91    92    93    94    95    96    99   102    97   100
    103    98   101   104   105   106   107   108   109   110
    111   112   113   114   115   116   117   118   119   120
    121   122   123   124   125   126   127   128   129   130
    131   132   133   134   135   136   137   138   139   140
    141   142   143   144   145   146   147   148   149   150
    151   152   153   154   155   156   157   158   159   160
    161   162   165   168   163   166   169   164   167   170
    171   172   173   174   175   176   177   178   179   180
    181   182   183   184   185   186   187   188   189   190
    191   192   195   198   193   196   199   194   197   200
    201   202   203   204   205   206   207   208   209   210
    211   212   213   214   215   216   217   218   219   220
    221   222   225   228   223   226   229   224   227   230
    231   232   233   234   235   236   237   238   239   240
    241   242   243   244   245   246   247   248   249   250
    251   252   255   258   253   256   259   254   257   260
    261   262   263   264   265   266   267   268   269   270
    271   272   273   274   275   276

    SFO  (index         Fragment          Generating    Expansion in Fragment Orbitals
  indx  incl.CFs)   Occup   Orb.Energy   FragmentType  Coeff.   Orbital     on Fragment
 --------------------------------------------------------------------------------------
     1       1      2.000     -10.066 au  C             1.00      1 S               1
                        (    -273.921 eV)
     2       2      2.000      -0.501 au  C             1.00      2 S               1
                        (     -13.620 eV)
     3       3       --         0.373 au  C             1.00      3 S               1
                        (      10.158 eV)
     4       4       --         5.405 au  C             1.00      4 S               1
                        (     147.073 eV)
     5       5       --        49.848 au  C             1.00      5 S               1
                        (    1356.422 eV)
     6       6      0.667      -0.193 au  C             1.00      1 P:x             1
                        (      -5.239 eV)
     7       7       --         0.169 au  C             1.00      2 P:x             1
                        (       4.589 eV)
     8       8       --         2.013 au  C             1.00      3 P:x             1
                        (      54.789 eV)
     9       9      0.667      -0.193 au  C             1.00      1 P:y             1
                        (      -5.239 eV)
    10      10       --         0.169 au  C             1.00      2 P:y             1
                        (       4.589 eV)
    11      11       --         2.013 au  C             1.00      3 P:y             1
                        (      54.789 eV)
    12      12      0.667      -0.193 au  C             1.00      1 P:z             1
                        (      -5.239 eV)
    13      13       --         0.169 au  C             1.00      2 P:z             1
                        (       4.589 eV)
    14      14       --         2.013 au  C             1.00      3 P:z             1
                        (      54.789 eV)
    15      15       --         1.243 au  C             1.00      1 D:z2            1
                        (      33.824 eV)
    16      16       --         1.243 au  C             1.00      1 D:x2-y2         1
                        (      33.824 eV)
    17      17       --         1.243 au  C             1.00      1 D:xy            1
                        (      33.824 eV)
    18      18       --         1.243 au  C             1.00      1 D:xz            1
                        (      33.824 eV)
    19      19       --         1.243 au  C             1.00      1 D:yz            1
                        (      33.824 eV)
    20      20       --         4.016 au  C             1.00      1 F:z3            1
                        (     109.271 eV)
    21      21       --         4.016 au  C             1.00      1 F:z             1
                        (     109.271 eV)
    22      22       --         4.016 au  C             1.00      1 F:xyz           1
                        (     109.271 eV)
    23      23       --         4.016 au  C             1.00      1 F:z2x           1
                        (     109.271 eV)
    24      24       --         4.016 au  C             1.00      1 F:z2y           1
                        (     109.271 eV)
    25      25       --         4.016 au  C             1.00      1 F:x             1
                        (     109.271 eV)
    26      26       --         4.016 au  C             1.00      1 F:y             1
                        (     109.271 eV)
    27      27      2.000     -10.066 au  C             1.00      1 S               2
                        (    -273.921 eV)
    28      28      2.000      -0.501 au  C             1.00      2 S               2
                        (     -13.620 eV)
    29      29       --         0.373 au  C             1.00      3 S               2
                        (      10.158 eV)
    30      30       --         5.405 au  C             1.00      4 S               2
                        (     147.073 eV)
    31      31       --        49.848 au  C             1.00      5 S               2
                        (    1356.422 eV)
    32      32      0.667      -0.193 au  C             1.00      1 P:x             2
                        (      -5.239 eV)
    33      33       --         0.169 au  C             1.00      2 P:x             2
                        (       4.589 eV)
    34      34       --         2.013 au  C             1.00      3 P:x             2
                        (      54.789 eV)
    35      35      0.667      -0.193 au  C             1.00      1 P:y             2
                        (      -5.239 eV)
    36      36       --         0.169 au  C             1.00      2 P:y             2
                        (       4.589 eV)
    37      37       --         2.013 au  C             1.00      3 P:y             2
                        (      54.789 eV)
    38      38      0.667      -0.193 au  C             1.00      1 P:z             2
                        (      -5.239 eV)
    39      39       --         0.169 au  C             1.00      2 P:z             2
                        (       4.589 eV)
    40      40       --         2.013 au  C             1.00      3 P:z             2
                        (      54.789 eV)
    41      41       --         1.243 au  C             1.00      1 D:z2            2
                        (      33.824 eV)
    42      42       --         1.243 au  C             1.00      1 D:x2-y2         2
                        (      33.824 eV)
    43      43       --         1.243 au  C             1.00      1 D:xy            2
                        (      33.824 eV)
    44      44       --         1.243 au  C             1.00      1 D:xz            2
                        (      33.824 eV)
    45      45       --         1.243 au  C             1.00      1 D:yz            2
                        (      33.824 eV)
    46      46       --         4.016 au  C             1.00      1 F:z3            2
                        (     109.271 eV)
    47      47       --         4.016 au  C             1.00      1 F:z             2
                        (     109.271 eV)
    48      48       --         4.016 au  C             1.00      1 F:xyz           2
                        (     109.271 eV)
    49      49       --         4.016 au  C             1.00      1 F:z2x           2
                        (     109.271 eV)
    50      50       --         4.016 au  C             1.00      1 F:z2y           2
                        (     109.271 eV)
    51      51       --         4.016 au  C             1.00      1 F:x             2
                        (     109.271 eV)
    52      52       --         4.016 au  C             1.00      1 F:y             2
                        (     109.271 eV)
    53      53      2.000     -10.066 au  C             1.00      1 S               3
                        (    -273.921 eV)
    54      54      2.000      -0.501 au  C             1.00      2 S               3
                        (     -13.620 eV)
    55      55       --         0.373 au  C             1.00      3 S               3
                        (      10.158 eV)
    56      56       --         5.405 au  C             1.00      4 S               3
                        (     147.073 eV)
    57      57       --        49.848 au  C             1.00      5 S               3
                        (    1356.422 eV)
    58      58      0.667      -0.193 au  C             1.00      1 P:x             3
                        (      -5.239 eV)
    59      59       --         0.169 au  C             1.00      2 P:x             3
                        (       4.589 eV)
    60      60       --         2.013 au  C             1.00      3 P:x             3
                        (      54.789 eV)
    61      61      0.667      -0.193 au  C             1.00      1 P:y             3
                        (      -5.239 eV)
    62      62       --         0.169 au  C             1.00      2 P:y             3
                        (       4.589 eV)
    63      63       --         2.013 au  C             1.00      3 P:y             3
                        (      54.789 eV)
    64      64      0.667      -0.193 au  C             1.00      1 P:z             3
                        (      -5.239 eV)
    65      65       --         0.169 au  C             1.00      2 P:z             3
                        (       4.589 eV)
    66      66       --         2.013 au  C             1.00      3 P:z             3
                        (      54.789 eV)
    67      67       --         1.243 au  C             1.00      1 D:z2            3
                        (      33.824 eV)
    68      68       --         1.243 au  C             1.00      1 D:x2-y2         3
                        (      33.824 eV)
    69      69       --         1.243 au  C             1.00      1 D:xy            3
                        (      33.824 eV)
    70      70       --         1.243 au  C             1.00      1 D:xz            3
                        (      33.824 eV)
    71      71       --         1.243 au  C             1.00      1 D:yz            3
                        (      33.824 eV)
    72      72       --         4.016 au  C             1.00      1 F:z3            3
                        (     109.271 eV)
    73      73       --         4.016 au  C             1.00      1 F:z             3
                        (     109.271 eV)
    74      74       --         4.016 au  C             1.00      1 F:xyz           3
                        (     109.271 eV)
    75      75       --         4.016 au  C             1.00      1 F:z2x           3
                        (     109.271 eV)
    76      76       --         4.016 au  C             1.00      1 F:z2y           3
                        (     109.271 eV)
    77      77       --         4.016 au  C             1.00      1 F:x             3
                        (     109.271 eV)
    78      78       --         4.016 au  C             1.00      1 F:y             3
                        (     109.271 eV)
    79      79      2.000     -24.402 au  F             1.00      1 S               4
                        (    -664.014 eV)
    80      80      2.000      -1.095 au  F             1.00      2 S               4
                        (     -29.785 eV)
    81      81       --         0.023 au  F             1.00      3 S               4
                        (       0.624 eV)
    82      82       --         1.576 au  F             1.00      4 S               4
                        (      42.880 eV)
    83      83       --        47.803 au  F             1.00      5 S               4
                        (    1300.785 eV)
    84      84      1.667      -0.409 au  F             1.00      1 P:x             4
                        (     -11.127 eV)
    85      85       --         0.428 au  F             1.00      2 P:x             4
                        (      11.654 eV)
    86      86       --         4.556 au  F             1.00      3 P:x             4
                        (     123.977 eV)
    87      87      1.667      -0.409 au  F             1.00      1 P:y             4
                        (     -11.127 eV)
    88      88       --         0.428 au  F             1.00      2 P:y             4
                        (      11.654 eV)
    89      89       --         4.556 au  F             1.00      3 P:y             4
                        (     123.977 eV)
    90      90      1.667      -0.409 au  F             1.00      1 P:z             4
                        (     -11.127 eV)
    91      91       --         0.428 au  F             1.00      2 P:z             4
                        (      11.654 eV)
    92      92       --         4.556 au  F             1.00      3 P:z             4
                        (     123.977 eV)
    93      93       --         1.117 au  F             1.00      1 D:z2            4
                        (      30.390 eV)
    94      94       --         1.117 au  F             1.00      1 D:x2-y2         4
                        (      30.390 eV)
    95      95       --         1.117 au  F             1.00      1 D:xy            4
                        (      30.390 eV)
    96      96       --         1.117 au  F             1.00      1 D:xz            4
                        (      30.390 eV)
    97      97       --         1.117 au  F             1.00      1 D:yz            4
                        (      30.390 eV)
    98      98       --         3.416 au  F             1.00      1 F:z3            4
                        (      92.949 eV)
    99      99       --         3.416 au  F             1.00      1 F:z             4
                        (      92.949 eV)
   100     100       --         3.416 au  F             1.00      1 F:xyz           4
                        (      92.949 eV)
   101     101       --         3.416 au  F             1.00      1 F:z2x           4
                        (      92.949 eV)
   102     102       --         3.416 au  F             1.00      1 F:z2y           4
                        (      92.949 eV)
   103     103       --         3.416 au  F             1.00      1 F:x             4
                        (      92.949 eV)
   104     104       --         3.416 au  F             1.00      1 F:y             4
                        (      92.949 eV)
   105     105      1.000      -0.240 au  H             1.00      1 S               5
                        (      -6.532 eV)
   106     106       --         0.088 au  H             1.00      2 S               5
                        (       2.394 eV)
   107     107       --         1.502 au  H             1.00      3 S               5
                        (      40.869 eV)
   108     108       --         0.406 au  H             1.00      1 P:x             5
                        (      11.051 eV)
   109     109       --         0.406 au  H             1.00      1 P:y             5
                        (      11.051 eV)
   110     110       --         0.406 au  H             1.00      1 P:z             5
                        (      11.051 eV)
   111     111       --         2.569 au  H             1.00      1 D:z2            5
                        (      69.917 eV)
   112     112       --         2.569 au  H             1.00      1 D:x2-y2         5
                        (      69.917 eV)
   113     113       --         2.569 au  H             1.00      1 D:xy            5
                        (      69.917 eV)
   114     114       --         2.569 au  H             1.00      1 D:xz            5
                        (      69.917 eV)
   115     115       --         2.569 au  H             1.00      1 D:yz            5
                        (      69.917 eV)
   116     116      1.000      -0.240 au  H             1.00      1 S               6
                        (      -6.532 eV)
   117     117       --         0.088 au  H             1.00      2 S               6
                        (       2.394 eV)
   118     118       --         1.502 au  H             1.00      3 S               6
                        (      40.869 eV)
   119     119       --         0.406 au  H             1.00      1 P:x             6
                        (      11.051 eV)
   120     120       --         0.406 au  H             1.00      1 P:y             6
                        (      11.051 eV)
   121     121       --         0.406 au  H             1.00      1 P:z             6
                        (      11.051 eV)
   122     122       --         2.569 au  H             1.00      1 D:z2            6
                        (      69.917 eV)
   123     123       --         2.569 au  H             1.00      1 D:x2-y2         6
                        (      69.917 eV)
   124     124       --         2.569 au  H             1.00      1 D:xy            6
                        (      69.917 eV)
   125     125       --         2.569 au  H             1.00      1 D:xz            6
                        (      69.917 eV)
   126     126       --         2.569 au  H             1.00      1 D:yz            6
                        (      69.917 eV)
   127     127      1.000      -0.240 au  H             1.00      1 S               7
                        (      -6.532 eV)
   128     128       --         0.088 au  H             1.00      2 S               7
                        (       2.394 eV)
   129     129       --         1.502 au  H             1.00      3 S               7
                        (      40.869 eV)
   130     130       --         0.406 au  H             1.00      1 P:x             7
                        (      11.051 eV)
   131     131       --         0.406 au  H             1.00      1 P:y             7
                        (      11.051 eV)
   132     132       --         0.406 au  H             1.00      1 P:z             7
                        (      11.051 eV)
   133     133       --         2.569 au  H             1.00      1 D:z2            7
                        (      69.917 eV)
   134     134       --         2.569 au  H             1.00      1 D:x2-y2         7
                        (      69.917 eV)
   135     135       --         2.569 au  H             1.00      1 D:xy            7
                        (      69.917 eV)
   136     136       --         2.569 au  H             1.00      1 D:xz            7
                        (      69.917 eV)
   137     137       --         2.569 au  H             1.00      1 D:yz            7
                        (      69.917 eV)
   138     138      2.000     -14.160 au  N             1.00      1 S               8
                        (    -385.319 eV)
   139     139      2.000      -0.678 au  N             1.00      2 S               8
                        (     -18.450 eV)
   140     140       --         0.517 au  N             1.00      3 S               8
                        (      14.073 eV)
   141     141       --         6.872 au  N             1.00      4 S               8
                        (     186.990 eV)
   142     142       --        63.432 au  N             1.00      5 S               8
                        (    1726.082 eV)
   143     143      1.000      -0.260 au  N             1.00      1 P:x             8
                        (      -7.062 eV)
   144     144       --         0.281 au  N             1.00      2 P:x             8
                        (       7.649 eV)
   145     145       --         3.275 au  N             1.00      3 P:x             8
                        (      89.105 eV)
   146     146      1.000      -0.260 au  N             1.00      1 P:y             8
                        (      -7.062 eV)
   147     147       --         0.281 au  N             1.00      2 P:y             8
                        (       7.649 eV)
   148     148       --         3.275 au  N             1.00      3 P:y             8
                        (      89.105 eV)
   149     149      1.000      -0.260 au  N             1.00      1 P:z             8
                        (      -7.062 eV)
   150     150       --         0.281 au  N             1.00      2 P:z             8
                        (       7.649 eV)
   151     151       --         3.275 au  N             1.00      3 P:z             8
                        (      89.105 eV)
   152     152       --         1.250 au  N             1.00      1 D:z2            8
                        (      34.005 eV)
   153     153       --         1.250 au  N             1.00      1 D:x2-y2         8
                        (      34.005 eV)
   154     154       --         1.250 au  N             1.00      1 D:xy            8
                        (      34.005 eV)
   155     155       --         1.250 au  N             1.00      1 D:xz            8
                        (      34.005 eV)
   156     156       --         1.250 au  N             1.00      1 D:yz            8
                        (      34.005 eV)
   157     157       --         4.013 au  N             1.00      1 F:z3            8
                        (     109.190 eV)
   158     158       --         4.013 au  N             1.00      1 F:z             8
                        (     109.190 eV)
   159     159       --         4.013 au  N             1.00      1 F:xyz           8
                        (     109.190 eV)
   160     160       --         4.013 au  N             1.00      1 F:z2x           8
                        (     109.190 eV)
   161     161       --         4.013 au  N             1.00      1 F:z2y           8
                        (     109.190 eV)
   162     162       --         4.013 au  N             1.00      1 F:x             8
                        (     109.190 eV)
   163     163       --         4.013 au  N             1.00      1 F:y             8
                        (     109.190 eV)
   164     164      2.000     -14.160 au  N             1.00      1 S               9
                        (    -385.319 eV)
   165     165      2.000      -0.678 au  N             1.00      2 S               9
                        (     -18.450 eV)
   166     166       --         0.517 au  N             1.00      3 S               9
                        (      14.073 eV)
   167     167       --         6.872 au  N             1.00      4 S               9
                        (     186.990 eV)
   168     168       --        63.432 au  N             1.00      5 S               9
                        (    1726.082 eV)
   169     169      1.000      -0.260 au  N             1.00      1 P:x             9
                        (      -7.062 eV)
   170     170       --         0.281 au  N             1.00      2 P:x             9
                        (       7.649 eV)
   171     171       --         3.275 au  N             1.00      3 P:x             9
                        (      89.105 eV)
   172     172      1.000      -0.260 au  N             1.00      1 P:y             9
                        (      -7.062 eV)
   173     173       --         0.281 au  N             1.00      2 P:y             9
                        (       7.649 eV)
   174     174       --         3.275 au  N             1.00      3 P:y             9
                        (      89.105 eV)
   175     175      1.000      -0.260 au  N             1.00      1 P:z             9
                        (      -7.062 eV)
   176     176       --         0.281 au  N             1.00      2 P:z             9
                        (       7.649 eV)
   177     177       --         3.275 au  N             1.00      3 P:z             9
                        (      89.105 eV)
   178     178       --         1.250 au  N             1.00      1 D:z2            9
                        (      34.005 eV)
   179     179       --         1.250 au  N             1.00      1 D:x2-y2         9
                        (      34.005 eV)
   180     180       --         1.250 au  N             1.00      1 D:xy            9
                        (      34.005 eV)
   181     181       --         1.250 au  N             1.00      1 D:xz            9
                        (      34.005 eV)
   182     182       --         1.250 au  N             1.00      1 D:yz            9
                        (      34.005 eV)
   183     183       --         4.013 au  N             1.00      1 F:z3            9
                        (     109.190 eV)
   184     184       --         4.013 au  N             1.00      1 F:z             9
                        (     109.190 eV)
   185     185       --         4.013 au  N             1.00      1 F:xyz           9
                        (     109.190 eV)
   186     186       --         4.013 au  N             1.00      1 F:z2x           9
                        (     109.190 eV)
   187     187       --         4.013 au  N             1.00      1 F:z2y           9
                        (     109.190 eV)
   188     188       --         4.013 au  N             1.00      1 F:x             9
                        (     109.190 eV)
   189     189       --         4.013 au  N             1.00      1 F:y             9
                        (     109.190 eV)
   190     190      2.000     -18.941 au  O             1.00      1 S              10
                        (    -515.403 eV)
   191     191      2.000      -0.876 au  O             1.00      2 S              10
                        (     -23.838 eV)
   192     192       --         0.791 au  O             1.00      3 S              10
                        (      21.524 eV)
   193     193       --        13.422 au  O             1.00      4 S              10
                        (     365.226 eV)
   194     194       --       121.561 au  O             1.00      5 S              10
                        (    3307.838 eV)
   195     195      1.333      -0.331 au  O             1.00      1 P:x            10
                        (      -9.020 eV)
   196     196       --         0.347 au  O             1.00      2 P:x            10
                        (       9.437 eV)
   197     197       --         3.820 au  O             1.00      3 P:x            10
                        (     103.939 eV)
   198     198      1.333      -0.331 au  O             1.00      1 P:y            10
                        (      -9.020 eV)
   199     199       --         0.347 au  O             1.00      2 P:y            10
                        (       9.437 eV)
   200     200       --         3.820 au  O             1.00      3 P:y            10
                        (     103.939 eV)
   201     201      1.333      -0.331 au  O             1.00      1 P:z            10
                        (      -9.020 eV)
   202     202       --         0.347 au  O             1.00      2 P:z            10
                        (       9.437 eV)
   203     203       --         3.820 au  O             1.00      3 P:z            10
                        (     103.939 eV)
   204     204       --         1.071 au  O             1.00      1 D:z2           10
                        (      29.134 eV)
   205     205       --         1.071 au  O             1.00      1 D:x2-y2        10
                        (      29.134 eV)
   206     206       --         1.071 au  O             1.00      1 D:xy           10
                        (      29.134 eV)
   207     207       --         1.071 au  O             1.00      1 D:xz           10
                        (      29.134 eV)
   208     208       --         1.071 au  O             1.00      1 D:yz           10
                        (      29.134 eV)
   209     209       --         3.359 au  O             1.00      1 F:z3           10
                        (      91.410 eV)
   210     210       --         3.359 au  O             1.00      1 F:z            10
                        (      91.410 eV)
   211     211       --         3.359 au  O             1.00      1 F:xyz          10
                        (      91.410 eV)
   212     212       --         3.359 au  O             1.00      1 F:z2x          10
                        (      91.410 eV)
   213     213       --         3.359 au  O             1.00      1 F:z2y          10
                        (      91.410 eV)
   214     214       --         3.359 au  O             1.00      1 F:x            10
                        (      91.410 eV)
   215     215       --         3.359 au  O             1.00      1 F:y            10
                        (      91.410 eV)
   216     216      2.000     -18.941 au  O             1.00      1 S              11
                        (    -515.403 eV)
   217     217      2.000      -0.876 au  O             1.00      2 S              11
                        (     -23.838 eV)
   218     218       --         0.791 au  O             1.00      3 S              11
                        (      21.524 eV)
   219     219       --        13.422 au  O             1.00      4 S              11
                        (     365.226 eV)
   220     220       --       121.561 au  O             1.00      5 S              11
                        (    3307.838 eV)
   221     221      1.333      -0.331 au  O             1.00      1 P:x            11
                        (      -9.020 eV)
   222     222       --         0.347 au  O             1.00      2 P:x            11
                        (       9.437 eV)
   223     223       --         3.820 au  O             1.00      3 P:x            11
                        (     103.939 eV)
   224     224      1.333      -0.331 au  O             1.00      1 P:y            11
                        (      -9.020 eV)
   225     225       --         0.347 au  O             1.00      2 P:y            11
                        (       9.437 eV)
   226     226       --         3.820 au  O             1.00      3 P:y            11
                        (     103.939 eV)
   227     227      1.333      -0.331 au  O             1.00      1 P:z            11
                        (      -9.020 eV)
   228     228       --         0.347 au  O             1.00      2 P:z            11
                        (       9.437 eV)
   229     229       --         3.820 au  O             1.00      3 P:z            11
                        (     103.939 eV)
   230     230       --         1.071 au  O             1.00      1 D:z2           11
                        (      29.134 eV)
   231     231       --         1.071 au  O             1.00      1 D:x2-y2        11
                        (      29.134 eV)
   232     232       --         1.071 au  O             1.00      1 D:xy           11
                        (      29.134 eV)
   233     233       --         1.071 au  O             1.00      1 D:xz           11
                        (      29.134 eV)
   234     234       --         1.071 au  O             1.00      1 D:yz           11
                        (      29.134 eV)
   235     235       --         3.359 au  O             1.00      1 F:z3           11
                        (      91.410 eV)
   236     236       --         3.359 au  O             1.00      1 F:z            11
                        (      91.410 eV)
   237     237       --         3.359 au  O             1.00      1 F:xyz          11
                        (      91.410 eV)
   238     238       --         3.359 au  O             1.00      1 F:z2x          11
                        (      91.410 eV)
   239     239       --         3.359 au  O             1.00      1 F:z2y          11
                        (      91.410 eV)
   240     240       --         3.359 au  O             1.00      1 F:x            11
                        (      91.410 eV)
   241     241       --         3.359 au  O             1.00      1 F:y            11
                        (      91.410 eV)



 ================================
 (Slater-type)  F U N C T I O N S  ***  (Basis and Fit)  ***
 ================================
  

 Atom Type    1  (C)
 ==============

 Valence Basis Sets:  10
 -----------------------
   1 S    7.680000
   1 S    5.000000
   2 S    1.280000
   2 S    2.100000
   2 S    4.600000
   2 P    0.820000
   2 P    1.480000
   2 P    2.940000
   3 D    2.200000
   4 F    3.300000

 Atom Type    2  (F)
 ==============

 Valence Basis Sets:  10
 -----------------------
   1 S   10.880000
   1 S    7.700000
   2 S    3.240000
   2 S    1.940000
   2 S    0.740000
   2 P    4.540000
   2 P    2.300000
   2 P    1.240000
   3 D    2.000000
   4 F    3.000000

 Atom Type    3  (H)
 ==============

 Valence Basis Sets:   5
 -----------------------
   1 S    0.690000
   1 S    0.920000
   1 S    1.580000
   2 P    1.250000
   3 D    2.500000

 Atom Type    4  (N)
 ==============

 Valence Basis Sets:  10
 -----------------------
   1 S    8.740000
   1 S    5.900000
   2 S    5.150000
   2 S    2.500000
   2 S    1.500000
   2 P    3.680000
   2 P    1.880000
   2 P    1.000000
   3 D    2.200000
   4 F    3.300000

 Atom Type    5  (O)
 ==============

 Valence Basis Sets:  10
 -----------------------
   1 S    9.800000
   1 S    6.800000
   2 S    7.580000
   2 S    2.880000
   2 S    1.720000
   2 P    4.080000
   2 P    2.080000
   2 P    1.120000
   3 D    2.000000
   4 F    3.000000


 BAS: List of all Elementary Cartesian Basis Functions
 =====================================================

 The numbering in the list below (to the right of the function characteristics) is referred
 to in print-outs of MO eigenvectors and Mulliken populations in the BAS representation
 (as contrasted to the SFO representation).

 Notes:
 1. The functions are characterized by a polynomial prefactor (powers of x,y,z and r) and
    an exponential decay factor alpha.
 2. Since the basis sets are specific for an atom TYPE, the individual functions occur on
    all atoms of that type.
 3. The word 'Core' in the left margin signals that it is a Core Function (CF) : not a
    degree of freedom in the valence set, but only used to ensure orthogonalization of
    the other valence basis functions on the frozen Core Orbitals.


 (power of) X  Y  Z  R     Alpha  on Atom
            ==========     =====     ==========

 C                                    1    2    3
                                  ---------------------------------------------------------------------------
            0  0  0  0     7.680      1   31   61
            0  0  0  0     5.000      2   32   62
            0  0  0  1     1.280      3   33   63
            0  0  0  1     2.100      4   34   64
            0  0  0  1     4.600      5   35   65
            1  0  0  0     0.820      6   36   66
            0  1  0  0     0.820      7   37   67
            0  0  1  0     0.820      8   38   68
            1  0  0  0     1.480      9   39   69
            0  1  0  0     1.480     10   40   70
            0  0  1  0     1.480     11   41   71
            1  0  0  0     2.940     12   42   72
            0  1  0  0     2.940     13   43   73
            0  0  1  0     2.940     14   44   74
            2  0  0  0     2.200     15   45   75
            1  1  0  0     2.200     16   46   76
            1  0  1  0     2.200     17   47   77
            0  2  0  0     2.200     18   48   78
            0  1  1  0     2.200     19   49   79
            0  0  2  0     2.200     20   50   80
            3  0  0  0     3.300     21   51   81
            2  1  0  0     3.300     22   52   82
            2  0  1  0     3.300     23   53   83
            1  2  0  0     3.300     24   54   84
            1  1  1  0     3.300     25   55   85
            1  0  2  0     3.300     26   56   86
            0  3  0  0     3.300     27   57   87
            0  2  1  0     3.300     28   58   88
            0  1  2  0     3.300     29   59   89
            0  0  3  0     3.300     30   60   90

 F                                    4
                                  ---------------------------------------------------------------------------
            0  0  0  0    10.880     91
            0  0  0  0     7.700     92
            0  0  0  1     3.240     93
            0  0  0  1     1.940     94
            0  0  0  1     0.740     95
            1  0  0  0     4.540     96
            0  1  0  0     4.540     97
            0  0  1  0     4.540     98
            1  0  0  0     2.300     99
            0  1  0  0     2.300    100
            0  0  1  0     2.300    101
            1  0  0  0     1.240    102
            0  1  0  0     1.240    103
            0  0  1  0     1.240    104
            2  0  0  0     2.000    105
            1  1  0  0     2.000    106
            1  0  1  0     2.000    107
            0  2  0  0     2.000    108
            0  1  1  0     2.000    109
            0  0  2  0     2.000    110
            3  0  0  0     3.000    111
            2  1  0  0     3.000    112
            2  0  1  0     3.000    113
            1  2  0  0     3.000    114
            1  1  1  0     3.000    115
            1  0  2  0     3.000    116
            0  3  0  0     3.000    117
            0  2  1  0     3.000    118
            0  1  2  0     3.000    119
            0  0  3  0     3.000    120

 H                                    5    6    7
                                  ---------------------------------------------------------------------------
            0  0  0  0     0.690    121  133  145
            0  0  0  0     0.920    122  134  146
            0  0  0  0     1.580    123  135  147
            1  0  0  0     1.250    124  136  148
            0  1  0  0     1.250    125  137  149
            0  0  1  0     1.250    126  138  150
            2  0  0  0     2.500    127  139  151
            1  1  0  0     2.500    128  140  152
            1  0  1  0     2.500    129  141  153
            0  2  0  0     2.500    130  142  154
            0  1  1  0     2.500    131  143  155
            0  0  2  0     2.500    132  144  156

 N                                    8    9
                                  ---------------------------------------------------------------------------
            0  0  0  0     8.740    157  187
            0  0  0  0     5.900    158  188
            0  0  0  1     5.150    159  189
            0  0  0  1     2.500    160  190
            0  0  0  1     1.500    161  191
            1  0  0  0     3.680    162  192
            0  1  0  0     3.680    163  193
            0  0  1  0     3.680    164  194
            1  0  0  0     1.880    165  195
            0  1  0  0     1.880    166  196
            0  0  1  0     1.880    167  197
            1  0  0  0     1.000    168  198
            0  1  0  0     1.000    169  199
            0  0  1  0     1.000    170  200
            2  0  0  0     2.200    171  201
            1  1  0  0     2.200    172  202
            1  0  1  0     2.200    173  203
            0  2  0  0     2.200    174  204
            0  1  1  0     2.200    175  205
            0  0  2  0     2.200    176  206
            3  0  0  0     3.300    177  207
            2  1  0  0     3.300    178  208
            2  0  1  0     3.300    179  209
            1  2  0  0     3.300    180  210
            1  1  1  0     3.300    181  211
            1  0  2  0     3.300    182  212
            0  3  0  0     3.300    183  213
            0  2  1  0     3.300    184  214
            0  1  2  0     3.300    185  215
            0  0  3  0     3.300    186  216

 O                                   10   11
                                  ---------------------------------------------------------------------------
            0  0  0  0     9.800    217  247
            0  0  0  0     6.800    218  248
            0  0  0  1     7.580    219  249
            0  0  0  1     2.880    220  250
            0  0  0  1     1.720    221  251
            1  0  0  0     4.080    222  252
            0  1  0  0     4.080    223  253
            0  0  1  0     4.080    224  254
            1  0  0  0     2.080    225  255
            0  1  0  0     2.080    226  256
            0  0  1  0     2.080    227  257
            1  0  0  0     1.120    228  258
            0  1  0  0     1.120    229  259
            0  0  1  0     1.120    230  260
            2  0  0  0     2.000    231  261
            1  1  0  0     2.000    232  262
            1  0  1  0     2.000    233  263
            0  2  0  0     2.000    234  264
            0  1  1  0     2.000    235  265
            0  0  2  0     2.000    236  266
            3  0  0  0     3.000    237  267
            2  1  0  0     3.000    238  268
            2  0  1  0     3.000    239  269
            1  2  0  0     3.000    240  270
            1  1  1  0     3.000    241  271
            1  0  2  0     3.000    242  272
            0  3  0  0     3.000    243  273
            0  2  1  0     3.000    244  274
            0  1  2  0     3.000    245  275
            0  0  3  0     3.000    246  276

 Total number of charge fitting functions (nprimf)       823
 Total number of Cartesian basis functions (naos)        276
 Total number of Cartesian core functions  (ncos)          0

 ***************************************************************************************************



                                              ***********************
                                              *  T E C H N I C A L  *
                                              ***********************
  



 =============================================================
 P A R A L L E L I Z A T I O N  and  V E C T O R I Z A T I O N
 =============================================================
  
 Nr of parallel processes:                                1
 Maximum vector length in NumInt loops:                 128



 =====================
 S C F   U P D A T E S
 =====================
  
 Max. nr. of cycles:                               200
 Convergence criterion:                              0.0000010000
   secondary criterion:                              0.0010000000

 Mix parameter (when DIIS does not apply):           0.2000000000
 Mixed ADIIS+SDIIS will be used                  
    Max number of expansion vectors:                10
    Pure ADIIS when Max([F,P]) is above              0.1000000000
    Pure SDIIS when Max([F,P]) is below              0.0010000000
 Automatic ElectronSmearing (in case of problematic SCF convergence) disabled



 =================
 P R E C I S I O N  ***  (General: NumInt, NeglectFunctionTails, ...)  ***
 =================
  

 NumInt:           Target precision:                 4.0000000000
 -------           Initial precision:                4.0000000000
                   Min. precision (optimization):    4.0000000000

 Neglect Functions:          Basis functions:        0.1000000000E-05
 ------------------          Fit functions:          0.1000000000E-05



 ===========================
 L I N E A R   S C A L I N G
 ===========================
  

 Cut-off radii density fit:                        0.1000000000E-07
 Overlap cut-off criterion AO matrix elements:     0.1000000000E-05
 Cut-offs for Coulomb potential and fitted density:0.1000000000E-07
 Cut-off criterion for Coulomb multipole terms:    0.1000000000E-07
 Progressive Convergence parameter:                 0.000000000    
 ***************************************************************************************************



                                            ***************************
                                            *  C O M P U T A T I O N  *
                                            ***************************
  

 Number of elements of the density matrix on this node (used, total):     38226     38226



 ===========================================
 Numerical Integration : Fuzzy Cells (Becke)
 ===========================================
  
 Becke grid quality: NORMAL         
  
 Lebedev angular grid order:             min:  11 max:  23
 Nr. of radial points:                   min:  46 max:  55

 Total nr. of points:      74107
 Nr. of blocks:              579
 Block length:               128
 Nr. of dummy points:          5


 Test of Precision of the Numerical Integration Grid
 ===================================================

 Integral of the Total Core Density:                   0.00000000000000



 ========================
 Density Fitting (zlmFit)
 ========================
  
 ZlmFit Fit Quality: NORMAL         
  
 Max L-expansion:                        min:   6 max:   7
 Nr. of radial interpolation points:     min:  39 max:  54



 =====
 S C F  ***  ScaSCF  ***
 =====
  
 Initial density matrix is calculated as sum of fragments

 CYCLE    1
 SCF Error: norm([F,P])=      6.414280061651, max([F,P])=      1.428156249328
 orbitals (Q,E):
 ---------------
 A :21...40          ( 2.00    -0.5271)  ( 2.00    -0.5066)  ( 2.00    -0.4879)  ( 2.00    -0.4651)
                     ( 2.00    -0.4533)  ( 2.00    -0.4361)  ( 2.00    -0.4284)  ( 2.00    -0.3910)
                     ( 2.00    -0.3774)  ( 2.00    -0.3742)  ( 0.00    -0.1884)  ( 0.00    -0.1534)
                     ( 0.00    -0.1429)  ( 0.00    -0.0594)  ( 0.00    -0.0416)  ( 0.00    -0.0253)
                     ( 0.00    -0.0051)  ( 0.00     0.0086)  ( 0.00     0.0261)  ( 0.00     0.0555)

 CYCLE    2
   MIX coefficients:  0.8000  0.2000
 SCF Error: norm([F,P])=      1.168957889758, max([F,P])=      0.184279215225
 orbitals (Q,E):
 ---------------
 A :21...31          ( 2.00    -0.5108)  ( 2.00    -0.4847)  ( 2.00    -0.4390)  ( 2.00    -0.4225)
                     ( 2.00    -0.4153)  ( 2.00    -0.3884)  ( 2.00    -0.3852)  ( 2.00    -0.3527)
                     ( 2.00    -0.3447)  ( 2.00    -0.3331)  ( 0.00    -0.1799)

 CYCLE    3
  SDIIS (wt  0.000): -0.3661  1.3661
 A-DIIS (wt  1.000):  0.0000  1.0000
  DIIS coefficients:  0.0000  1.0000
 SCF Error: norm([F,P])=      0.466633284506, max([F,P])=      0.087006419759
 orbitals (Q,E):
 ---------------
 A :21...31          ( 2.00    -0.4184)  ( 2.00    -0.3885)  ( 2.00    -0.3573)  ( 2.00    -0.3311)
                     ( 2.00    -0.2732)  ( 2.00    -0.2710)  ( 2.00    -0.2582)  ( 2.00    -0.2525)
                     ( 2.00    -0.2477)  ( 2.00    -0.2332)  ( 0.00    -0.1195)

 CYCLE    4
  SDIIS (wt  0.000):  0.1743  0.3437  0.4819
 A-DIIS (wt  1.000):  0.0000  0.6587  0.3413
  DIIS coefficients:  0.0000  0.6587  0.3413
 SCF Error: norm([F,P])=      0.724537978623, max([F,P])=      0.127925334757
 orbitals (Q,E):
 ---------------
 A :21...31          ( 2.00    -0.4504)  ( 2.00    -0.4174)  ( 2.00    -0.3844)  ( 2.00    -0.3598)
                     ( 2.00    -0.3261)  ( 2.00    -0.3120)  ( 2.00    -0.3039)  ( 2.00    -0.2978)
                     ( 2.00    -0.2864)  ( 2.00    -0.2744)  ( 0.00    -0.1333)

 CYCLE    5
  SDIIS (wt  0.617): -0.0441  0.3750  0.1697  0.4993
 A-DIIS (wt  0.383):  0.0000  0.0000  0.0000  1.0000
  DIIS coefficients: -0.0272  0.2315  0.1048  0.6909
 SCF Error: norm([F,P])=      0.178669084570, max([F,P])=      0.038887815451
 orbitals (Q,E):
 ---------------
 A :21...31          ( 2.00    -0.4726)  ( 2.00    -0.4390)  ( 2.00    -0.3996)  ( 2.00    -0.3775)
                     ( 2.00    -0.3402)  ( 2.00    -0.3268)  ( 2.00    -0.3219)  ( 2.00    -0.3090)
                     ( 2.00    -0.2980)  ( 2.00    -0.2787)  ( 0.00    -0.1508)

 CYCLE    6
  SDIIS (wt  0.000): -0.0213  0.1976  0.0696  0.5090  0.2451
 A-DIIS (wt  1.000):  0.0000  0.0000  0.0000  0.6050  0.3950
  DIIS coefficients:  0.0000  0.0000  0.0000  0.6050  0.3950
 SCF Error: norm([F,P])=      0.246110934824, max([F,P])=      0.063763771201
 orbitals (Q,E):
 ---------------
 A :21...31          ( 2.00    -0.4680)  ( 2.00    -0.4350)  ( 2.00    -0.3964)  ( 2.00    -0.3734)
                     ( 2.00    -0.3447)  ( 2.00    -0.3276)  ( 2.00    -0.3227)  ( 2.00    -0.3116)
                     ( 2.00    -0.2993)  ( 2.00    -0.2802)  ( 0.00    -0.1480)

 CYCLE    7
  SDIIS (wt  0.670):  0.0124  0.0616  0.0345  0.4066  0.3003  0.1846
 A-DIIS (wt  0.330):  0.0000  0.0000  0.0000  0.3687  0.2981  0.3332
  DIIS coefficients:  0.0083  0.0413  0.0231  0.3941  0.2996  0.2336
 SCF Error: norm([F,P])=      0.163267561888, max([F,P])=      0.033659080967
 orbitals (Q,E):
 ---------------
 A :21...31          ( 2.00    -0.4639)  ( 2.00    -0.4300)  ( 2.00    -0.3935)  ( 2.00    -0.3705)
                     ( 2.00    -0.3380)  ( 2.00    -0.3214)  ( 2.00    -0.3165)  ( 2.00    -0.3082)
                     ( 2.00    -0.2946)  ( 2.00    -0.2810)  ( 0.00    -0.1444)

 CYCLE    8
  SDIIS (wt  0.916): -0.0068  0.0297  0.0053  0.1984  0.1328  0.1931  0.4474
 A-DIIS (wt  0.084):  0.0000  0.0000  0.0000  0.0000  0.0000  0.1406  0.8594
  DIIS coefficients: -0.0062  0.0272  0.0048  0.1817  0.1217  0.1887  0.4820
 SCF Error: norm([F,P])=      0.045804581901, max([F,P])=      0.009303002162
 orbitals (Q,E):
 ---------------
 A :21...31          ( 2.00    -0.4640)  ( 2.00    -0.4304)  ( 2.00    -0.3935)  ( 2.00    -0.3704)
                     ( 2.00    -0.3373)  ( 2.00    -0.3208)  ( 2.00    -0.3159)  ( 2.00    -0.3074)
                     ( 2.00    -0.2937)  ( 2.00    -0.2801)  ( 0.00    -0.1440)

 CYCLE    9
  SDIIS (wt  0.996): -0.0003  0.0057  0.0026  0.0680  0.0490  0.0848  0.2734  0.5168
 A-DIIS (wt  0.004):  0.0000  0.0000  0.0000  0.0000  0.0000  0.0000  0.0413  0.9587
  DIIS coefficients: -0.0003  0.0057  0.0026  0.0677  0.0488  0.0844  0.2725  0.5186
 SCF Error: norm([F,P])=      0.007260990963, max([F,P])=      0.001402797075
 orbitals (Q,E):
 ---------------
 A :21...31          ( 2.00    -0.4639)  ( 2.00    -0.4302)  ( 2.00    -0.3935)  ( 2.00    -0.3704)
                     ( 2.00    -0.3379)  ( 2.00    -0.3212)  ( 2.00    -0.3163)  ( 2.00    -0.3077)
                     ( 2.00    -0.2939)  ( 2.00    -0.2804)  ( 0.00    -0.1442)

 CYCLE   10
  SDIIS (wt  1.000): -0.0007  0.0018  0.0001  0.0165  0.0111  0.0231  0.0926  0.2728  0.5828
  DIIS coefficients: -0.0007  0.0018  0.0001  0.0165  0.0111  0.0231  0.0926  0.2728  0.5828
 SCF Error: norm([F,P])=      0.001249186835, max([F,P])=      0.000359096874
 orbitals (Q,E):
 ---------------
 A :21...31          ( 2.00    -0.4639)  ( 2.00    -0.4303)  ( 2.00    -0.3935)  ( 2.00    -0.3704)
                     ( 2.00    -0.3378)  ( 2.00    -0.3211)  ( 2.00    -0.3162)  ( 2.00    -0.3076)
                     ( 2.00    -0.2939)  ( 2.00    -0.2803)  ( 0.00    -0.1442)

 CYCLE   11
  SDIIS (wt  1.000): -0.0003  0.0004 -0.0001  0.0034  0.0021  0.0055  0.0275  0.1102  0.3161  0.5350
  DIIS coefficients: -0.0003  0.0004 -0.0001  0.0034  0.0021  0.0055  0.0275  0.1102  0.3161  0.5350
 SCF Error: norm([F,P])=      0.000297642838, max([F,P])=      0.000052750018
 orbitals (Q,E):
 ---------------
 A :21...31          ( 2.00    -0.4639)  ( 2.00    -0.4303)  ( 2.00    -0.3935)  ( 2.00    -0.3704)
                     ( 2.00    -0.3378)  ( 2.00    -0.3211)  ( 2.00    -0.3162)  ( 2.00    -0.3076)
                     ( 2.00    -0.2939)  ( 2.00    -0.2803)  ( 0.00    -0.1442)

 CYCLE   12
  SDIIS (wt  1.000): -0.0000  0.0000  0.0003  0.0002  0.0008  0.0063  0.0382  0.1325  0.3419  0.4799
  DIIS coefficients: -0.0000  0.0000  0.0003  0.0002  0.0008  0.0063  0.0382  0.1325  0.3419  0.4799
 SCF Error: norm([F,P])=      0.000128140083, max([F,P])=      0.000029809002
 orbitals (Q,E):
 ---------------
 A :21...31          ( 2.00    -0.4639)  ( 2.00    -0.4303)  ( 2.00    -0.3935)  ( 2.00    -0.3704)
                     ( 2.00    -0.3378)  ( 2.00    -0.3211)  ( 2.00    -0.3162)  ( 2.00    -0.3076)
                     ( 2.00    -0.2939)  ( 2.00    -0.2803)  ( 0.00    -0.1442)

 CYCLE   13
  SDIIS (wt  1.000):  0.0000  0.0003  0.0001  0.0006  0.0038  0.0201  0.0703  0.1771  0.2689  0.4589
  DIIS coefficients:  0.0000  0.0003  0.0001  0.0006  0.0038  0.0201  0.0703  0.1771  0.2689  0.4589
 SCF Error: norm([F,P])=      0.000034286039, max([F,P])=      0.000007959144
 orbitals (Q,E):
 ---------------
 A :21...31          ( 2.00    -0.4639)  ( 2.00    -0.4303)  ( 2.00    -0.3935)  ( 2.00    -0.3704)
                     ( 2.00    -0.3378)  ( 2.00    -0.3211)  ( 2.00    -0.3162)  ( 2.00    -0.3076)
                     ( 2.00    -0.2939)  ( 2.00    -0.2803)  ( 0.00    -0.1442)

 CYCLE   14
  SDIIS (wt  1.000):  0.0000 -0.0000  0.0001  0.0008  0.0049  0.0192  0.0577  0.0998  0.2744  0.5431
  DIIS coefficients:  0.0000 -0.0000  0.0001  0.0008  0.0049  0.0192  0.0577  0.0998  0.2744  0.5431
 SCF Error: norm([F,P])=      0.000012185163, max([F,P])=      0.000003151326
 orbitals (Q,E):
 ---------------
 A :21...31          ( 2.00    -0.4639)  ( 2.00    -0.4303)  ( 2.00    -0.3935)  ( 2.00    -0.3704)
                     ( 2.00    -0.3378)  ( 2.00    -0.3211)  ( 2.00    -0.3162)  ( 2.00    -0.3076)
                     ( 2.00    -0.2939)  ( 2.00    -0.2803)  ( 0.00    -0.1442)

 CYCLE   15
  SDIIS (wt  1.000): -0.0000  0.0000  0.0002  0.0011  0.0048  0.0155  0.0280  0.1022  0.2861  0.5622
  DIIS coefficients: -0.0000  0.0000  0.0002  0.0011  0.0048  0.0155  0.0280  0.1022  0.2861  0.5622
 SCF Error: norm([F,P])=      0.000002870561, max([F,P])=      0.000000759061
 orbitals (Q,E):
 ---------------
 A :21...31          ( 2.00    -0.4639)  ( 2.00    -0.4303)  ( 2.00    -0.3935)  ( 2.00    -0.3704)
                     ( 2.00    -0.3378)  ( 2.00    -0.3211)  ( 2.00    -0.3162)  ( 2.00    -0.3076)
                     ( 2.00    -0.2939)  ( 2.00    -0.2803)  ( 0.00    -0.1442)

 SCF CONVERGED

 CYCLE   16
 ***************************************************************************************************



                                                *******************
                                                *  R E S U L T S  *
                                                *******************
  
 *** Using FIT density in Focky
  SDIIS (wt  1.000): -0.0000 -0.0000 -0.0002 -0.0008 -0.0020 -0.0026  0.0012  0.0414  0.2102  0.7528
  DIIS coefficients: -0.0000 -0.0000 -0.0002 -0.0008 -0.0020 -0.0026  0.0012  0.0414  0.2102  0.7528
 SCF Error: norm([F,P])=      0.000000636911, max([F,P])=      0.000000086163

 Scaled ZORA Orbital Energies, per Irrep and Spin:
 =================================================
                        Occup              E (au)              E (eV)       Diff (eV) with prev. cycle
                        -----      --------------------        ------       --------------------------
 A
              21        2.000     -0.46393843043632E+00       -12.624              -7.81E-07
              22        2.000     -0.43026370754380E+00       -11.708              -3.09E-07
              23        2.000     -0.39347836004609E+00       -10.707              -1.69E-06
              24        2.000     -0.37039248686978E+00       -10.079              -1.24E-06
              25        2.000     -0.33776003066747E+00        -9.191               1.31E-06
              26        2.000     -0.32112945951761E+00        -8.738               1.21E-07
              27        2.000     -0.31621460060139E+00        -8.605               5.57E-07
              28        2.000     -0.30764348337848E+00        -8.371              -8.12E-07
              29        2.000     -0.29391547887878E+00        -7.998              -1.79E-06
              30        2.000     -0.28032767553679E+00        -7.628              -2.08E-06
              31        0.000     -0.14419671916289E+00        -3.924
              32        0.000     -0.71714591884816E-01        -1.951
              33        0.000     -0.44709793606417E-01        -1.217
              34        0.000     -0.21393588684974E-01        -0.582
              35        0.000     -0.43302432735750E-02        -0.118
              36        0.000      0.83326481612336E-02         0.227
              37        0.000      0.23331497256525E-01         0.635
              38        0.000      0.43172936209438E-01         1.175
              39        0.000      0.52062969227764E-01         1.417
              40        0.000      0.89139376253795E-01         2.426
  
 HOMO :       30 A                -0.28032767553679E+00
 LUMO :       31 A                -0.14419671916289E+00
  


 All Electron Calculation, thus no Orbital Energies of the Core Orbitals are calculated


 Fit test: (difference of exact and fit density, squared integrated, result summed over spins)
         Sum-of-Fragments:                             0.00000000138390
         Orthogonalized Fragments:                     0.00008940482152
         SCF:                                          0.00016366907914



 ==========================
 Electron Density at Nuclei
 ==========================
  
 The electron density is calculated at points on a small sphere around the center of a nucleus.
 The printed electron density is the average electron density on these points.
 The radius of the sphere is the printed approximate finite nuclear radius.
 Note: ZORA-4 density is used, which includes small component density

         Atom        Nuclear Radius (Angstrom)             Electron Density (a.u.)
         ----        -------------------------             -----------------------
     1)   C                 0.0000320678                              127.11728
     2)   C                 0.0000320678                              126.96613
     3)   F                 0.0000361580                              450.74770
     4)   H                 0.0000181514                                0.45128
     5)   H                 0.0000181514                                0.50963
     6)   H                 0.0000181514                                0.50108
     7)   C                 0.0000320678                              127.37032
     8)   N                 0.0000333706                              206.99365
     9)   N                 0.0000333706                              206.17913
    10)   O                 0.0000345546                              314.41132
    11)   O                 0.0000345546                              314.36493



 =======================================
 M U L L I K E N   P O P U L A T I O N S
 =======================================
  
 The survey below gives for each atom:
 a) the total charge (Z minus electrons)
 b) the net spin polarization (nr of electrons spin-A minus spin-B)
 c) for each spin the atomic electron valence density (integrated) per L-value.

 Atom              Charge    Spin density          S         P         D         F
 ----              ------    ------------       ------    ------    ------    ------
 1 C               0.6801                       2.9070    2.2826    0.1222    0.0080
 2 C               0.3287                       2.9589    2.6499    0.0590    0.0035
 3 F              -0.3907                       3.9514    5.3987    0.0363    0.0043
 4 H              -0.0706                       0.9963    0.0690    0.0053    0.0000
 5 H              -0.1374                       1.0606    0.0709    0.0059    0.0000
 6 H              -0.1050                       1.0243    0.0749    0.0058    0.0000
 7 C               0.0923                       3.0799    2.7572    0.0617    0.0089
 8 N              -0.2242                       3.7401    3.4236    0.0561    0.0044
 9 N               0.5491                       3.2188    3.0005    0.2188    0.0129
 10 O             -0.3451                       3.8524    4.4175    0.0665    0.0088
 11 O             -0.3772                       3.8480    4.4525    0.0680    0.0087

 Populations of individual BAS functions
 ----------------------------------------
 1 C            0.5063  1.4850  0.0276  0.9325 -0.0443 -0.1204 -0.0814 -0.1574  0.6683  0.6884
                0.7598  0.1750  0.1679  0.1824  0.0134  0.0232  0.0227  0.0144  0.0239  0.0245
               -0.0012 -0.0001 -0.0009  0.0018  0.0011  0.0020  0.0005  0.0002  0.0017  0.0029
 2 C            0.5074  1.4823  0.1077  0.9013 -0.0398 -0.1049 -0.1058 -0.1075  0.8247  0.7984
                0.7860  0.1861  0.1913  0.1815  0.0032  0.0113  0.0084  0.0111  0.0113  0.0138
               -0.0010 -0.0005 -0.0021  0.0014  0.0005  0.0007  0.0014 -0.0005  0.0002  0.0036
 7 C            0.5053  1.4811  0.2749  0.8500 -0.0313  0.0509  0.0090  0.0804  0.6836  0.6892
                0.6807  0.1803  0.2143  0.1687  0.0030  0.0139  0.0069  0.0338  0.0131 -0.0089
               -0.0023 -0.0003  0.0002  0.0060  0.0015 -0.0015  0.0068  0.0055 -0.0029 -0.0042
 3 F            0.5917  1.3841  1.0928  0.8839 -0.0011  0.3538  0.3949  0.3941  0.9141  0.9853
                0.9869  0.4182  0.4810  0.4704  0.0147  0.0083  0.0089 -0.0011  0.0053  0.0001
                0.0060  0.0051  0.0054 -0.0025  0.0009 -0.0021 -0.0034 -0.0008 -0.0007 -0.0036
 4 H            0.0052  0.7201  0.2711  0.0366  0.0156  0.0169  0.0105  0.0013  0.0013 -0.0056
                0.0003 -0.0026
 5 H            0.0570  0.7000  0.3036  0.0321  0.0206  0.0182  0.0070  0.0016  0.0011  0.0006
                0.0008 -0.0053
 6 H            0.0478  0.6623  0.3142  0.0244  0.0302  0.0203 -0.0027  0.0015  0.0006  0.0082
                0.0013 -0.0031
 8 N            0.5468  1.4321 -0.0259  1.0290  0.7582  0.1684  0.1957  0.1532  0.7286  0.8021
                0.6860  0.2356  0.2230  0.2309  0.0055  0.0131  0.0064  0.0171  0.0126  0.0013
               -0.0016 -0.0007  0.0002  0.0039  0.0007 -0.0013  0.0051  0.0039 -0.0024 -0.0034
 9 N            0.5505  1.4316 -0.0404  1.0228  0.2542  0.1706  0.1738  0.1792  0.8056  0.8741
                0.7859  0.0601 -0.0425 -0.0062  0.0151  0.0250  0.0430  0.0324  0.0597  0.0435
               -0.0043 -0.0005 -0.0016  0.0025  0.0017  0.0055  0.0005  0.0003  0.0040  0.0047
 10 O           0.7104  1.2130  0.0479  1.0541  0.8271  0.2678  0.3272  0.2321  0.8231  0.9544
                0.7375  0.3624  0.4785  0.2344  0.0039  0.0041  0.0201 -0.0034  0.0138  0.0279
               -0.0043 -0.0001 -0.0038 -0.0044  0.0010  0.0109 -0.0088 -0.0088  0.0107  0.0163
 11 O           0.7106  1.2119  0.0491  1.0489  0.8276  0.2455  0.2816  0.3047  0.7650  0.8454
                0.8963  0.3140  0.3646  0.4353  0.0132  0.0157  0.0115  0.0102  0.0147  0.0026
                0.0014  0.0027  0.0034  0.0025  0.0017 -0.0017  0.0014  0.0035 -0.0014 -0.0049

 Gross Charges per Atom (Z minus electrons)
 ==========================================
             0.6801    0.3287   -0.3907   -0.0706   -0.1374   -0.1050    0.0923   -0.2242    0.5491   -0.3451
            -0.3772
 Net Total: -0.00000000


 Atom-Atom Population Matrix (off-diagonal elements not doubled)
 ===============================================================

     1 :     4.1808
     2 :     0.3828    4.2610
     3 :     0.2015   -0.0274    9.3302
     4 :    -0.0321    0.3708    0.0024    0.8586
     5 :     0.3616   -0.0569   -0.0572   -0.0386    0.9816
     6 :    -0.0285    0.3590   -0.0195   -0.0462   -0.0212    0.8990
     7 :    -0.0208    0.3972   -0.0028   -0.0283    0.0065   -0.0402    4.6995
     8 :    -0.0028   -0.0032   -0.0004   -0.0045   -0.0002   -0.0043    0.9055    6.3375
     9 :     0.3914   -0.0346   -0.0347    0.0014   -0.0226    0.0014   -0.0027   -0.0001    5.2077
    10 :    -0.0472    0.0062   -0.0086   -0.0002   -0.0057   -0.0008   -0.0014    0.0001    0.4751    8.0269
    11 :    -0.0667    0.0164    0.0072   -0.0127   -0.0099    0.0065   -0.0047   -0.0035    0.4685   -0.0992
             8.0754



 =================================================
 H I R S H F E L D   C H A R G E   A N A L Y S I S
 =================================================
  
 For each fragment: the (numerical) integral of rho(scf) * rho(fragment)/rho(sum-of-fragments)
 (nuclear charges are included, electrons are counted negative)

 The fragments and their ordering are defined in the early G E O M E T R Y output section.
 If you use single-atom fragments, this usually implies that all atoms of the same
 chemical type are grouped together. This may not be the order in which you listed them
 in the input file!

  Fragment                       Charge
 ------------------------------------------
    1  C                         0.1169
    2  C                        -0.0331
    3  C                         0.0723
    4  F                        -0.0879
    5  H                         0.0800
    6  H                         0.0686
    7  H                         0.0765
    8  N                        -0.1866
    9  N                         0.2032
   10  O                        -0.1549
   11  O                        -0.1550

 Sum of these charges =         -0.00007551
 (accuracy NumInt/Tails)



 =============================
 V O R O N O I   C H A R G E S
 =============================
  
 For each atom: the (numerical) integral of the total electronic charge density in its Voronoi cell,
 i.e. the region of space that is closer to that atom than to any other atom.
 (cf. Wigner-Seitz cells in crystals)

 Within the Voronoi cell the subintegrals over the atomic sphere and the remaining part are evaluated
 separately to give the numbers of electrons (negative charge) in these regions.
 The net total charge in the cell (including the nuclear charge) is also given.

 Values are provided for
    a) the Initial (sum-of-fragments) density
    b) the Orthogonalized-Fragments density
    c) the SCF density
    d) the Voronoi Deformation Density (VDD): the difference SCF-Initial for the complete atomic cell

  Atom                Initial                    OrthFrag                   SCF
             Sphere RestCell NetTotal   Sphere RestCell NetTotal   Sphere RestCell NetTotal      VDD
 -------     ------------------------   ------------------------   ------------------------    -----
    1 C      -2.271   -2.934    0.795   -2.450   -2.974    0.576   -2.291   -2.822    0.887    0.092
    2 C      -2.273   -2.724    1.003   -2.477   -2.856    0.668   -2.306   -2.761    0.933   -0.070
    3 F      -4.898   -4.330   -0.229   -5.128   -4.025   -0.154   -4.940   -4.372   -0.312   -0.083
    4 H      -0.072   -1.397   -0.470   -0.096   -1.231   -0.327   -0.097   -1.274   -0.371    0.099
    5 H      -0.075   -1.431   -0.506   -0.098   -1.276   -0.374   -0.110   -1.307   -0.417    0.088
    6 H      -0.076   -1.461   -0.537   -0.098   -1.283   -0.382   -0.108   -1.321   -0.429    0.108
    7 C      -2.277   -3.645    0.078   -2.424   -3.440    0.137   -2.316   -3.558    0.125    0.047
    8 N      -2.586   -4.469   -0.055   -2.746   -4.356   -0.102   -2.605   -4.625   -0.229   -0.174
    9 N      -2.600   -4.244    0.156   -2.866   -4.004    0.130   -2.608   -3.999    0.393    0.237
[...]
                                   -3.10%     2 P:z             4.589  0.00     1 C
                                    2.98%     2 S             -18.450  2.00     9 N
                                    2.68%     1 P:y            -5.239  0.67     1 C
                                    2.46%     1 P:x            -7.062  1.00     8 N
                                   -2.20%     3 S              10.158  0.00     2 C
                                    2.11%     2 P:z             4.589  0.00     3 C
                                    1.78%     1 P:y            -7.062  1.00     9 N
                                    1.49%     1 P:y            11.051  0.00     6 H
                                    1.47%     3 S               0.624  0.00     4 F
                                    1.42%     2 S             -13.620  2.00     2 C
                                    1.40%     1 P:z            11.051  0.00     7 H
                                   -1.40%     3 S              10.158  0.00     1 C
                                    1.36%     1 P:y            -9.020  1.33    10 O
                                    1.34%     1 P:x           -11.127  1.67     4 F
                                   -1.28%     1 P:z            -5.239  0.67     2 C
                                   -1.23%     2 P:x             4.589  0.00     2 C
                                    1.19%     2 P:z             7.649  0.00     9 N
                                   -1.16%     1 P:z            -5.239  0.67     1 C
       0.227  0.00    36 A         29.98%     3 S               0.624  0.00     4 F
                                   20.94%     1 S              -6.532  1.00     6 H
                                   17.48%     1 P:y            -5.239  0.67     1 C
                                   -9.83%     2 P:x             4.589  0.00     1 C
                                    6.24%     2 S               2.394  0.00     6 H
                                    5.51%     2 S               2.394  0.00     7 H
                                    5.04%     1 P:x            11.051  0.00     6 H
                                    3.71%     2 P:x             7.649  0.00     9 N
                                    3.64%     2 P:x             4.589  0.00     2 C
                                    3.37%     2 S             -13.620  2.00     1 C
                                    3.09%     1 P:x           -11.127  1.67     4 F
                                   -2.84%     2 P:y             4.589  0.00     1 C
                                   -2.22%     1 P:x            -5.239  0.67     1 C
                                    1.76%     2 P:z             4.589  0.00     1 C
                                    1.58%     2 P:x             4.589  0.00     3 C
                                    1.46%     1 P:z           -11.127  1.67     4 F
                                   -1.24%     3 S              14.073  0.00     8 N
                                    1.17%     2 S             -13.620  2.00     3 C
                                   -1.15%     3 S              14.073  0.00     9 N
                                    1.15%     1 P:x            -7.062  1.00     9 N
                                    1.12%     1 S              -6.532  1.00     5 H
                                    1.08%     3 S              40.869  0.00     6 H
                                    1.07%     1 P:y            -7.062  1.00     9 N
       0.635  0.00    37 A         50.99%     3 S               0.624  0.00     4 F
                                   20.35%     1 S              -6.532  1.00     5 H
                                   13.30%     2 S               2.394  0.00     5 H
                                    8.73%     2 S               2.394  0.00     6 H
                                   -7.18%     2 P:x             4.589  0.00     2 C
                                    6.44%     1 P:x            -5.239  0.67     3 C
                                    5.69%     2 S               2.394  0.00     7 H
                                    5.63%     1 S              -6.532  1.00     6 H
                                   -5.16%     2 P:z             4.589  0.00     1 C
                                   -4.51%     2 P:y             4.589  0.00     2 C
                                    4.48%     1 S              -6.532  1.00     7 H
                                   -4.31%     2 P:x             4.589  0.00     1 C
                                   -3.98%     2 P:z             4.589  0.00     2 C
                                   -3.28%     3 S              10.158  0.00     1 C
                                   -3.26%     2 P:y             4.589  0.00     1 C
                                    3.07%     1 P:x            -7.062  1.00     8 N
                                    2.27%     1 P:y            -5.239  0.67     1 C
                                    2.26%     3 S              40.869  0.00     5 H
                                    2.15%     2 S             -13.620  2.00     3 C
                                    2.11%     2 P:x             4.589  0.00     3 C
                                   -2.05%     1 P:z            -5.239  0.67     1 C
                                   -1.83%     1 P:x            -5.239  0.67     1 C
                                    1.81%     1 P:y            -5.239  0.67     2 C
                                    1.74%     1 P:y            -5.239  0.67     3 C
                                   -1.64%     2 S             -13.620  2.00     1 C
                                    1.48%     2 S             -13.620  2.00     2 C
                                   -1.27%     2 P:x             7.649  0.00     8 N
                                    1.25%     1 P:z            11.051  0.00     6 H
                                    1.24%     2 P:z             4.589  0.00     3 C
                                    1.15%     2 P:y             4.589  0.00     3 C
                                   -1.13%     2 P:x            11.654  0.00     4 F
                                   -1.09%     3 S              14.073  0.00     9 N
                                   -1.03%     2 P:z            11.654  0.00     4 F
       1.175  0.00    38 A         12.08%     1 P:z            -5.239  0.67     1 C
                                   -9.91%     2 P:x             4.589  0.00     2 C
                                    9.74%     1 S              -6.532  1.00     5 H
                                    9.00%     3 S               0.624  0.00     4 F
                                    8.56%     2 S             -13.620  2.00     3 C
                                    8.42%     1 P:x            -5.239  0.67     2 C
                                    8.40%     2 S             -13.620  2.00     1 C
                                    8.30%     2 S             -18.450  2.00     9 N
                                    8.29%     1 P:y            -5.239  0.67     1 C
                                    6.41%     2 P:y             4.589  0.00     2 C
                                   -5.29%     3 S              10.158  0.00     3 C
                                   -5.28%     3 S              14.073  0.00     9 N
                                    5.26%     2 S               2.394  0.00     7 H
                                    3.88%     1 P:y            -5.239  0.67     2 C
                                    3.75%     1 P:y            -7.062  1.00     9 N
                                    2.94%     1 P:y            -5.239  0.67     3 C
                                    2.75%     2 S               2.394  0.00     5 H
                                    2.43%     1 P:y            -9.020  1.33    11 O
                                    2.30%     1 P:z            11.051  0.00     6 H
                                   -2.13%     1 P:x            -5.239  0.67     1 C
                                    2.02%     1 P:y            -7.062  1.00     8 N
                                    1.71%     1 P:y           -11.127  1.67     4 F
                                    1.51%     1 P:y            11.051  0.00     5 H
                                    1.49%     1 P:x            -5.239  0.67     3 C
                                   -1.40%     2 P:x             4.589  0.00     1 C
                                    1.28%     2 P:x             4.589  0.00     3 C
                                    1.27%     2 S             -13.620  2.00     2 C
                                    1.13%     1 S              -6.532  1.00     7 H
                                    1.06%     1 P:z            -7.062  1.00     9 N
                                    1.04%     1 P:z            -9.020  1.33    10 O
       1.417  0.00    39 A         24.43%     2 P:y             4.589  0.00     1 C
                                   23.50%     2 P:y             4.589  0.00     2 C
                                   16.48%     2 P:y             4.589  0.00     3 C
                                   -9.37%     3 S              14.073  0.00     8 N
                                    8.91%     3 S               0.624  0.00     4 F
                                    8.36%     2 P:x             4.589  0.00     2 C
                                    7.31%     1 P:x            -5.239  0.67     1 C
                                    6.68%     1 P:y            -5.239  0.67     3 C
                                    5.44%     2 S             -18.450  2.00     9 N
                                    5.20%     2 P:y             7.649  0.00     9 N
                                   -4.05%     2 P:x             4.589  0.00     1 C
                                    4.01%     1 P:z            -5.239  0.67     1 C
                                   -3.72%     2 P:z             4.589  0.00     1 C
                                   -3.44%     3 S              21.524  0.00    11 O
                                    2.65%     1 P:y            -5.239  0.67     1 C
                                    2.51%     2 P:x             4.589  0.00     3 C
                                   -2.42%     3 S              21.524  0.00    10 O
                                    2.30%     1 P:y            -7.062  1.00     9 N
                                   -2.29%     4 S              42.880  0.00     4 F
                                    2.24%     1 S              -6.532  1.00     7 H
                                    2.24%     1 P:x           -11.127  1.67     4 F
                                   -1.90%     2 P:x            11.654  0.00     4 F
                                   -1.67%     3 S              10.158  0.00     3 C
                                   -1.64%     2 S             -13.620  2.00     3 C
                                   -1.60%     2 P:z             4.589  0.00     2 C
                                   -1.59%     1 S              -6.532  1.00     5 H
                                    1.50%     2 S               2.394  0.00     5 H
                                    1.49%     3 S              10.158  0.00     1 C
                                   -1.41%     2 P:z             4.589  0.00     3 C
                                    1.15%     2 S               2.394  0.00     6 H
                                    1.13%     1 P:x            -9.020  1.33    11 O
                                    1.09%     1 P:y            -9.020  1.33    11 O
                                    1.05%     2 S             -23.838  2.00    11 O



 =======================================================================
 Electrostatic potential at the Nuclei due to electrons and other nuclei
 =======================================================================
  
         Atom                  Potential
         ----                  ---------
     1)   C                  14.60582607
     2)   C                  14.68312295
     3)   F                  26.59905068
     4)   H                   1.01187222
     5)   H                   1.02137126
     6)   H                   1.02378813
     7)   C                  14.73229392
     8)   N                  18.41012544
     9)   N                  18.16379179
    10)   O                  22.33917377
    11)   O                  22.33890563
 Mulliken charges used for AMS results%charges...


    =====================
     CALCULATION RESULTS
    =====================

Energy (hartree)            -2.39309997


--------------
Atomic charges
--------------
  Index   Atom    Charge
      1      C    0.6801
      2      C    0.3287
      3      F   -0.3907
      4      H   -0.0706
      5      H   -0.1374
      6      H   -0.1050
      7      C    0.0923
      8      N   -0.2242
      9      N    0.5491
     10      O   -0.3451
     11      O   -0.3772


Dipole moment vector    (Debye):    -2.35747914    4.76948905    1.20473101
              magnitude (Debye):     5.45500783


-----------------------
Molecular orbitals info
-----------------------
n orbitals:              241
n spin:                    1

Note: only printing virtual orbitals with
      energy smaller than HOMO + 100. eV

HOMO (eV):              -7.6281
LUMO (eV):              -3.9238
HOMO-LUMO gap (eV):      3.7043

   Index   Energy (eV)    Occupation
     148       91.6469         0.000       
     147       91.2157         0.000       
     146       91.0433         0.000       
     145       89.6656         0.000       
     144       88.6722         0.000       
     143       88.4202         0.000       
     142       86.9944         0.000       
     141       85.2971         0.000       
     140       83.6745         0.000       
     139       83.0208         0.000       
     138       80.6673         0.000       
     137       79.4041         0.000       
     136       78.9569         0.000       
     135       77.1443         0.000       
     134       75.6169         0.000       
     133       74.5517         0.000       
     132       74.3214         0.000       
     131       73.3742         0.000       
     130       73.2747         0.000       
     129       70.3205         0.000       
     128       68.8027         0.000       
     127       68.0420         0.000       
     126       65.7351         0.000       
     125       64.3902         0.000       
     124       63.4927         0.000       
     123       62.4233         0.000       
     122       61.7968         0.000       
     121       60.3040         0.000       
     120       59.6021         0.000       
     119       58.9919         0.000       
     118       58.1351         0.000       
     117       56.7557         0.000       
     116       55.6498         0.000       
     115       54.6762         0.000       
     114       54.5092         0.000       
     113       53.5781         0.000       
     112       52.2543         0.000       
     111       51.4021         0.000       
     110       51.0081         0.000       
     109       49.0844         0.000       
     108       47.8493         0.000       
     107       47.4641         0.000       
     106       45.6245         0.000       
     105       44.9514         0.000       
     104       44.0424         0.000       
     103       43.2831         0.000       
     102       42.5861         0.000       
     101       42.3076         0.000       
     100       41.0714         0.000       
      99       40.7202         0.000       
      98       39.6995         0.000       
      97       38.8923         0.000       
      96       38.2394         0.000       
      95       37.4801         0.000       
      94       35.8028         0.000       
      93       34.7003         0.000       
      92       34.3758         0.000       
      91       33.8252         0.000       
      90       33.4017         0.000       
      89       32.9076         0.000       
      88       31.9721         0.000       
      87       31.6164         0.000       
      86       31.2445         0.000       
      85       30.6937         0.000       
      84       30.0740         0.000       
      83       28.8170         0.000       
      82       28.2803         0.000       
      81       27.0963         0.000       
      80       26.4580         0.000       
      79       26.0135         0.000       
      78       25.3048         0.000       
      77       24.9161         0.000       
      76       24.5415         0.000       
      75       22.9433         0.000       
      74       22.7746         0.000       
      73       21.1570         0.000       
      72       20.5685         0.000       
      71       20.0485         0.000       
      70       19.2832         0.000       
      69       18.5871         0.000       
      68       17.6270         0.000       
      67       17.5407         0.000       
      66       17.0138         0.000       
      65       16.2558         0.000       
      64       15.1549         0.000       
      63       14.1533         0.000       
      62       13.7569         0.000       
      61       12.6726         0.000       
      60       11.3274         0.000       
      59       11.1987         0.000       
      58       10.8693         0.000       
      57       10.6181         0.000       
      56       10.0960         0.000       
      55        9.2414         0.000       
      54        8.8683         0.000       
      53        8.6322         0.000       
      52        7.8940         0.000       
      51        7.4297         0.000       
      50        6.7826         0.000       
      49        6.3916         0.000       
      48        6.2916         0.000       
      47        5.7818         0.000       
      46        5.3314         0.000       
      45        4.9717         0.000       
      44        4.3858         0.000       
      43        4.1670         0.000       
      42        3.6616         0.000       
      41        3.1297         0.000       
      40        2.4256         0.000       
      39        1.4167         0.000       
      38        1.1748         0.000       
      37        0.6349         0.000       
      36        0.2267         0.000       
      35       -0.1178         0.000       
      34       -0.5821         0.000       
      33       -1.2166         0.000       
      32       -1.9515         0.000       
      31       -3.9238         0.000 < LUMO
      30       -7.6281         2.000 < HOMO
      29       -7.9978         2.000       
      28       -8.3714         2.000       
      27       -8.6046         2.000       
      26       -8.7384         2.000       
      25       -9.1909         2.000       
      24      -10.0789         2.000       
      23      -10.7071         2.000       
      22      -11.7081         2.000       
      21      -12.6244         2.000       
      20      -12.9175         2.000       
      19      -13.2796         2.000       
      18      -14.2760         2.000       
      17      -14.6104         2.000       
      16      -14.9153         2.000       
      15      -16.5164         2.000       
      14      -19.4485         2.000       
      13      -21.8956         2.000       
      12      -23.0460         2.000       
      11      -27.2687         2.000       
      10      -31.2746         2.000       
       9      -32.0032         2.000       
       8     -271.8459         2.000       
       7     -272.7478         2.000       
       6     -274.9192         2.000       
       5     -382.3168         2.000       
       4     -388.4621         2.000       
       3     -513.3008         2.000       
       2     -513.3064         2.000       
       1     -662.8047         2.000       

AMS application finished. Exiting.
NORMAL TERMINATION
     Total cpu time:      34.64
  Total system time:       0.37
 Total elapsed time:      35.16
NORMAL TERMINATION
