
 *******************************************************************************
 *                                                                             *
 *  --------------------------------                                           *
 *   Amsterdam Modeling Suite (AMS)              2026.103                      *
 *  --------------------------------                                           *
 *                                               r260501 2026-05-01 873454b5   *
 *                                                                             *
 *                                                                             *
 *                              =================                              *
 *                              |               |                              *
 *                              |     A M S     |                              *
 *                              |               |                              *
 *                              =================                              *
 *                                                                             *
 *                                                                             *
 *   Online information and documentation:  https://www.scm.com/support/       *
 *   E-mail:  support@scm.com   info@scm.com                                   *
 *                                                                             *
 *   Scientific publications using AMS results must be properly referenced     *
 *   See the User Manuals (or the web site) for recommended citations          *
 *   The terms and conditions of the End User License Agreement apply to       *
 *   the use of AMS, https://www.scm.com/license-terms/                        *
 *                                                                             *
 **********************  x86_64_linux_intel / intelmpi  ************************
 
 Licensed to: Jong-June Jeon / University of Seoul 2026-05-13 16:10:32
 SCM User ID: u30731
  
 AMS 2026.103  RunTime: May31-2026 15:38:32  ShM Nodes: 1  Procs: 1

 AMS jobname: c1_fragA_ts
 AMS jobid  : 1008626082

 Start   directory: /gpfs/home1/yeseo1ee/projects/eda-asm-prediction/adf_outputs/batch_001/dipolar_002516/
 Results directory: /gpfs/home1/yeseo1ee/projects/eda-asm-prediction/adf_outputs/batch_001/dipolar_002516/c1_fragA_ts.results/
 Scratch directory: /tmp/amstmp_c1_fragA_ts_kid0.1008626082/

 RNG seed: 1249002379 1688243535 1990714544 1771824290 -2066819735 -659027584 97166755 2023982735



                      ************************************************************************
                      *  ADF 2026.103  RunTime: May31-2026 15:38:32  ShM Nodes: 1  Procs: 1  *
                      ************************************************************************
  

       ****************************
       * SINGLE POINT CALCULATION *
       ****************************

--------
Geometry
--------
Formula: C7H9NO3
Atoms
  Index Symbol   x (angstrom)   y (angstrom)   z (angstrom)
      1      C    -4.84538000    -2.47004000     0.37791000
      2      O    -3.58924000    -1.84324000     0.70511000
      3      C    -3.37696000    -0.63553000     0.19827000
      4      O    -4.12871000    -0.03297000    -0.53562000
      5      C    -2.03068000    -0.13883000     0.57789000
      6      N    -1.73683000     0.70989000     1.39710000
      7      C    -0.90259000     1.61890000     1.80388000
      8      C    -0.46280000     1.64398000     3.23451000
      9      C    -0.73022000     2.77224000     0.85848000
     10      C     0.19071000     3.87431000     1.30147000
     11      O    -1.32868000     2.79979000    -0.20881000
     12      H    -4.92902000    -2.59404000    -0.71073000
     13      H    -5.68117000    -1.86188000     0.75034000
     14      H    -4.82772000    -3.44529000     0.87596000
     15      H     0.49265000     2.16403000     3.34694000
     16      H    -1.21340000     2.17994000     3.84170000
     17      H    -0.36150000     0.62380000     3.62852000
     18      H     0.30207000     4.60275000     0.48889000
     19      H    -0.23322000     4.37076000     2.19029000
     20      H     1.17659000     3.47847000     1.58418000

Total System Charge              0.00000


----------------
ADF Engine Input
----------------
 
   Basis
     Type TZ2P
     Core None
   End
   XC
     GGA BLYP
     Dispersion GRIMME3 BJDAMP
   End
   Symmetry NOSYM
   NumericalQuality Normal
   Unrestricted No
   SCF
     Iterations 200
     Converge 1.0e-6
   End
   Save TAPE21
 

 Title: *** (NO TITLE) ***

 *** adf ***



 ===========================
 A T T A C H E D   F I L E S
 ===========================
  



 ===============================
 M O D E L   P A R A M E T E R S
 ===============================
  
 DENSITY FUNCTIONAL POTENTIAL (scf)
    LDA:                               Exchange only                           == Not Default ==
    Gradient Corrections:              Becke88 LYP                             == Not Default ==

 SPIN  (restricted / unrestr.)
    Molecule:                          Restricted                               
    Fragments:                         Restricted                               

 OTHER ASPECTS
    Relativistic Corrections:          scalar (ZORA,MAPA)                       

    Nuclear Charge Density Model:      Point Charge Nuclei                      
    Core Treatment:                    Frozen Orbital(s)                        

    Hyperfine or Zeeman Interaction:   ---                                      

 Settings for Grimme D3 dispersion correction

      damping                        BJ
      s6                          1.000
      s8                          2.700
      a1                          0.430
      a2                          4.236

 Other (technical) parameters

      alpha                      14.000
      version                         4
 


 Fragment File(s)
 ----------------
 C:
         file : /gpfs/home1/yeseo1ee/projects/eda-asm-prediction/adf_outputs/batch_001/dipolar_002516/c1_fragA_ts.results/t21.50BA88D5.C
         jobid: 0
         title: Carbon (TZ2P)
 O:
         file : /gpfs/home1/yeseo1ee/projects/eda-asm-prediction/adf_outputs/batch_001/dipolar_002516/c1_fragA_ts.results/t21.6E90ABAE.O
         jobid: 0
         title: Oxygen (TZ2P)
 N:
         file : /gpfs/home1/yeseo1ee/projects/eda-asm-prediction/adf_outputs/batch_001/dipolar_002516/c1_fragA_ts.results/t21.44EAA48D.N
         jobid: 0
         title: Nitrogen (TZ2P)
 H:
         file : /gpfs/home1/yeseo1ee/projects/eda-asm-prediction/adf_outputs/batch_001/dipolar_002516/c1_fragA_ts.results/t21.6F35CCAB.H
         jobid: 0
         title: Hydrogen (TZ2P)



 ===============
 G E O M E T R Y  ***  3D  Molecule  ***
 ===============
  

 ATOMS
 =====                            X Y Z                    CHARGE
                                (Angstrom)             Nucl     +Core       At.Mass
                       --------------------------    ----------------       -------
    1  C              -4.8454   -2.4700    0.3779      6.00      6.00       12.0000
    2  O              -3.5892   -1.8432    0.7051      8.00      8.00       15.9949
    3  C              -3.3770   -0.6355    0.1983      6.00      6.00       12.0000
    4  O              -4.1287   -0.0330   -0.5356      8.00      8.00       15.9949
    5  C              -2.0307   -0.1388    0.5779      6.00      6.00       12.0000
    6  N              -1.7368    0.7099    1.3971      7.00      7.00       14.0031
    7  C              -0.9026    1.6189    1.8039      6.00      6.00       12.0000
    8  C              -0.4628    1.6440    3.2345      6.00      6.00       12.0000
    9  C              -0.7302    2.7722    0.8585      6.00      6.00       12.0000
   10  C               0.1907    3.8743    1.3015      6.00      6.00       12.0000
   11  O              -1.3287    2.7998   -0.2088      8.00      8.00       15.9949
   12  H              -4.9290   -2.5940   -0.7107      1.00      1.00        1.0078
   13  H              -5.6812   -1.8619    0.7503      1.00      1.00        1.0078
   14  H              -4.8277   -3.4453    0.8760      1.00      1.00        1.0078
   15  H               0.4926    2.1640    3.3469      1.00      1.00        1.0078
   16  H              -1.2134    2.1799    3.8417      1.00      1.00        1.0078
   17  H              -0.3615    0.6238    3.6285      1.00      1.00        1.0078
   18  H               0.3021    4.6028    0.4889      1.00      1.00        1.0078
   19  H              -0.2332    4.3708    2.1903      1.00      1.00        1.0078
   20  H               1.1766    3.4785    1.5842      1.00      1.00        1.0078


 FRAGMENTS
 =========                                     Atoms in this Fragment     Cart. coord.s (Angstrom)
                                               -------------------------------------------------------
    1  C                                                 1  C           -4.8454   -2.4700    0.3779
    2  C                                                 3  C           -3.3770   -0.6355    0.1983
    3  C                                                 5  C           -2.0307   -0.1388    0.5779
    4  C                                                 7  C           -0.9026    1.6189    1.8039
    5  C                                                 8  C           -0.4628    1.6440    3.2345
    6  C                                                 9  C           -0.7302    2.7722    0.8585
    7  C                                                10  C            0.1907    3.8743    1.3015
    8  O                                                 2  O           -3.5892   -1.8432    0.7051
    9  O                                                 4  O           -4.1287   -0.0330   -0.5356
   10  O                                                11  O           -1.3287    2.7998   -0.2088
   11  N                                                 6  N           -1.7368    0.7099    1.3971
   12  H                                                12  H           -4.9290   -2.5940   -0.7107
   13  H                                                13  H           -5.6812   -1.8619    0.7503
   14  H                                                14  H           -4.8277   -3.4453    0.8760
   15  H                                                15  H            0.4926    2.1640    3.3469
   16  H                                                16  H           -1.2134    2.1799    3.8417
   17  H                                                17  H           -0.3615    0.6238    3.6285
   18  H                                                18  H            0.3021    4.6028    0.4889
   19  H                                                19  H           -0.2332    4.3708    2.1903
   20  H                                                20  H            1.1766    3.4785    1.5842



 =====================================
 S Y M M E T R Y ,   E L E C T R O N S
 =====================================
  
 Symmetry: NOSYM

 Irreducible Representations, including subspecies
 -------------------------------------------------
 A


 Configuration of Valence Electrons
 ==================================
 ( determined in the SCF procedure )

 Total:   82

 Net Charge: 0 (Nuclei minus Electrons)

 Aufbau principle for MO occupations will be applied through SCF cycle no.     100
 Thereafter, the program will assign electrons to MOs that are spatially
 similar to the occupied MOs in a "reference" cycle ("KeepOrbitals").
 The reference cycle is always the PREVIOUS cycle: it will evolve with
 the SCF procedure.
 ***************************************************************************************************



                                      ****************************************
                                      *  B U I L D : (Fragments, Functions)  *
                                      ****************************************
  



 =======
 S F O s  ***  (Symmetrized Fragment Orbitals)  ***
 =======
  
 SFOs are linear combinations of (valence) Fragment Orbitals (FOs), such that the SFOs transform as the
 irreducible representations of the (molecular) symmetry group. Each SFO is therefore characterized by
 an irrep of the molecule and by a few (or only one) generating FOs.
 The SFOs constitute a symmetry-adapted basis for the Fock matrix. The MO eigenvector coefficients in
 this basis provide a direct interpretation of the MOs in terms of Frontier Orbital Theory.

 The SFOs are combined with auxiliary Core Functions (CFs) to ensure orthogonalization on the (frozen)
 Core Orbitals (COs). The Core-orthogonalized SFOs (CSFOs) constitute the true Fock basis.

 The FOs, and hence also the (C)SFOs are combinations of the elementary basis functions (BAS). The basis
 functions that participate in the description of the SFOs depend on the irrep. The indices of the
 involved functions are printed below for each irrep.
 (The complete list of primitive basis functions is printed in another section)

 Total nr. of (C)SFOs (summation over all irreps) :   385

 NOTE: a (C)SFO that is defined as a combination of more than one FO is usually NOT normalized.



                                       === A ===
 Nr. of SFOs :  385
 Cartesian basis functions that participate in this irrep (total number =   438) :
      1     2     3     4     5     6     9    12     7    10
     13     8    11    14    15    16    17    18    19    20
     21    22    23    24    25    26    27    28    29    30
     31    32    33    34    35    36    39    42    37    40
     43    38    41    44    45    46    47    48    49    50
     51    52    53    54    55    56    57    58    59    60
     61    62    63    64    65    66    69    72    67    70
     73    68    71    74    75    76    77    78    79    80
     81    82    83    84    85    86    87    88    89    90
     91    92    93    94    95    96    99   102    97   100
    103    98   101   104   105   106   107   108   109   110
    111   112   113   114   115   116   117   118   119   120
    121   122   123   124   125   126   129   132   127   130
    133   128   131   134   135   136   137   138   139   140
    141   142   143   144   145   146   147   148   149   150
    151   152   153   154   155   156   159   162   157   160
    163   158   161   164   165   166   167   168   169   170
    171   172   173   174   175   176   177   178   179   180
    181   182   183   184   185   186   189   192   187   190
    193   188   191   194   195   196   197   198   199   200
    201   202   203   204   205   206   207   208   209   210
    211   212   213   214   215   216   219   222   217   220
    223   218   221   224   225   226   227   228   229   230
    231   232   233   234   235   236   237   238   239   240
    241   242   243   244   245   246   249   252   247   250
    253   248   251   254   255   256   257   258   259   260
    261   262   263   264   265   266   267   268   269   270
    271   272   273   274   275   276   279   282   277   280
    283   278   281   284   285   286   287   288   289   290
    291   292   293   294   295   296   297   298   299   300
    301   302   303   304   305   306   309   312   307   310
    313   308   311   314   315   316   317   318   319   320
    321   322   323   324   325   326   327   328   329   330
    331   332   333   334   335   336   337   338   339   340
    341   342   343   344   345   346   347   348   349   350
    351   352   353   354   355   356   357   358   359   360
    361   362   363   364   365   366   367   368   369   370
    371   372   373   374   375   376   377   378   379   380
    381   382   383   384   385   386   387   388   389   390
    391   392   393   394   395   396   397   398   399   400
    401   402   403   404   405   406   407   408   409   410
    411   412   413   414   415   416   417   418   419   420
    421   422   423   424   425   426   427   428   429   430
    431   432   433   434   435   436   437   438

    SFO  (index         Fragment          Generating    Expansion in Fragment Orbitals
  indx  incl.CFs)   Occup   Orb.Energy   FragmentType  Coeff.   Orbital     on Fragment
 --------------------------------------------------------------------------------------
     1       1      2.000     -10.066 au  C             1.00      1 S               1
                        (    -273.921 eV)
     2       2      2.000      -0.501 au  C             1.00      2 S               1
                        (     -13.620 eV)
     3       3       --         0.373 au  C             1.00      3 S               1
                        (      10.158 eV)
     4       4       --         5.405 au  C             1.00      4 S               1
                        (     147.073 eV)
     5       5       --        49.848 au  C             1.00      5 S               1
                        (    1356.422 eV)
     6       6      0.667      -0.193 au  C             1.00      1 P:x             1
                        (      -5.239 eV)
     7       7       --         0.169 au  C             1.00      2 P:x             1
                        (       4.589 eV)
     8       8       --         2.013 au  C             1.00      3 P:x             1
                        (      54.789 eV)
     9       9      0.667      -0.193 au  C             1.00      1 P:y             1
                        (      -5.239 eV)
    10      10       --         0.169 au  C             1.00      2 P:y             1
                        (       4.589 eV)
    11      11       --         2.013 au  C             1.00      3 P:y             1
                        (      54.789 eV)
    12      12      0.667      -0.193 au  C             1.00      1 P:z             1
                        (      -5.239 eV)
    13      13       --         0.169 au  C             1.00      2 P:z             1
                        (       4.589 eV)
    14      14       --         2.013 au  C             1.00      3 P:z             1
                        (      54.789 eV)
    15      15       --         1.243 au  C             1.00      1 D:z2            1
                        (      33.824 eV)
    16      16       --         1.243 au  C             1.00      1 D:x2-y2         1
                        (      33.824 eV)
    17      17       --         1.243 au  C             1.00      1 D:xy            1
                        (      33.824 eV)
    18      18       --         1.243 au  C             1.00      1 D:xz            1
                        (      33.824 eV)
    19      19       --         1.243 au  C             1.00      1 D:yz            1
                        (      33.824 eV)
    20      20       --         4.016 au  C             1.00      1 F:z3            1
                        (     109.271 eV)
    21      21       --         4.016 au  C             1.00      1 F:z             1
                        (     109.271 eV)
    22      22       --         4.016 au  C             1.00      1 F:xyz           1
                        (     109.271 eV)
    23      23       --         4.016 au  C             1.00      1 F:z2x           1
                        (     109.271 eV)
    24      24       --         4.016 au  C             1.00      1 F:z2y           1
                        (     109.271 eV)
    25      25       --         4.016 au  C             1.00      1 F:x             1
                        (     109.271 eV)
    26      26       --         4.016 au  C             1.00      1 F:y             1
                        (     109.271 eV)
    27      27      2.000     -10.066 au  C             1.00      1 S               2
                        (    -273.921 eV)
    28      28      2.000      -0.501 au  C             1.00      2 S               2
                        (     -13.620 eV)
    29      29       --         0.373 au  C             1.00      3 S               2
                        (      10.158 eV)
    30      30       --         5.405 au  C             1.00      4 S               2
                        (     147.073 eV)
    31      31       --        49.848 au  C             1.00      5 S               2
                        (    1356.422 eV)
    32      32      0.667      -0.193 au  C             1.00      1 P:x             2
                        (      -5.239 eV)
    33      33       --         0.169 au  C             1.00      2 P:x             2
                        (       4.589 eV)
    34      34       --         2.013 au  C             1.00      3 P:x             2
                        (      54.789 eV)
    35      35      0.667      -0.193 au  C             1.00      1 P:y             2
                        (      -5.239 eV)
    36      36       --         0.169 au  C             1.00      2 P:y             2
                        (       4.589 eV)
    37      37       --         2.013 au  C             1.00      3 P:y             2
                        (      54.789 eV)
    38      38      0.667      -0.193 au  C             1.00      1 P:z             2
                        (      -5.239 eV)
    39      39       --         0.169 au  C             1.00      2 P:z             2
                        (       4.589 eV)
    40      40       --         2.013 au  C             1.00      3 P:z             2
                        (      54.789 eV)
    41      41       --         1.243 au  C             1.00      1 D:z2            2
                        (      33.824 eV)
    42      42       --         1.243 au  C             1.00      1 D:x2-y2         2
                        (      33.824 eV)
    43      43       --         1.243 au  C             1.00      1 D:xy            2
                        (      33.824 eV)
    44      44       --         1.243 au  C             1.00      1 D:xz            2
                        (      33.824 eV)
    45      45       --         1.243 au  C             1.00      1 D:yz            2
                        (      33.824 eV)
    46      46       --         4.016 au  C             1.00      1 F:z3            2
                        (     109.271 eV)
    47      47       --         4.016 au  C             1.00      1 F:z             2
                        (     109.271 eV)
    48      48       --         4.016 au  C             1.00      1 F:xyz           2
                        (     109.271 eV)
    49      49       --         4.016 au  C             1.00      1 F:z2x           2
                        (     109.271 eV)
    50      50       --         4.016 au  C             1.00      1 F:z2y           2
                        (     109.271 eV)
    51      51       --         4.016 au  C             1.00      1 F:x             2
                        (     109.271 eV)
    52      52       --         4.016 au  C             1.00      1 F:y             2
                        (     109.271 eV)
    53      53      2.000     -10.066 au  C             1.00      1 S               3
                        (    -273.921 eV)
    54      54      2.000      -0.501 au  C             1.00      2 S               3
                        (     -13.620 eV)
    55      55       --         0.373 au  C             1.00      3 S               3
                        (      10.158 eV)
    56      56       --         5.405 au  C             1.00      4 S               3
                        (     147.073 eV)
    57      57       --        49.848 au  C             1.00      5 S               3
                        (    1356.422 eV)
    58      58      0.667      -0.193 au  C             1.00      1 P:x             3
                        (      -5.239 eV)
    59      59       --         0.169 au  C             1.00      2 P:x             3
                        (       4.589 eV)
    60      60       --         2.013 au  C             1.00      3 P:x             3
                        (      54.789 eV)
    61      61      0.667      -0.193 au  C             1.00      1 P:y             3
                        (      -5.239 eV)
    62      62       --         0.169 au  C             1.00      2 P:y             3
                        (       4.589 eV)
    63      63       --         2.013 au  C             1.00      3 P:y             3
                        (      54.789 eV)
    64      64      0.667      -0.193 au  C             1.00      1 P:z             3
                        (      -5.239 eV)
    65      65       --         0.169 au  C             1.00      2 P:z             3
                        (       4.589 eV)
    66      66       --         2.013 au  C             1.00      3 P:z             3
                        (      54.789 eV)
    67      67       --         1.243 au  C             1.00      1 D:z2            3
                        (      33.824 eV)
    68      68       --         1.243 au  C             1.00      1 D:x2-y2         3
                        (      33.824 eV)
    69      69       --         1.243 au  C             1.00      1 D:xy            3
                        (      33.824 eV)
    70      70       --         1.243 au  C             1.00      1 D:xz            3
                        (      33.824 eV)
    71      71       --         1.243 au  C             1.00      1 D:yz            3
                        (      33.824 eV)
    72      72       --         4.016 au  C             1.00      1 F:z3            3
                        (     109.271 eV)
    73      73       --         4.016 au  C             1.00      1 F:z             3
                        (     109.271 eV)
    74      74       --         4.016 au  C             1.00      1 F:xyz           3
                        (     109.271 eV)
    75      75       --         4.016 au  C             1.00      1 F:z2x           3
                        (     109.271 eV)
    76      76       --         4.016 au  C             1.00      1 F:z2y           3
                        (     109.271 eV)
    77      77       --         4.016 au  C             1.00      1 F:x             3
                        (     109.271 eV)
    78      78       --         4.016 au  C             1.00      1 F:y             3
                        (     109.271 eV)
    79      79      2.000     -10.066 au  C             1.00      1 S               4
                        (    -273.921 eV)
    80      80      2.000      -0.501 au  C             1.00      2 S               4
                        (     -13.620 eV)
    81      81       --         0.373 au  C             1.00      3 S               4
                        (      10.158 eV)
    82      82       --         5.405 au  C             1.00      4 S               4
                        (     147.073 eV)
    83      83       --        49.848 au  C             1.00      5 S               4
                        (    1356.422 eV)
    84      84      0.667      -0.193 au  C             1.00      1 P:x             4
                        (      -5.239 eV)
    85      85       --         0.169 au  C             1.00      2 P:x             4
                        (       4.589 eV)
    86      86       --         2.013 au  C             1.00      3 P:x             4
                        (      54.789 eV)
    87      87      0.667      -0.193 au  C             1.00      1 P:y             4
                        (      -5.239 eV)
    88      88       --         0.169 au  C             1.00      2 P:y             4
                        (       4.589 eV)
    89      89       --         2.013 au  C             1.00      3 P:y             4
                        (      54.789 eV)
    90      90      0.667      -0.193 au  C             1.00      1 P:z             4
                        (      -5.239 eV)
    91      91       --         0.169 au  C             1.00      2 P:z             4
                        (       4.589 eV)
    92      92       --         2.013 au  C             1.00      3 P:z             4
                        (      54.789 eV)
    93      93       --         1.243 au  C             1.00      1 D:z2            4
                        (      33.824 eV)
    94      94       --         1.243 au  C             1.00      1 D:x2-y2         4
                        (      33.824 eV)
    95      95       --         1.243 au  C             1.00      1 D:xy            4
                        (      33.824 eV)
    96      96       --         1.243 au  C             1.00      1 D:xz            4
                        (      33.824 eV)
    97      97       --         1.243 au  C             1.00      1 D:yz            4
                        (      33.824 eV)
    98      98       --         4.016 au  C             1.00      1 F:z3            4
                        (     109.271 eV)
    99      99       --         4.016 au  C             1.00      1 F:z             4
                        (     109.271 eV)
   100     100       --         4.016 au  C             1.00      1 F:xyz           4
                        (     109.271 eV)
   101     101       --         4.016 au  C             1.00      1 F:z2x           4
                        (     109.271 eV)
   102     102       --         4.016 au  C             1.00      1 F:z2y           4
                        (     109.271 eV)
   103     103       --         4.016 au  C             1.00      1 F:x             4
                        (     109.271 eV)
   104     104       --         4.016 au  C             1.00      1 F:y             4
                        (     109.271 eV)
   105     105      2.000     -10.066 au  C             1.00      1 S               5
                        (    -273.921 eV)
   106     106      2.000      -0.501 au  C             1.00      2 S               5
                        (     -13.620 eV)
   107     107       --         0.373 au  C             1.00      3 S               5
                        (      10.158 eV)
   108     108       --         5.405 au  C             1.00      4 S               5
                        (     147.073 eV)
   109     109       --        49.848 au  C             1.00      5 S               5
                        (    1356.422 eV)
   110     110      0.667      -0.193 au  C             1.00      1 P:x             5
                        (      -5.239 eV)
   111     111       --         0.169 au  C             1.00      2 P:x             5
                        (       4.589 eV)
   112     112       --         2.013 au  C             1.00      3 P:x             5
                        (      54.789 eV)
   113     113      0.667      -0.193 au  C             1.00      1 P:y             5
                        (      -5.239 eV)
   114     114       --         0.169 au  C             1.00      2 P:y             5
                        (       4.589 eV)
   115     115       --         2.013 au  C             1.00      3 P:y             5
                        (      54.789 eV)
   116     116      0.667      -0.193 au  C             1.00      1 P:z             5
                        (      -5.239 eV)
   117     117       --         0.169 au  C             1.00      2 P:z             5
                        (       4.589 eV)
   118     118       --         2.013 au  C             1.00      3 P:z             5
                        (      54.789 eV)
   119     119       --         1.243 au  C             1.00      1 D:z2            5
                        (      33.824 eV)
   120     120       --         1.243 au  C             1.00      1 D:x2-y2         5
                        (      33.824 eV)
   121     121       --         1.243 au  C             1.00      1 D:xy            5
                        (      33.824 eV)
   122     122       --         1.243 au  C             1.00      1 D:xz            5
                        (      33.824 eV)
   123     123       --         1.243 au  C             1.00      1 D:yz            5
                        (      33.824 eV)
   124     124       --         4.016 au  C             1.00      1 F:z3            5
                        (     109.271 eV)
   125     125       --         4.016 au  C             1.00      1 F:z             5
                        (     109.271 eV)
   126     126       --         4.016 au  C             1.00      1 F:xyz           5
                        (     109.271 eV)
   127     127       --         4.016 au  C             1.00      1 F:z2x           5
                        (     109.271 eV)
   128     128       --         4.016 au  C             1.00      1 F:z2y           5
                        (     109.271 eV)
   129     129       --         4.016 au  C             1.00      1 F:x             5
                        (     109.271 eV)
   130     130       --         4.016 au  C             1.00      1 F:y             5
                        (     109.271 eV)
   131     131      2.000     -10.066 au  C             1.00      1 S               6
                        (    -273.921 eV)
   132     132      2.000      -0.501 au  C             1.00      2 S               6
                        (     -13.620 eV)
   133     133       --         0.373 au  C             1.00      3 S               6
                        (      10.158 eV)
   134     134       --         5.405 au  C             1.00      4 S               6
                        (     147.073 eV)
   135     135       --        49.848 au  C             1.00      5 S               6
                        (    1356.422 eV)
   136     136      0.667      -0.193 au  C             1.00      1 P:x             6
                        (      -5.239 eV)
   137     137       --         0.169 au  C             1.00      2 P:x             6
                        (       4.589 eV)
   138     138       --         2.013 au  C             1.00      3 P:x             6
                        (      54.789 eV)
   139     139      0.667      -0.193 au  C             1.00      1 P:y             6
                        (      -5.239 eV)
   140     140       --         0.169 au  C             1.00      2 P:y             6
                        (       4.589 eV)
   141     141       --         2.013 au  C             1.00      3 P:y             6
                        (      54.789 eV)
   142     142      0.667      -0.193 au  C             1.00      1 P:z             6
                        (      -5.239 eV)
   143     143       --         0.169 au  C             1.00      2 P:z             6
                        (       4.589 eV)
   144     144       --         2.013 au  C             1.00      3 P:z             6
                        (      54.789 eV)
   145     145       --         1.243 au  C             1.00      1 D:z2            6
                        (      33.824 eV)
   146     146       --         1.243 au  C             1.00      1 D:x2-y2         6
                        (      33.824 eV)
   147     147       --         1.243 au  C             1.00      1 D:xy            6
                        (      33.824 eV)
   148     148       --         1.243 au  C             1.00      1 D:xz            6
                        (      33.824 eV)
   149     149       --         1.243 au  C             1.00      1 D:yz            6
                        (      33.824 eV)
   150     150       --         4.016 au  C             1.00      1 F:z3            6
                        (     109.271 eV)
   151     151       --         4.016 au  C             1.00      1 F:z             6
                        (     109.271 eV)
   152     152       --         4.016 au  C             1.00      1 F:xyz           6
                        (     109.271 eV)
   153     153       --         4.016 au  C             1.00      1 F:z2x           6
                        (     109.271 eV)
   154     154       --         4.016 au  C             1.00      1 F:z2y           6
                        (     109.271 eV)
   155     155       --         4.016 au  C             1.00      1 F:x             6
                        (     109.271 eV)
   156     156       --         4.016 au  C             1.00      1 F:y             6
                        (     109.271 eV)
   157     157      2.000     -10.066 au  C             1.00      1 S               7
                        (    -273.921 eV)
   158     158      2.000      -0.501 au  C             1.00      2 S               7
                        (     -13.620 eV)
   159     159       --         0.373 au  C             1.00      3 S               7
                        (      10.158 eV)
   160     160       --         5.405 au  C             1.00      4 S               7
                        (     147.073 eV)
   161     161       --        49.848 au  C             1.00      5 S               7
                        (    1356.422 eV)
   162     162      0.667      -0.193 au  C             1.00      1 P:x             7
                        (      -5.239 eV)
   163     163       --         0.169 au  C             1.00      2 P:x             7
                        (       4.589 eV)
   164     164       --         2.013 au  C             1.00      3 P:x             7
                        (      54.789 eV)
   165     165      0.667      -0.193 au  C             1.00      1 P:y             7
                        (      -5.239 eV)
   166     166       --         0.169 au  C             1.00      2 P:y             7
                        (       4.589 eV)
   167     167       --         2.013 au  C             1.00      3 P:y             7
                        (      54.789 eV)
   168     168      0.667      -0.193 au  C             1.00      1 P:z             7
                        (      -5.239 eV)
   169     169       --         0.169 au  C             1.00      2 P:z             7
                        (       4.589 eV)
   170     170       --         2.013 au  C             1.00      3 P:z             7
                        (      54.789 eV)
   171     171       --         1.243 au  C             1.00      1 D:z2            7
                        (      33.824 eV)
   172     172       --         1.243 au  C             1.00      1 D:x2-y2         7
                        (      33.824 eV)
   173     173       --         1.243 au  C             1.00      1 D:xy            7
                        (      33.824 eV)
   174     174       --         1.243 au  C             1.00      1 D:xz            7
                        (      33.824 eV)
   175     175       --         1.243 au  C             1.00      1 D:yz            7
                        (      33.824 eV)
   176     176       --         4.016 au  C             1.00      1 F:z3            7
                        (     109.271 eV)
   177     177       --         4.016 au  C             1.00      1 F:z             7
                        (     109.271 eV)
   178     178       --         4.016 au  C             1.00      1 F:xyz           7
                        (     109.271 eV)
   179     179       --         4.016 au  C             1.00      1 F:z2x           7
                        (     109.271 eV)
   180     180       --         4.016 au  C             1.00      1 F:z2y           7
                        (     109.271 eV)
   181     181       --         4.016 au  C             1.00      1 F:x             7
                        (     109.271 eV)
   182     182       --         4.016 au  C             1.00      1 F:y             7
                        (     109.271 eV)
   183     183      2.000     -18.941 au  O             1.00      1 S               8
                        (    -515.403 eV)
   184     184      2.000      -0.876 au  O             1.00      2 S               8
                        (     -23.838 eV)
   185     185       --         0.791 au  O             1.00      3 S               8
                        (      21.524 eV)
   186     186       --        13.422 au  O             1.00      4 S               8
                        (     365.226 eV)
   187     187       --       121.561 au  O             1.00      5 S               8
                        (    3307.838 eV)
   188     188      1.333      -0.331 au  O             1.00      1 P:x             8
                        (      -9.020 eV)
   189     189       --         0.347 au  O             1.00      2 P:x             8
                        (       9.437 eV)
   190     190       --         3.820 au  O             1.00      3 P:x             8
                        (     103.939 eV)
   191     191      1.333      -0.331 au  O             1.00      1 P:y             8
                        (      -9.020 eV)
   192     192       --         0.347 au  O             1.00      2 P:y             8
                        (       9.437 eV)
   193     193       --         3.820 au  O             1.00      3 P:y             8
                        (     103.939 eV)
   194     194      1.333      -0.331 au  O             1.00      1 P:z             8
                        (      -9.020 eV)
   195     195       --         0.347 au  O             1.00      2 P:z             8
                        (       9.437 eV)
   196     196       --         3.820 au  O             1.00      3 P:z             8
                        (     103.939 eV)
   197     197       --         1.071 au  O             1.00      1 D:z2            8
                        (      29.134 eV)
   198     198       --         1.071 au  O             1.00      1 D:x2-y2         8
                        (      29.134 eV)
   199     199       --         1.071 au  O             1.00      1 D:xy            8
                        (      29.134 eV)
   200     200       --         1.071 au  O             1.00      1 D:xz            8
                        (      29.134 eV)
   201     201       --         1.071 au  O             1.00      1 D:yz            8
                        (      29.134 eV)
   202     202       --         3.359 au  O             1.00      1 F:z3            8
                        (      91.410 eV)
   203     203       --         3.359 au  O             1.00      1 F:z             8
                        (      91.410 eV)
   204     204       --         3.359 au  O             1.00      1 F:xyz           8
                        (      91.410 eV)
   205     205       --         3.359 au  O             1.00      1 F:z2x           8
                        (      91.410 eV)
   206     206       --         3.359 au  O             1.00      1 F:z2y           8
                        (      91.410 eV)
   207     207       --         3.359 au  O             1.00      1 F:x             8
                        (      91.410 eV)
   208     208       --         3.359 au  O             1.00      1 F:y             8
                        (      91.410 eV)
   209     209      2.000     -18.941 au  O             1.00      1 S               9
                        (    -515.403 eV)
   210     210      2.000      -0.876 au  O             1.00      2 S               9
                        (     -23.838 eV)
   211     211       --         0.791 au  O             1.00      3 S               9
                        (      21.524 eV)
   212     212       --        13.422 au  O             1.00      4 S               9
                        (     365.226 eV)
   213     213       --       121.561 au  O             1.00      5 S               9
                        (    3307.838 eV)
   214     214      1.333      -0.331 au  O             1.00      1 P:x             9
                        (      -9.020 eV)
   215     215       --         0.347 au  O             1.00      2 P:x             9
                        (       9.437 eV)
   216     216       --         3.820 au  O             1.00      3 P:x             9
                        (     103.939 eV)
   217     217      1.333      -0.331 au  O             1.00      1 P:y             9
                        (      -9.020 eV)
   218     218       --         0.347 au  O             1.00      2 P:y             9
                        (       9.437 eV)
   219     219       --         3.820 au  O             1.00      3 P:y             9
                        (     103.939 eV)
   220     220      1.333      -0.331 au  O             1.00      1 P:z             9
                        (      -9.020 eV)
   221     221       --         0.347 au  O             1.00      2 P:z             9
                        (       9.437 eV)
   222     222       --         3.820 au  O             1.00      3 P:z             9
                        (     103.939 eV)
   223     223       --         1.071 au  O             1.00      1 D:z2            9
                        (      29.134 eV)
   224     224       --         1.071 au  O             1.00      1 D:x2-y2         9
                        (      29.134 eV)
   225     225       --         1.071 au  O             1.00      1 D:xy            9
                        (      29.134 eV)
   226     226       --         1.071 au  O             1.00      1 D:xz            9
                        (      29.134 eV)
   227     227       --         1.071 au  O             1.00      1 D:yz            9
                        (      29.134 eV)
   228     228       --         3.359 au  O             1.00      1 F:z3            9
                        (      91.410 eV)
   229     229       --         3.359 au  O             1.00      1 F:z             9
                        (      91.410 eV)
   230     230       --         3.359 au  O             1.00      1 F:xyz           9
                        (      91.410 eV)
   231     231       --         3.359 au  O             1.00      1 F:z2x           9
                        (      91.410 eV)
   232     232       --         3.359 au  O             1.00      1 F:z2y           9
                        (      91.410 eV)
   233     233       --         3.359 au  O             1.00      1 F:x             9
                        (      91.410 eV)
   234     234       --         3.359 au  O             1.00      1 F:y             9
                        (      91.410 eV)
   235     235      2.000     -18.941 au  O             1.00      1 S              10
                        (    -515.403 eV)
   236     236      2.000      -0.876 au  O             1.00      2 S              10
                        (     -23.838 eV)
   237     237       --         0.791 au  O             1.00      3 S              10
                        (      21.524 eV)
   238     238       --        13.422 au  O             1.00      4 S              10
                        (     365.226 eV)
   239     239       --       121.561 au  O             1.00      5 S              10
                        (    3307.838 eV)
   240     240      1.333      -0.331 au  O             1.00      1 P:x            10
                        (      -9.020 eV)
   241     241       --         0.347 au  O             1.00      2 P:x            10
                        (       9.437 eV)
   242     242       --         3.820 au  O             1.00      3 P:x            10
                        (     103.939 eV)
   243     243      1.333      -0.331 au  O             1.00      1 P:y            10
                        (      -9.020 eV)
   244     244       --         0.347 au  O             1.00      2 P:y            10
                        (       9.437 eV)
   245     245       --         3.820 au  O             1.00      3 P:y            10
                        (     103.939 eV)
   246     246      1.333      -0.331 au  O             1.00      1 P:z            10
                        (      -9.020 eV)
   247     247       --         0.347 au  O             1.00      2 P:z            10
                        (       9.437 eV)
   248     248       --         3.820 au  O             1.00      3 P:z            10
                        (     103.939 eV)
   249     249       --         1.071 au  O             1.00      1 D:z2           10
                        (      29.134 eV)
   250     250       --         1.071 au  O             1.00      1 D:x2-y2        10
                        (      29.134 eV)
   251     251       --         1.071 au  O             1.00      1 D:xy           10
                        (      29.134 eV)
   252     252       --         1.071 au  O             1.00      1 D:xz           10
                        (      29.134 eV)
   253     253       --         1.071 au  O             1.00      1 D:yz           10
                        (      29.134 eV)
   254     254       --         3.359 au  O             1.00      1 F:z3           10
                        (      91.410 eV)
   255     255       --         3.359 au  O             1.00      1 F:z            10
                        (      91.410 eV)
   256     256       --         3.359 au  O             1.00      1 F:xyz          10
                        (      91.410 eV)
   257     257       --         3.359 au  O             1.00      1 F:z2x          10
                        (      91.410 eV)
   258     258       --         3.359 au  O             1.00      1 F:z2y          10
                        (      91.410 eV)
   259     259       --         3.359 au  O             1.00      1 F:x            10
                        (      91.410 eV)
   260     260       --         3.359 au  O             1.00      1 F:y            10
                        (      91.410 eV)
   261     261      2.000     -14.160 au  N             1.00      1 S              11
                        (    -385.319 eV)
   262     262      2.000      -0.678 au  N             1.00      2 S              11
                        (     -18.450 eV)
   263     263       --         0.517 au  N             1.00      3 S              11
                        (      14.073 eV)
   264     264       --         6.872 au  N             1.00      4 S              11
                        (     186.990 eV)
   265     265       --        63.432 au  N             1.00      5 S              11
                        (    1726.082 eV)
   266     266      1.000      -0.260 au  N             1.00      1 P:x            11
                        (      -7.062 eV)
   267     267       --         0.281 au  N             1.00      2 P:x            11
                        (       7.649 eV)
   268     268       --         3.275 au  N             1.00      3 P:x            11
                        (      89.105 eV)
   269     269      1.000      -0.260 au  N             1.00      1 P:y            11
                        (      -7.062 eV)
   270     270       --         0.281 au  N             1.00      2 P:y            11
                        (       7.649 eV)
   271     271       --         3.275 au  N             1.00      3 P:y            11
                        (      89.105 eV)
   272     272      1.000      -0.260 au  N             1.00      1 P:z            11
                        (      -7.062 eV)
   273     273       --         0.281 au  N             1.00      2 P:z            11
                        (       7.649 eV)
   274     274       --         3.275 au  N             1.00      3 P:z            11
                        (      89.105 eV)
   275     275       --         1.250 au  N             1.00      1 D:z2           11
                        (      34.005 eV)
   276     276       --         1.250 au  N             1.00      1 D:x2-y2        11
                        (      34.005 eV)
   277     277       --         1.250 au  N             1.00      1 D:xy           11
                        (      34.005 eV)
   278     278       --         1.250 au  N             1.00      1 D:xz           11
                        (      34.005 eV)
   279     279       --         1.250 au  N             1.00      1 D:yz           11
                        (      34.005 eV)
   280     280       --         4.013 au  N             1.00      1 F:z3           11
                        (     109.190 eV)
   281     281       --         4.013 au  N             1.00      1 F:z            11
                        (     109.190 eV)
   282     282       --         4.013 au  N             1.00      1 F:xyz          11
                        (     109.190 eV)
   283     283       --         4.013 au  N             1.00      1 F:z2x          11
                        (     109.190 eV)
   284     284       --         4.013 au  N             1.00      1 F:z2y          11
                        (     109.190 eV)
   285     285       --         4.013 au  N             1.00      1 F:x            11
                        (     109.190 eV)
   286     286       --         4.013 au  N             1.00      1 F:y            11
                        (     109.190 eV)
   287     287      1.000      -0.240 au  H             1.00      1 S              12
                        (      -6.532 eV)
   288     288       --         0.088 au  H             1.00      2 S              12
                        (       2.394 eV)
   289     289       --         1.502 au  H             1.00      3 S              12
                        (      40.869 eV)
   290     290       --         0.406 au  H             1.00      1 P:x            12
                        (      11.051 eV)
   291     291       --         0.406 au  H             1.00      1 P:y            12
                        (      11.051 eV)
   292     292       --         0.406 au  H             1.00      1 P:z            12
                        (      11.051 eV)
   293     293       --         2.569 au  H             1.00      1 D:z2           12
                        (      69.917 eV)
   294     294       --         2.569 au  H             1.00      1 D:x2-y2        12
                        (      69.917 eV)
   295     295       --         2.569 au  H             1.00      1 D:xy           12
                        (      69.917 eV)
   296     296       --         2.569 au  H             1.00      1 D:xz           12
                        (      69.917 eV)
   297     297       --         2.569 au  H             1.00      1 D:yz           12
                        (      69.917 eV)
   298     298      1.000      -0.240 au  H             1.00      1 S              13
                        (      -6.532 eV)
   299     299       --         0.088 au  H             1.00      2 S              13
                        (       2.394 eV)
   300     300       --         1.502 au  H             1.00      3 S              13
                        (      40.869 eV)
   301     301       --         0.406 au  H             1.00      1 P:x            13
                        (      11.051 eV)
   302     302       --         0.406 au  H             1.00      1 P:y            13
                        (      11.051 eV)
   303     303       --         0.406 au  H             1.00      1 P:z            13
                        (      11.051 eV)
   304     304       --         2.569 au  H             1.00      1 D:z2           13
                        (      69.917 eV)
   305     305       --         2.569 au  H             1.00      1 D:x2-y2        13
                        (      69.917 eV)
   306     306       --         2.569 au  H             1.00      1 D:xy           13
                        (      69.917 eV)
   307     307       --         2.569 au  H             1.00      1 D:xz           13
                        (      69.917 eV)
   308     308       --         2.569 au  H             1.00      1 D:yz           13
                        (      69.917 eV)
   309     309      1.000      -0.240 au  H             1.00      1 S              14
                        (      -6.532 eV)
   310     310       --         0.088 au  H             1.00      2 S              14
                        (       2.394 eV)
   311     311       --         1.502 au  H             1.00      3 S              14
                        (      40.869 eV)
   312     312       --         0.406 au  H             1.00      1 P:x            14
                        (      11.051 eV)
   313     313       --         0.406 au  H             1.00      1 P:y            14
                        (      11.051 eV)
   314     314       --         0.406 au  H             1.00      1 P:z            14
                        (      11.051 eV)
   315     315       --         2.569 au  H             1.00      1 D:z2           14
                        (      69.917 eV)
   316     316       --         2.569 au  H             1.00      1 D:x2-y2        14
                        (      69.917 eV)
   317     317       --         2.569 au  H             1.00      1 D:xy           14
                        (      69.917 eV)
   318     318       --         2.569 au  H             1.00      1 D:xz           14
                        (      69.917 eV)
   319     319       --         2.569 au  H             1.00      1 D:yz           14
                        (      69.917 eV)
   320     320      1.000      -0.240 au  H             1.00      1 S              15
                        (      -6.532 eV)
   321     321       --         0.088 au  H             1.00      2 S              15
                        (       2.394 eV)
   322     322       --         1.502 au  H             1.00      3 S              15
                        (      40.869 eV)
   323     323       --         0.406 au  H             1.00      1 P:x            15
                        (      11.051 eV)
   324     324       --         0.406 au  H             1.00      1 P:y            15
                        (      11.051 eV)
   325     325       --         0.406 au  H             1.00      1 P:z            15
                        (      11.051 eV)
   326     326       --         2.569 au  H             1.00      1 D:z2           15
                        (      69.917 eV)
   327     327       --         2.569 au  H             1.00      1 D:x2-y2        15
                        (      69.917 eV)
   328     328       --         2.569 au  H             1.00      1 D:xy           15
                        (      69.917 eV)
   329     329       --         2.569 au  H             1.00      1 D:xz           15
                        (      69.917 eV)
   330     330       --         2.569 au  H             1.00      1 D:yz           15
                        (      69.917 eV)
   331     331      1.000      -0.240 au  H             1.00      1 S              16
                        (      -6.532 eV)
   332     332       --         0.088 au  H             1.00      2 S              16
                        (       2.394 eV)
   333     333       --         1.502 au  H             1.00      3 S              16
                        (      40.869 eV)
   334     334       --         0.406 au  H             1.00      1 P:x            16
                        (      11.051 eV)
   335     335       --         0.406 au  H             1.00      1 P:y            16
                        (      11.051 eV)
   336     336       --         0.406 au  H             1.00      1 P:z            16
                        (      11.051 eV)
   337     337       --         2.569 au  H             1.00      1 D:z2           16
                        (      69.917 eV)
   338     338       --         2.569 au  H             1.00      1 D:x2-y2        16
                        (      69.917 eV)
   339     339       --         2.569 au  H             1.00      1 D:xy           16
                        (      69.917 eV)
   340     340       --         2.569 au  H             1.00      1 D:xz           16
                        (      69.917 eV)
   341     341       --         2.569 au  H             1.00      1 D:yz           16
                        (      69.917 eV)
   342     342      1.000      -0.240 au  H             1.00      1 S              17
                        (      -6.532 eV)
   343     343       --         0.088 au  H             1.00      2 S              17
                        (       2.394 eV)
   344     344       --         1.502 au  H             1.00      3 S              17
                        (      40.869 eV)
   345     345       --         0.406 au  H             1.00      1 P:x            17
                        (      11.051 eV)
   346     346       --         0.406 au  H             1.00      1 P:y            17
                        (      11.051 eV)
   347     347       --         0.406 au  H             1.00      1 P:z            17
                        (      11.051 eV)
   348     348       --         2.569 au  H             1.00      1 D:z2           17
                        (      69.917 eV)
   349     349       --         2.569 au  H             1.00      1 D:x2-y2        17
                        (      69.917 eV)
   350     350       --         2.569 au  H             1.00      1 D:xy           17
                        (      69.917 eV)
   351     351       --         2.569 au  H             1.00      1 D:xz           17
                        (      69.917 eV)
   352     352       --         2.569 au  H             1.00      1 D:yz           17
                        (      69.917 eV)
   353     353      1.000      -0.240 au  H             1.00      1 S              18
                        (      -6.532 eV)
   354     354       --         0.088 au  H             1.00      2 S              18
                        (       2.394 eV)
   355     355       --         1.502 au  H             1.00      3 S              18
                        (      40.869 eV)
   356     356       --         0.406 au  H             1.00      1 P:x            18
                        (      11.051 eV)
   357     357       --         0.406 au  H             1.00      1 P:y            18
                        (      11.051 eV)
   358     358       --         0.406 au  H             1.00      1 P:z            18
                        (      11.051 eV)
   359     359       --         2.569 au  H             1.00      1 D:z2           18
                        (      69.917 eV)
   360     360       --         2.569 au  H             1.00      1 D:x2-y2        18
                        (      69.917 eV)
   361     361       --         2.569 au  H             1.00      1 D:xy           18
                        (      69.917 eV)
   362     362       --         2.569 au  H             1.00      1 D:xz           18
                        (      69.917 eV)
   363     363       --         2.569 au  H             1.00      1 D:yz           18
                        (      69.917 eV)
   364     364      1.000      -0.240 au  H             1.00      1 S              19
                        (      -6.532 eV)
   365     365       --         0.088 au  H             1.00      2 S              19
                        (       2.394 eV)
   366     366       --         1.502 au  H             1.00      3 S              19
                        (      40.869 eV)
   367     367       --         0.406 au  H             1.00      1 P:x            19
                        (      11.051 eV)
   368     368       --         0.406 au  H             1.00      1 P:y            19
                        (      11.051 eV)
   369     369       --         0.406 au  H             1.00      1 P:z            19
                        (      11.051 eV)
   370     370       --         2.569 au  H             1.00      1 D:z2           19
                        (      69.917 eV)
   371     371       --         2.569 au  H             1.00      1 D:x2-y2        19
                        (      69.917 eV)
   372     372       --         2.569 au  H             1.00      1 D:xy           19
                        (      69.917 eV)
   373     373       --         2.569 au  H             1.00      1 D:xz           19
                        (      69.917 eV)
   374     374       --         2.569 au  H             1.00      1 D:yz           19
                        (      69.917 eV)
   375     375      1.000      -0.240 au  H             1.00      1 S              20
                        (      -6.532 eV)
   376     376       --         0.088 au  H             1.00      2 S              20
                        (       2.394 eV)
   377     377       --         1.502 au  H             1.00      3 S              20
                        (      40.869 eV)
   378     378       --         0.406 au  H             1.00      1 P:x            20
                        (      11.051 eV)
   379     379       --         0.406 au  H             1.00      1 P:y            20
                        (      11.051 eV)
   380     380       --         0.406 au  H             1.00      1 P:z            20
                        (      11.051 eV)
   381     381       --         2.569 au  H             1.00      1 D:z2           20
                        (      69.917 eV)
   382     382       --         2.569 au  H             1.00      1 D:x2-y2        20
                        (      69.917 eV)
   383     383       --         2.569 au  H             1.00      1 D:xy           20
                        (      69.917 eV)
   384     384       --         2.569 au  H             1.00      1 D:xz           20
                        (      69.917 eV)
   385     385       --         2.569 au  H             1.00      1 D:yz           20
                        (      69.917 eV)



 ================================
 (Slater-type)  F U N C T I O N S  ***  (Basis and Fit)  ***
 ================================
  

 Atom Type    1  (C)
 ==============

 Valence Basis Sets:  10
 -----------------------
   1 S    7.680000
   1 S    5.000000
   2 S    1.280000
   2 S    2.100000
   2 S    4.600000
   2 P    0.820000
   2 P    1.480000
   2 P    2.940000
   3 D    2.200000
   4 F    3.300000

 Atom Type    2  (O)
 ==============

 Valence Basis Sets:  10
 -----------------------
   1 S    9.800000
   1 S    6.800000
   2 S    7.580000
   2 S    2.880000
   2 S    1.720000
   2 P    4.080000
   2 P    2.080000
   2 P    1.120000
   3 D    2.000000
   4 F    3.000000

 Atom Type    3  (N)
 ==============

 Valence Basis Sets:  10
 -----------------------
   1 S    8.740000
   1 S    5.900000
   2 S    5.150000
   2 S    2.500000
   2 S    1.500000
   2 P    3.680000
   2 P    1.880000
   2 P    1.000000
   3 D    2.200000
   4 F    3.300000

 Atom Type    4  (H)
 ==============

 Valence Basis Sets:   5
 -----------------------
   1 S    0.690000
   1 S    0.920000
   1 S    1.580000
   2 P    1.250000
   3 D    2.500000


 BAS: List of all Elementary Cartesian Basis Functions
 =====================================================

 The numbering in the list below (to the right of the function characteristics) is referred
 to in print-outs of MO eigenvectors and Mulliken populations in the BAS representation
 (as contrasted to the SFO representation).

 Notes:
 1. The functions are characterized by a polynomial prefactor (powers of x,y,z and r) and
    an exponential decay factor alpha.
 2. Since the basis sets are specific for an atom TYPE, the individual functions occur on
    all atoms of that type.
 3. The word 'Core' in the left margin signals that it is a Core Function (CF) : not a
    degree of freedom in the valence set, but only used to ensure orthogonalization of
    the other valence basis functions on the frozen Core Orbitals.


 (power of) X  Y  Z  R     Alpha  on Atom
            ==========     =====     ==========

 C                                    1    2    3    4    5    6    7
                                  ---------------------------------------------------------------------------
            0  0  0  0     7.680      1   31   61   91  121  151  181
            0  0  0  0     5.000      2   32   62   92  122  152  182
            0  0  0  1     1.280      3   33   63   93  123  153  183
            0  0  0  1     2.100      4   34   64   94  124  154  184
            0  0  0  1     4.600      5   35   65   95  125  155  185
            1  0  0  0     0.820      6   36   66   96  126  156  186
            0  1  0  0     0.820      7   37   67   97  127  157  187
            0  0  1  0     0.820      8   38   68   98  128  158  188
            1  0  0  0     1.480      9   39   69   99  129  159  189
            0  1  0  0     1.480     10   40   70  100  130  160  190
            0  0  1  0     1.480     11   41   71  101  131  161  191
            1  0  0  0     2.940     12   42   72  102  132  162  192
            0  1  0  0     2.940     13   43   73  103  133  163  193
            0  0  1  0     2.940     14   44   74  104  134  164  194
            2  0  0  0     2.200     15   45   75  105  135  165  195
            1  1  0  0     2.200     16   46   76  106  136  166  196
            1  0  1  0     2.200     17   47   77  107  137  167  197
            0  2  0  0     2.200     18   48   78  108  138  168  198
            0  1  1  0     2.200     19   49   79  109  139  169  199
            0  0  2  0     2.200     20   50   80  110  140  170  200
            3  0  0  0     3.300     21   51   81  111  141  171  201
            2  1  0  0     3.300     22   52   82  112  142  172  202
            2  0  1  0     3.300     23   53   83  113  143  173  203
            1  2  0  0     3.300     24   54   84  114  144  174  204
            1  1  1  0     3.300     25   55   85  115  145  175  205
            1  0  2  0     3.300     26   56   86  116  146  176  206
            0  3  0  0     3.300     27   57   87  117  147  177  207
            0  2  1  0     3.300     28   58   88  118  148  178  208
            0  1  2  0     3.300     29   59   89  119  149  179  209
            0  0  3  0     3.300     30   60   90  120  150  180  210

 O                                    8    9   10
                                  ---------------------------------------------------------------------------
            0  0  0  0     9.800    211  241  271
            0  0  0  0     6.800    212  242  272
            0  0  0  1     7.580    213  243  273
            0  0  0  1     2.880    214  244  274
            0  0  0  1     1.720    215  245  275
            1  0  0  0     4.080    216  246  276
            0  1  0  0     4.080    217  247  277
            0  0  1  0     4.080    218  248  278
            1  0  0  0     2.080    219  249  279
            0  1  0  0     2.080    220  250  280
            0  0  1  0     2.080    221  251  281
            1  0  0  0     1.120    222  252  282
            0  1  0  0     1.120    223  253  283
            0  0  1  0     1.120    224  254  284
            2  0  0  0     2.000    225  255  285
            1  1  0  0     2.000    226  256  286
            1  0  1  0     2.000    227  257  287
            0  2  0  0     2.000    228  258  288
            0  1  1  0     2.000    229  259  289
            0  0  2  0     2.000    230  260  290
            3  0  0  0     3.000    231  261  291
            2  1  0  0     3.000    232  262  292
            2  0  1  0     3.000    233  263  293
            1  2  0  0     3.000    234  264  294
            1  1  1  0     3.000    235  265  295
            1  0  2  0     3.000    236  266  296
            0  3  0  0     3.000    237  267  297
            0  2  1  0     3.000    238  268  298
            0  1  2  0     3.000    239  269  299
            0  0  3  0     3.000    240  270  300

 N                                   11
                                  ---------------------------------------------------------------------------
            0  0  0  0     8.740    301
            0  0  0  0     5.900    302
            0  0  0  1     5.150    303
            0  0  0  1     2.500    304
            0  0  0  1     1.500    305
            1  0  0  0     3.680    306
            0  1  0  0     3.680    307
            0  0  1  0     3.680    308
            1  0  0  0     1.880    309
            0  1  0  0     1.880    310
            0  0  1  0     1.880    311
            1  0  0  0     1.000    312
            0  1  0  0     1.000    313
            0  0  1  0     1.000    314
            2  0  0  0     2.200    315
            1  1  0  0     2.200    316
            1  0  1  0     2.200    317
            0  2  0  0     2.200    318
            0  1  1  0     2.200    319
            0  0  2  0     2.200    320
            3  0  0  0     3.300    321
            2  1  0  0     3.300    322
            2  0  1  0     3.300    323
            1  2  0  0     3.300    324
            1  1  1  0     3.300    325
            1  0  2  0     3.300    326
            0  3  0  0     3.300    327
            0  2  1  0     3.300    328
            0  1  2  0     3.300    329
            0  0  3  0     3.300    330

 H                                   12   13   14   15   16   17   18   19   20
                                  ---------------------------------------------------------------------------
            0  0  0  0     0.690    331  343  355  367  379  391  403  415  427
            0  0  0  0     0.920    332  344  356  368  380  392  404  416  428
            0  0  0  0     1.580    333  345  357  369  381  393  405  417  429
            1  0  0  0     1.250    334  346  358  370  382  394  406  418  430
            0  1  0  0     1.250    335  347  359  371  383  395  407  419  431
            0  0  1  0     1.250    336  348  360  372  384  396  408  420  432
            2  0  0  0     2.500    337  349  361  373  385  397  409  421  433
            1  1  0  0     2.500    338  350  362  374  386  398  410  422  434
            1  0  1  0     2.500    339  351  363  375  387  399  411  423  435
            0  2  0  0     2.500    340  352  364  376  388  400  412  424  436
            0  1  1  0     2.500    341  353  365  377  389  401  413  425  437
            0  0  2  0     2.500    342  354  366  378  390  402  414  426  438

 Total number of charge fitting functions (nprimf)      1374
 Total number of Cartesian basis functions (naos)        438
 Total number of Cartesian core functions  (ncos)          0

 ***************************************************************************************************



                                              ***********************
                                              *  T E C H N I C A L  *
                                              ***********************
  



 =============================================================
 P A R A L L E L I Z A T I O N  and  V E C T O R I Z A T I O N
 =============================================================
  
 Nr of parallel processes:                                1
 Maximum vector length in NumInt loops:                 128



 =====================
 S C F   U P D A T E S
 =====================
  
 Max. nr. of cycles:                               200
 Convergence criterion:                              0.0000010000
   secondary criterion:                              0.0010000000

 Mix parameter (when DIIS does not apply):           0.2000000000
 Mixed ADIIS+SDIIS will be used                  
    Max number of expansion vectors:                10
    Pure ADIIS when Max([F,P]) is above              0.1000000000
    Pure SDIIS when Max([F,P]) is below              0.0010000000
 Automatic ElectronSmearing (in case of problematic SCF convergence) disabled



 =================
 P R E C I S I O N  ***  (General: NumInt, NeglectFunctionTails, ...)  ***
 =================
  

 NumInt:           Target precision:                 4.0000000000
 -------           Initial precision:                4.0000000000
                   Min. precision (optimization):    4.0000000000

 Neglect Functions:          Basis functions:        0.1000000000E-05
 ------------------          Fit functions:          0.1000000000E-05



 ===========================
 L I N E A R   S C A L I N G
 ===========================
  

 Cut-off radii density fit:                        0.1000000000E-07
 Overlap cut-off criterion AO matrix elements:     0.1000000000E-05
 Cut-offs for Coulomb potential and fitted density:0.1000000000E-07
 Cut-off criterion for Coulomb multipole terms:    0.1000000000E-07
 Progressive Convergence parameter:                 0.000000000    
 ***************************************************************************************************



                                            ***************************
                                            *  C O M P U T A T I O N  *
                                            ***************************
  

 Number of elements of the density matrix on this node (used, total):     96141     96141



 ===========================================
 Numerical Integration : Fuzzy Cells (Becke)
 ===========================================
  
 Becke grid quality: NORMAL         
  
 Lebedev angular grid order:             min:  11 max:  23
 Nr. of radial points:                   min:  46 max:  52

 Total nr. of points:     129581
 Nr. of blocks:             1013
 Block length:               128
 Nr. of dummy points:         83


 Test of Precision of the Numerical Integration Grid
 ===================================================

 Integral of the Total Core Density:                   0.00000000000000



 ========================
 Density Fitting (zlmFit)
 ========================
  
 ZlmFit Fit Quality: NORMAL         
  
 Max L-expansion:                        min:   6 max:   7
 Nr. of radial interpolation points:     min:  39 max:  54



 =====
 S C F  ***  ScaSCF  ***
 =====
  
 Initial density matrix is calculated as sum of fragments

 CYCLE    1
 SCF Error: norm([F,P])=      8.080292523386, max([F,P])=      1.497057869714
 orbitals (Q,E):
 ---------------
 A :32...51          ( 2.00    -0.5272)  ( 2.00    -0.5109)  ( 2.00    -0.4880)  ( 2.00    -0.4711)
                     ( 2.00    -0.4676)  ( 2.00    -0.4545)  ( 2.00    -0.4160)  ( 2.00    -0.4137)
                     ( 2.00    -0.3940)  ( 2.00    -0.3181)  ( 0.00    -0.2342)  ( 0.00    -0.1880)
                     ( 0.00    -0.1345)  ( 0.00    -0.1249)  ( 0.00    -0.0650)  ( 0.00    -0.0579)
                     ( 0.00    -0.0439)  ( 0.00    -0.0330)  ( 0.00    -0.0234)  ( 0.00    -0.0191)

 CYCLE    2
   MIX coefficients:  0.8000  0.2000
 SCF Error: norm([F,P])=      1.479628728404, max([F,P])=      0.201023704667
 orbitals (Q,E):
 ---------------
 A :32...42          ( 2.00    -0.4670)  ( 2.00    -0.4580)  ( 2.00    -0.4378)  ( 2.00    -0.4228)
                     ( 2.00    -0.4071)  ( 2.00    -0.4006)  ( 2.00    -0.3642)  ( 2.00    -0.3495)
                     ( 2.00    -0.3104)  ( 2.00    -0.2782)  ( 0.00    -0.1933)

 CYCLE    3
  SDIIS (wt  0.000): -0.4922  1.4922
 A-DIIS (wt  1.000):  0.0000  1.0000
  DIIS coefficients:  0.0000  1.0000
 SCF Error: norm([F,P])=      0.687756567206, max([F,P])=      0.096091598207
 orbitals (Q,E):
 ---------------
 A :32...42          ( 2.00    -0.3034)  ( 2.00    -0.2927)  ( 2.00    -0.2884)  ( 2.00    -0.2568)
                     ( 2.00    -0.2502)  ( 2.00    -0.2432)  ( 2.00    -0.2001)  ( 2.00    -0.1697)
                     ( 2.00    -0.1432)  ( 2.00    -0.1297)  ( 0.00    -0.0555)

 CYCLE    4
  SDIIS (wt  0.000):  0.0209  0.5818  0.3973
 A-DIIS (wt  1.000): -0.0000  0.6622  0.3378
  DIIS coefficients: -0.0000  0.6622  0.3378
 SCF Error: norm([F,P])=      1.053546208243, max([F,P])=      0.145907172882
 orbitals (Q,E):
 ---------------
 A :32...42          ( 2.00    -0.3445)  ( 2.00    -0.3444)  ( 2.00    -0.3348)  ( 2.00    -0.3205)
[...]
                                   -1.06%     2 S               2.394  0.00    20 H
                                    1.06%     2 S               2.394  0.00    15 H
                                    1.05%     2 P:y             4.589  0.00     4 C
                                    1.01%     2 S               2.394  0.00    12 H
       1.427  0.00    53 A         34.03%     1 S              -6.532  1.00    12 H
                                   29.00%     2 S               2.394  0.00    12 H
                                   25.66%     1 S              -6.532  1.00    13 H
                                  -21.91%     2 P:z             4.589  0.00     1 C
                                   20.99%     2 S               2.394  0.00    13 H
                                   -3.93%     2 P:x             4.589  0.00     1 C
                                   -3.04%     2 P:y             4.589  0.00     1 C
                                    2.92%     1 P:z            -5.239  0.67     1 C
                                    2.45%     3 S              40.869  0.00    12 H
                                    2.18%     3 S              40.869  0.00    13 H
                                    1.64%     2 P:z             4.589  0.00     2 C
                                    1.31%     2 P:z             4.589  0.00     3 C
                                    1.20%     1 P:z            11.051  0.00    12 H
       1.841  0.00    54 A         24.54%     1 S              -6.532  1.00    18 H
                                   22.17%     2 P:z             4.589  0.00     5 C
                                   14.45%     1 P:z            -5.239  0.67     7 C
                                   -9.87%     2 P:z             4.589  0.00     7 C
                                    9.44%     1 S              -6.532  1.00    20 H
                                    8.95%     1 S              -6.532  1.00    19 H
                                    8.88%     1 P:z            -5.239  0.67     5 C
                                    5.89%     1 S              -6.532  1.00    15 H
                                   -5.24%     3 S              10.158  0.00     4 C
                                    4.20%     2 P:x             4.589  0.00     7 C
                                   -4.14%     2 S               2.394  0.00    19 H
                                    3.62%     2 S               2.394  0.00    15 H
                                   -3.53%     3 S              10.158  0.00     6 C
                                   -3.21%     2 P:y             4.589  0.00     5 C
                                    3.21%     1 P:z            -5.239  0.67     4 C
                                    3.20%     2 S               2.394  0.00    18 H
                                    2.69%     1 S              -6.532  1.00    17 H
                                    2.56%     2 P:y             4.589  0.00     6 C
                                   -2.34%     2 S             -13.620  2.00     6 C
                                    2.15%     1 P:x            -5.239  0.67     7 C
                                    1.80%     2 P:z             4.589  0.00     4 C
                                    1.74%     1 P:y            -5.239  0.67     6 C
                                    1.72%     2 P:y             4.589  0.00     7 C
                                   -1.72%     2 S               2.394  0.00    17 H
                                    1.68%     2 P:x             4.589  0.00     3 C
                                    1.41%     1 P:x            -5.239  0.67     4 C
                                    1.24%     2 S               2.394  0.00    16 H
                                    1.23%     3 S              40.869  0.00    18 H
                                    1.06%     1 P:y            -5.239  0.67     5 C
                                   -1.06%     2 S               2.394  0.00    20 H
                                   -1.05%     3 S              10.158  0.00     5 C
       1.996  0.00    55 A         16.96%     1 S              -6.532  1.00    19 H
                                   15.89%     2 S               2.394  0.00    19 H
                                   15.82%     1 S              -6.532  1.00    16 H
                                   -9.58%     2 P:z             4.589  0.00     7 C
                                    8.01%     2 S               2.394  0.00    16 H
                                    7.69%     1 S              -6.532  1.00    18 H
                                    6.77%     1 P:y            -5.239  0.67     5 C
                                    5.78%     2 P:y             4.589  0.00     7 C
                                    5.09%     1 P:x            -5.239  0.67     7 C
                                    4.66%     1 P:z            -5.239  0.67     5 C
                                    4.54%     1 P:x            -5.239  0.67     4 C
                                    4.24%     1 S              -6.532  1.00    17 H
                                   -3.97%     2 P:y             4.589  0.00     5 C
                                   -3.40%     3 S              10.158  0.00     6 C
                                    3.27%     2 S               2.394  0.00    18 H
                                   -2.97%     2 P:x             4.589  0.00     7 C
                                    2.95%     3 S              40.869  0.00    19 H
                                   -2.74%     3 S              10.158  0.00     4 C
                                    2.52%     1 P:y            -5.239  0.67     6 C
                                   -2.02%     2 S               2.394  0.00    17 H
                                    1.87%     1 P:z            -5.239  0.67     6 C
                                    1.74%     1 P:y            -5.239  0.67     4 C
                                    1.69%     1 S              -6.532  1.00    13 H
                                    1.46%     3 S              40.869  0.00    16 H
                                    1.36%     1 P:y            -5.239  0.67     7 C
                                    1.31%     2 P:z             7.649  0.00    11 N
                                    1.25%     2 P:z             4.589  0.00     5 C
                                   -1.23%     2 P:x             7.649  0.00    11 N
                                   -1.15%     2 S             -13.620  2.00     6 C
                                    1.13%     1 P:x            -7.062  1.00    11 N



 =======================================================================
 Electrostatic potential at the Nuclei due to electrons and other nuclei
 =======================================================================
  
         Atom                  Potential
         ----                  ---------
     1)   C                  14.72096043
     2)   O                  22.33807587
     3)   C                  14.64873355
     4)   O                  22.40688283
     5)   C                  14.73365108
     6)   N                  18.34640475
     7)   C                  14.73061896
     8)   C                  14.76365670
     9)   C                  14.70667445
    10)   C                  14.77753364
    11)   O                  22.42051527
    12)   H                   1.09165234
    13)   H                   1.09147694
    14)   H                   1.08915493
    15)   H                   1.08923279
    16)   H                   1.08983717
    17)   H                   1.09198212
    18)   H                   1.10141630
    19)   H                   1.08687308
    20)   H                   1.08961102
 Mulliken charges used for AMS results%charges...


    =====================
     CALCULATION RESULTS
    =====================

Energy (hartree)            -4.31651034


--------------
Atomic charges
--------------
  Index   Atom    Charge
      1      C    0.9453
      2      O   -0.5182
      3      C    0.7327
      4      O   -0.5304
      5      C    0.0131
      6      N   -0.1098
      7      C    0.0503
      8      C    0.6230
      9      C    0.4323
     10      C    0.5819
     11      O   -0.5083
     12      H   -0.1738
     13      H   -0.1791
     14      H   -0.2257
     15      H   -0.1924
     16      H   -0.1754
     17      H   -0.2053
     18      H   -0.2006
     19      H   -0.1692
     20      H   -0.1904


Dipole moment vector    (Debye):     1.01874432   -1.34094730    4.28133121
              magnitude (Debye):     4.60062785


-----------------------
Molecular orbitals info
-----------------------
n orbitals:              385
n spin:                    1

Note: only printing virtual orbitals with
      energy smaller than HOMO + 100. eV

HOMO (eV):              -5.2707
LUMO (eV):              -3.1140
HOMO-LUMO gap (eV):      2.1567

   Index   Energy (eV)    Occupation
     248       94.6172         0.000       
     247       94.3317         0.000       
     246       94.1858         0.000       
     245       94.0142         0.000       
     244       93.6930         0.000       
     243       92.9932         0.000       
     242       92.5550         0.000       
     241       92.3929         0.000       
     240       91.5939         0.000       
     239       91.3612         0.000       
     238       90.6767         0.000       
     237       90.5077         0.000       
     236       89.9693         0.000       
     235       89.4029         0.000       
     234       89.1451         0.000       
     233       88.4945         0.000       
     232       88.0767         0.000       
     231       86.6008         0.000       
     230       86.1554         0.000       
     229       84.6048         0.000       
     228       83.7649         0.000       
     227       83.2466         0.000       
     226       82.8458         0.000       
     225       82.1932         0.000       
     224       81.4205         0.000       
     223       80.7290         0.000       
     222       79.8225         0.000       
     221       79.7088         0.000       
     220       79.4041         0.000       
     219       78.5779         0.000       
     218       78.1578         0.000       
     217       77.5507         0.000       
     216       77.1333         0.000       
     215       76.9919         0.000       
     214       76.9185         0.000       
     213       76.5096         0.000       
     212       76.2408         0.000       
     211       75.9314         0.000       
     210       75.6149         0.000       
     209       75.2356         0.000       
     208       75.1075         0.000       
     207       74.8999         0.000       
     206       73.7334         0.000       
     205       73.3762         0.000       
     204       72.9797         0.000       
     203       70.0560         0.000       
     202       69.6581         0.000       
     201       69.1807         0.000       
     200       68.0718         0.000       
     199       66.8585         0.000       
     198       66.4373         0.000       
     197       65.7002         0.000       
     196       65.2473         0.000       
     195       64.2491         0.000       
     194       63.8477         0.000       
     193       62.9978         0.000       
     192       62.6736         0.000       
     191       61.6663         0.000       
     190       60.7557         0.000       
     189       60.5526         0.000       
     188       58.8004         0.000       
     187       58.0208         0.000       
     186       57.6391         0.000       
     185       57.1683         0.000       
     184       56.7216         0.000       
     183       56.3838         0.000       
     182       55.8511         0.000       
     181       55.5193         0.000       
     180       54.8972         0.000       
     179       54.6487         0.000       
     178       54.2701         0.000       
     177       53.5913         0.000       
     176       52.8184         0.000       
     175       52.4266         0.000       
     174       51.2863         0.000       
     173       50.3660         0.000       
     172       49.9782         0.000       
     171       49.7130         0.000       
     170       48.9441         0.000       
     169       48.5584         0.000       
     168       48.1521         0.000       
     167       47.1626         0.000       
     166       47.0552         0.000       
     165       46.1841         0.000       
     164       46.0977         0.000       
     163       45.5678         0.000       
     162       45.0782         0.000       
     161       44.7070         0.000       
     160       44.0010         0.000       
     159       43.0595         0.000       
     158       42.0639         0.000       
     157       41.8008         0.000       
     156       41.6964         0.000       
     155       41.0955         0.000       
     154       40.7288         0.000       
     153       40.1014         0.000       
     152       39.6954         0.000       
     151       38.8506         0.000       
     150       38.7038         0.000       
     149       37.6876         0.000       
     148       37.2734         0.000       
     147       37.0913         0.000       
     146       36.3963         0.000       
     145       35.8788         0.000       
     144       35.4236         0.000       
     143       34.7874         0.000       
     142       34.6116         0.000       
     141       34.2924         0.000       
     140       33.8699         0.000       
     139       33.6211         0.000       
     138       32.9102         0.000       
     137       32.8955         0.000       
     136       32.3151         0.000       
     135       31.6511         0.000       
     134       31.2131         0.000       
     133       30.7388         0.000       
     132       30.2391         0.000       
     131       29.9084         0.000       
     130       29.7492         0.000       
     129       29.0464         0.000       
     128       28.8361         0.000       
     127       28.5023         0.000       
     126       28.1025         0.000       
     125       27.4464         0.000       
     124       27.0361         0.000       
     123       26.6998         0.000       
     122       26.2046         0.000       
     121       25.8805         0.000       
     120       25.5343         0.000       
     119       25.4464         0.000       
     118       25.1986         0.000       
     117       24.3116         0.000       
     116       23.9183         0.000       
     115       23.3624         0.000       
     114       22.8536         0.000       
     113       22.3238         0.000       
     112       22.1066         0.000       
     111       22.0055         0.000       
     110       21.6947         0.000       
     109       20.8492         0.000       
     108       19.9278         0.000       
     107       19.4707         0.000       
     106       19.0898         0.000       
     105       18.7434         0.000       
     104       18.2602         0.000       
     103       17.7900         0.000       
     102       17.0478         0.000       
     101       16.4765         0.000       
     100       15.8682         0.000       
      99       15.6818         0.000       
      98       15.1048         0.000       
      97       14.3581         0.000       
      96       13.9155         0.000       
      95       13.6210         0.000       
      94       13.5196         0.000       
      93       13.2523         0.000       
      92       12.6349         0.000       
      91       11.9634         0.000       
      90       11.6321         0.000       
      89       11.4802         0.000       
      88       11.4280         0.000       
      87       11.0322         0.000       
      86       10.7641         0.000       
      85       10.5332         0.000       
      84       10.3942         0.000       
      83        9.7787         0.000       
      82        9.5451         0.000       
      81        9.3037         0.000       
      80        9.2342         0.000       
      79        8.9861         0.000       
      78        8.6596         0.000       
      77        8.5105         0.000       
      76        7.9847         0.000       
      75        7.8587         0.000       
      74        7.3665         0.000       
      73        7.2875         0.000       
      72        7.0795         0.000       
      71        6.9905         0.000       
      70        6.8026         0.000       
      69        6.3281         0.000       
      68        6.0742         0.000       
      67        5.5828         0.000       
      66        5.2354         0.000       
      65        4.9666         0.000       
      64        4.6672         0.000       
      63        4.5669         0.000       
      62        4.0219         0.000       
      61        4.0035         0.000       
      60        3.9538         0.000       
      59        3.5979         0.000       
      58        3.4827         0.000       
      57        2.9592         0.000       
      56        2.6345         0.000       
      55        1.9958         0.000       
      54        1.8414         0.000       
      53        1.4266         0.000       
      52        1.2568         0.000       
      51        1.1871         0.000       
      50        0.9388         0.000       
      49        0.7561         0.000       
      48        0.4365         0.000       
      47       -0.0306         0.000       
      46       -0.1401         0.000       
      45       -0.4454         0.000       
      44       -0.7733         0.000       
      43       -1.8968         0.000       
      42       -3.1140         0.000 < LUMO
      41       -5.2707         2.000 < HOMO
      40       -5.8380         2.000       
      39       -6.9525         2.000       
      38       -7.5805         2.000       
      37       -8.5531         2.000       
      36       -8.6349         2.000       
      35       -8.9147         2.000       
      34       -9.5416         2.000       
      33       -9.8236         2.000       
      32      -10.0184         2.000       
      31      -10.2335         2.000       
      30      -10.3058         2.000       
      29      -10.6230         2.000       
      28      -10.6722         2.000       
      27      -11.4850         2.000       
      26      -11.6201         2.000       
      25      -11.7589         2.000       
      24      -11.9912         2.000       
      23      -12.1889         2.000       
      22      -13.5873         2.000       
      21      -14.6952         2.000       
      20      -15.5307         2.000       
      19      -17.4584         2.000       
      18      -18.3741         2.000       
      17      -18.8630         2.000       
      16      -20.2986         2.000       
      15      -24.6450         2.000       
      14      -25.6477         2.000       
      13      -25.8490         2.000       
      12      -28.0723         2.000       
      11     -270.2531         2.000       
      10     -270.5894         2.000       
       9     -271.5748         2.000       
       8     -271.7535         2.000       
       7     -271.8095         2.000       
       6     -272.3039         2.000       
       5     -273.8146         2.000       
       4     -383.6337         2.000       
       3     -510.9617         2.000       
       2     -511.3343         2.000       
       1     -513.0866         2.000       

AMS application finished. Exiting.
NORMAL TERMINATION
     Total cpu time:      87.95
  Total system time:       0.84
 Total elapsed time:      89.36
NORMAL TERMINATION
