
 *******************************************************************************
 *                                                                             *
 *  --------------------------------                                           *
 *   Amsterdam Modeling Suite (AMS)              2026.103                      *
 *  --------------------------------                                           *
 *                                               r260501 2026-05-01 873454b5   *
 *                                                                             *
 *                                                                             *
 *                              =================                              *
 *                              |               |                              *
 *                              |     A M S     |                              *
 *                              |               |                              *
 *                              =================                              *
 *                                                                             *
 *                                                                             *
 *   Online information and documentation:  https://www.scm.com/support/       *
 *   E-mail:  support@scm.com   info@scm.com                                   *
 *                                                                             *
 *   Scientific publications using AMS results must be properly referenced     *
 *   See the User Manuals (or the web site) for recommended citations          *
 *   The terms and conditions of the End User License Agreement apply to       *
 *   the use of AMS, https://www.scm.com/license-terms/                        *
 *                                                                             *
 **********************  x86_64_linux_intel / intelmpi  ************************
 
 Licensed to: Jong-June Jeon / University of Seoul 2026-06-02 13:44:15
 SCM User ID: u30731
  
 AMS 2026.103  RunTime: Jun03-2026 11:30:36  ShM Nodes: 1  Procs: 1

 AMS jobname: c3_eda
 AMS jobid  : 2142154166

 Start   directory: /gpfs/home1/yeseo1ee/projects/eda-asm-prediction/ADF_800/adf_outputs/batch_003/qmrxn20_e2_A_A_C_E_C_D/
 Results directory: /gpfs/home1/yeseo1ee/projects/eda-asm-prediction/ADF_800/adf_outputs/batch_003/qmrxn20_e2_A_A_C_E_C_D/c3_eda.results/
 Scratch directory: /tmp/amstmp_c3_eda_kid0.2142154166/

 RNG seed: -131956925 1900911253 1459225154 -22127101 1928348389 1669782349 1296104290 -1467563559



                      ************************************************************************
                      *  ADF 2026.103  RunTime: Jun03-2026 11:30:36  ShM Nodes: 1  Procs: 1  *
                      ************************************************************************
  

       ****************************
       * SINGLE POINT CALCULATION *
       ****************************

--------
Geometry
--------
Formula: C3H5Br2N2
Atoms
  Index Symbol   x (angstrom)   y (angstrom)   z (angstrom)
      1     Br     2.14569088    -0.51720227    -1.37391484 adf.f=fA
      2      C    -0.08075676     0.04710238    -0.37065234 adf.f=fB
      3      C     0.02555500     0.01002367     1.00493556 adf.f=fB
      4     Br    -3.09946997    -0.02137467     1.76750532 adf.f=fB
      5      H    -1.63085500     0.09951600     1.26206092 adf.f=fB
      6      H    -0.51044158    -0.82178286    -0.85155579 adf.f=fB
      7      H    -0.17391852     1.00207630    -0.87242146 adf.f=fB
      8      N     0.27069975    -1.27688722     1.58915674 adf.f=fB
      9      H     0.23352859    -1.23299303     2.59899228 adf.f=fB
     10      H     1.19682922    -1.58009245     1.29361436 adf.f=fB
     11      C     0.50760047     1.17322858     1.70045630 adf.f=fB
     12      N     0.85163791     2.10484557     2.33526296 adf.f=fB

Total System Charge             -1.00000


----------------
ADF Engine Input
----------------
 
   Basis
     Type TZ2P
     Core None
   End
   XC
     GGA BLYP
     Dispersion GRIMME3 BJDAMP
   End
   Symmetry NOSYM
   NumericalQuality Normal
   Unrestricted No
   SCF
     Iterations 200
     Converge 1.0e-6
   End
   fragments
     fA c1_fragA_ts.results/adf.rkf
     fB c2_fragB_ts.results/adf.rkf
   end
   etsnocv
     enocv 0.05
     ekmin 0.5
   end
   print etslowdin
   Save TAPE21
 

 Title: *** (NO TITLE) ***

 *** adf ***



 ===========================
 A T T A C H E D   F I L E S
 ===========================
  



 ===============================
 M O D E L   P A R A M E T E R S
 ===============================
  
 DENSITY FUNCTIONAL POTENTIAL (scf)
    LDA:                               Exchange only                           == Not Default ==
    Gradient Corrections:              Becke88 LYP                             == Not Default ==

 SPIN  (restricted / unrestr.)
    Molecule:                          Restricted                               
    Fragments:                         Restricted                               

 OTHER ASPECTS
    Relativistic Corrections:          scalar (ZORA,MAPA)                       

    Nuclear Charge Density Model:      Point Charge Nuclei                      
    Core Treatment:                    Frozen Orbital(s)                        

    Hyperfine or Zeeman Interaction:   ---                                      

 Settings for Grimme D3 dispersion correction

      damping                        BJ
      s6                          1.000
      s8                          2.700
      a1                          0.430
      a2                          4.236

 Other (technical) parameters

      alpha                      14.000
      version                         4
 


 Fragment File(s)
 ----------------
 fA:
         file : c1_fragA_ts.results/adf.rkf
         jobid: 1695103856
         title: *** adf ***
 fB:
         file : c2_fragB_ts.results/adf.rkf
         jobid: 1366170893
         title: *** adf ***



 ===============
 G E O M E T R Y  ***  3D  Molecule  ***
 ===============
  

 ATOMS
 =====                            X Y Z                    CHARGE
                                (Angstrom)             Nucl     +Core       At.Mass
                       --------------------------    ----------------       -------
    1  Br              2.1457   -0.5172   -1.3739     35.00     35.00       78.9183
    2  C              -0.0808    0.0471   -0.3707      6.00      6.00       12.0000
    3  C               0.0256    0.0100    1.0049      6.00      6.00       12.0000
    4  Br             -3.0995   -0.0214    1.7675     35.00     35.00       78.9183
    5  H              -1.6309    0.0995    1.2621      1.00      1.00        1.0078
    6  H              -0.5104   -0.8218   -0.8516      1.00      1.00        1.0078
    7  H              -0.1739    1.0021   -0.8724      1.00      1.00        1.0078
    8  N               0.2707   -1.2769    1.5892      7.00      7.00       14.0031
    9  H               0.2335   -1.2330    2.5990      1.00      1.00        1.0078
   10  H               1.1968   -1.5801    1.2936      1.00      1.00        1.0078
   11  C               0.5076    1.1732    1.7005      6.00      6.00       12.0000
   12  N               0.8516    2.1048    2.3353      7.00      7.00       14.0031


 FRAGMENTS
 =========                                     Atoms in this Fragment     Cart. coord.s (Angstrom)
                                               -------------------------------------------------------
    1  fA                                                1  Br           2.1457   -0.5172   -1.3739
    2  fB                                                2  C           -0.0808    0.0471   -0.3707
                                                         3  C            0.0256    0.0100    1.0049
                                                        11  C            0.5076    1.1732    1.7005
                                                         4  Br          -3.0995   -0.0214    1.7675
                                                         5  H           -1.6309    0.0995    1.2621
                                                         6  H           -0.5104   -0.8218   -0.8516
                                                         7  H           -0.1739    1.0021   -0.8724
                                                         9  H            0.2335   -1.2330    2.5990
                                                        10  H            1.1968   -1.5801    1.2936
                                                         8  N            0.2707   -1.2769    1.5892
                                                        12  N            0.8516    2.1048    2.3353


 Interatomic Distance Matrix (Angstrom)
 --------------------------------------

   1)     0.000
   2)     2.506   0.000
   3)     3.230   1.380   0.000
   4)     6.134   3.700   3.217   0.000
   5)     4.647   2.252   1.679   1.558   0.000
   6)     2.724   1.082   2.104   3.769   2.563   0.000
   7)     2.818   1.083   2.133   4.071   2.737   1.855   0.000
   8)     3.588   2.391   1.434   3.601   2.370   2.603   3.384   0.000
   9)     4.467   3.249   2.032   3.643   2.653   3.554   4.149   1.011   0.000
  10)     3.024   2.655   1.996   4.595   3.289   2.845   3.638   1.018   1.659   0.000
  11)     3.872   2.430   1.438   3.800   2.433   3.395   2.667   2.464   2.583   2.867
          0.000
  12)     4.723   3.525   2.615   4.523   3.367   4.536   3.544   3.511   3.405   3.845
          1.179   0.000

 Min. Distance =    1.0115
 Max. Distance =    6.1340



 =====================================
 S Y M M E T R Y ,   E L E C T R O N S
 =====================================
  
 Symmetry: NOSYM

 Irreducible Representations, including subspecies
 -------------------------------------------------
 A


 Configuration of Valence Electrons
 ==================================
 ( determined in the SCF procedure )

 Total:   108

 Net Charge: -1 (Nuclei minus Electrons)

 Aufbau principle for MO occupations will be applied through SCF cycle no.     100
 Thereafter, the program will assign electrons to MOs that are spatially
 similar to the occupied MOs in a "reference" cycle ("KeepOrbitals").
 The reference cycle is always the PREVIOUS cycle: it will evolve with
 the SCF procedure.
 ***************************************************************************************************



                                      ****************************************
                                      *  B U I L D : (Fragments, Functions)  *
                                      ****************************************
  

 The individual fragments are copies of the corresponding 'Master' fragments defined on the fragment files.
 However, they may have been rotated (and translated) with respect to the Master. The local coordinate axes
 of each fragment (which define for instance the spatial orientation in the current molecule of a fragment
 P:x orbital) are not necessarily those of the molecule.
 The local frame (if different from the molecular one) is printed to enable an interpretation of the expan-
 sion of an MO in Fragment Orbitals.



                                              ************************
                                              *  Fragment Type : fA  *
                                              ************************
  

 Fragment no.    1   (in the list of all fragments)
 -----------------
 The local coordinate frame is identical to the molecular frame.

 Check Atomic Coordinates:

                  Master (on file)          After Computed Tranformation               As specified on Input
           ----------------------------     ----------------------------     ---------------------------------
     1)     2.14569  -0.51720  -1.37391      2.14569  -0.51720  -1.37391       1   2.14569  -0.51720  -1.37391



                                              ************************
                                              *  Fragment Type : fB  *
                                              ************************
  

 Fragment no.    2   (in the list of all fragments)
 -----------------
 The local coordinate frame is identical to the molecular frame.

 Check Atomic Coordinates:

                  Master (on file)          After Computed Tranformation               As specified on Input
           ----------------------------     ----------------------------     ---------------------------------
     1)    -0.08076   0.04710  -0.37065     -0.08076   0.04710  -0.37065       2  -0.08076   0.04710  -0.37065
     2)     0.02555   0.01002   1.00494      0.02555   0.01002   1.00494       3   0.02555   0.01002   1.00494
     3)     0.50760   1.17323   1.70046      0.50760   1.17323   1.70046      11   0.50760   1.17323   1.70046
     4)    -3.09947  -0.02137   1.76751     -3.09947  -0.02137   1.76751       4  -3.09947  -0.02137   1.76751
     5)    -1.63085   0.09952   1.26206     -1.63085   0.09952   1.26206       5  -1.63085   0.09952   1.26206
     6)    -0.51044  -0.82178  -0.85156     -0.51044  -0.82178  -0.85156       6  -0.51044  -0.82178  -0.85156
     7)    -0.17392   1.00208  -0.87242     -0.17392   1.00208  -0.87242       7  -0.17392   1.00208  -0.87242
     8)     0.23353  -1.23299   2.59899      0.23353  -1.23299   2.59899       9   0.23353  -1.23299   2.59899
     9)     1.19683  -1.58009   1.29361      1.19683  -1.58009   1.29361      10   1.19683  -1.58009   1.29361
    10)     0.27070  -1.27689   1.58916      0.27070  -1.27689   1.58916       8   0.27070  -1.27689   1.58916
    11)     0.85164   2.10485   2.33526      0.85164   2.10485   2.33526      12   0.85164   2.10485   2.33526



 =======
 S F O s  ***  (Symmetrized Fragment Orbitals)  ***
 =======
  
 SFOs are linear combinations of (valence) Fragment Orbitals (FOs), such that the SFOs transform as the
 irreducible representations of the (molecular) symmetry group. Each SFO is therefore characterized by
 an irrep of the molecule and by a few (or only one) generating FOs.
 The SFOs constitute a symmetry-adapted basis for the Fock matrix. The MO eigenvector coefficients in
 this basis provide a direct interpretation of the MOs in terms of Frontier Orbital Theory.

 The SFOs are combined with auxiliary Core Functions (CFs) to ensure orthogonalization on the (frozen)
 Core Orbitals (COs). The Core-orthogonalized SFOs (CSFOs) constitute the true Fock basis.

 The FOs, and hence also the (C)SFOs are combinations of the elementary basis functions (BAS). The basis
 functions that participate in the description of the SFOs depend on the irrep. The indices of the
 involved functions are printed below for each irrep.
 (The complete list of primitive basis functions is printed in another section)

 Total nr. of (C)SFOs (summation over all irreps) :   297

 NOTE: a (C)SFO that is defined as a combination of more than one FO is usually NOT normalized.



                                       === A ===
 Nr. of SFOs :  297
 Cartesian basis functions that participate in this irrep (total number =   336) :
      1     2     3    10    11    36    37    38     4     7
     12    15    39    42    45     5     8    13    16    40
     43    46     6     9    14    17    41    44    47    18
     24    30    48    19    25    31    49    20    26    32
     50    21    27    33    51    22    28    34    52    23
     29    35    53    54    55    56    57    58    59    60
     61    62    63    64    65    66    67    68    69    72
     75    70    73    76    71    74    77    78    79    80
     81    82    83    84    85    86    87    88    89    90
     91    92    93    94    95    96    97    98    99   102
    105   100   103   106   101   104   107   108   109   110
    111   112   113   114   115   116   117   118   119   120
    121   122   123   124   125   126   127   128   129   132
    135   130   133   136   131   134   137   138   139   140
    141   142   143   144   145   146   147   148   149   150
    151   152   153   154   155   156   163   164   189   190
    191   157   160   165   168   192   195   198   158   161
    166   169   193   196   199   159   162   167   170   194
    197   200   171   177   183   201   172   178   184   202
    173   179   185   203   174   180   186   204   175   181
    187   205   176   182   188   206   207   208   209   210
    211   212   213   214   215   216   217   218   219   220
    221   222   223   224   225   226   227   228   229   230
    231   232   233   234   235   236   237   238   239   240
    241   242   243   244   245   246   247   248   249   250
    251   252   253   254   255   256   257   258   259   260
    261   262   263   264   265   266   267   268   269   270
    271   272   273   274   275   276   277   278   279   280
    281   282   285   288   283   286   289   284   287   290
    291   292   293   294   295   296   297   298   299   300
    301   302   303   304   305   306   307   308   309   310
    311   312   315   318   313   316   319   314   317   320
    321   322   323   324   325   326   327   328   329   330
    331   332   333   334   335   336

    SFO  (index         Fragment          Generating    Expansion in Fragment Orbitals
  indx  incl.CFs)   Occup   Orb.Energy   FragmentType  Coeff.   Orbital     on Fragment
 --------------------------------------------------------------------------------------
     1       1      2.000    -488.318 au  fA            1.00      1 A               1
                        (  -13287.798 eV)
     2       2      2.000     -63.253 au  fA            1.00      2 A               1
                        (   -1721.191 eV)
     3       3      2.000     -55.790 au  fA            1.00      3 A               1
                        (   -1518.110 eV)
     4       4      2.000     -55.790 au  fA            1.00      4 A               1
                        (   -1518.110 eV)
     5       5      2.000     -55.790 au  fA            1.00      5 A               1
                        (   -1518.110 eV)
     6       6      2.000      -8.371 au  fA            1.00      6 A               1
                        (    -227.798 eV)
     7       7      2.000      -6.028 au  fA            1.00      7 A               1
                        (    -164.026 eV)
     8       8      2.000      -6.028 au  fA            1.00      8 A               1
                        (    -164.026 eV)
     9       9      2.000      -6.028 au  fA            1.00      9 A               1
                        (    -164.026 eV)
    10      10      2.000      -2.113 au  fA            1.00     10 A               1
                        (     -57.501 eV)
    11      11      2.000      -2.113 au  fA            1.00     11 A               1
                        (     -57.501 eV)
    12      12      2.000      -2.113 au  fA            1.00     12 A               1
                        (     -57.501 eV)
    13      13      2.000      -2.113 au  fA            1.00     13 A               1
                        (     -57.501 eV)
    14      14      2.000      -2.113 au  fA            1.00     14 A               1
                        (     -57.501 eV)
    15      15      2.000      -0.411 au  fA            1.00     15 A               1
                        (     -11.197 eV)
    16      16      2.000       0.018 au  fA            1.00     16 A               1
                        (       0.483 eV)
    17      17      2.000       0.018 au  fA            1.00     17 A               1
                        (       0.483 eV)
    18      18      2.000       0.018 au  fA            1.00     18 A               1
                        (       0.483 eV)
    19      19       --         0.352 au  fA            1.00     19 A               1
                        (       9.586 eV)
    20      20       --         0.352 au  fA            1.00     20 A               1
                        (       9.586 eV)
    21      21       --         0.352 au  fA            1.00     21 A               1
                        (       9.586 eV)
    22      22       --         0.486 au  fA            1.00     22 A               1
                        (      13.238 eV)
    23      23       --         0.558 au  fA            1.00     23 A               1
                        (      15.187 eV)
    24      24       --         0.558 au  fA            1.00     24 A               1
                        (      15.187 eV)
    25      25       --         0.558 au  fA            1.00     25 A               1
                        (      15.187 eV)
    26      26       --         0.558 au  fA            1.00     26 A               1
                        (      15.187 eV)
    27      27       --         0.558 au  fA            1.00     27 A               1
                        (      15.187 eV)
    28      28       --         1.147 au  fA            1.00     28 A               1
                        (      31.199 eV)
    29      29       --         1.147 au  fA            1.00     29 A               1
                        (      31.199 eV)
    30      30       --         1.147 au  fA            1.00     30 A               1
                        (      31.199 eV)
    31      31       --         1.147 au  fA            1.00     31 A               1
                        (      31.199 eV)
    32      32       --         1.147 au  fA            1.00     32 A               1
                        (      31.199 eV)
    33      33       --         1.147 au  fA            1.00     33 A               1
                        (      31.199 eV)
    34      34       --         1.147 au  fA            1.00     34 A               1
                        (      31.199 eV)
    35      35       --         1.498 au  fA            1.00     35 A               1
                        (      40.750 eV)
    36      36       --         1.498 au  fA            1.00     36 A               1
                        (      40.750 eV)
    37      37       --         1.498 au  fA            1.00     37 A               1
                        (      40.750 eV)
    38      38       --         2.724 au  fA            1.00     38 A               1
                        (      74.134 eV)
    39      39       --         3.031 au  fA            1.00     39 A               1
                        (      82.480 eV)
    40      40       --         3.031 au  fA            1.00     40 A               1
                        (      82.480 eV)
    41      41       --         3.031 au  fA            1.00     41 A               1
                        (      82.480 eV)
    42      42       --         3.031 au  fA            1.00     42 A               1
                        (      82.480 eV)
    43      43       --         3.031 au  fA            1.00     43 A               1
                        (      82.480 eV)
    44      44       --         9.061 au  fA            1.00     44 A               1
                        (     246.549 eV)
    45      45       --         9.061 au  fA            1.00     45 A               1
                        (     246.549 eV)
    46      46       --         9.061 au  fA            1.00     46 A               1
                        (     246.549 eV)
    47      47       --        13.874 au  fA            1.00     47 A               1
                        (     377.522 eV)
    48      48       --        20.860 au  fA            1.00     48 A               1
                        (     567.625 eV)
    49      49       --        20.860 au  fA            1.00     49 A               1
                        (     567.625 eV)
    50      50       --        20.860 au  fA            1.00     50 A               1
                        (     567.625 eV)
    51      51       --        20.860 au  fA            1.00     51 A               1
                        (     567.625 eV)
    52      52       --        20.860 au  fA            1.00     52 A               1
                        (     567.625 eV)
    53      53       --        95.950 au  fA            1.00     53 A               1
                        (    2610.937 eV)
    54      54       --        95.950 au  fA            1.00     54 A               1
                        (    2610.937 eV)
    55      55       --        95.950 au  fA            1.00     55 A               1
                        (    2610.937 eV)
    56      56       --       615.512 au  fA            1.00     56 A               1
                        (   16748.929 eV)
    57      57      2.000    -488.607 au  fB            1.00      1 A               2
                        (  -13295.669 eV)
    58      58      2.000     -63.546 au  fB            1.00      2 A               2
                        (   -1729.176 eV)
    59      59      2.000     -56.085 au  fB            1.00      3 A               2
                        (   -1526.152 eV)
    60      60      2.000     -56.082 au  fB            1.00      4 A               2
                        (   -1526.056 eV)
    61      61      2.000     -56.081 au  fB            1.00      5 A               2
                        (   -1526.053 eV)
    62      62      2.000     -14.063 au  fB            1.00      6 A               2
                        (    -382.678 eV)
    63      63      2.000     -14.050 au  fB            1.00      7 A               2
                        (    -382.309 eV)
    64      64      2.000     -10.037 au  fB            1.00      8 A               2
                        (    -273.134 eV)
    65      65      2.000      -9.986 au  fB            1.00      9 A               2
                        (    -271.735 eV)
    66      66      2.000      -9.980 au  fB            1.00     10 A               2
                        (    -271.566 eV)
    67      67      2.000      -8.666 au  fB            1.00     11 A               2
                        (    -235.821 eV)
    68      68      2.000      -6.330 au  fB            1.00     12 A               2
                        (    -172.243 eV)
    69      69      2.000      -6.319 au  fB            1.00     13 A               2
                        (    -171.957 eV)
    70      70      2.000      -6.319 au  fB            1.00     14 A               2
                        (    -171.949 eV)
    71      71      2.000      -2.414 au  fB            1.00     15 A               2
                        (     -65.678 eV)
    72      72      2.000      -2.411 au  fB            1.00     16 A               2
                        (     -65.599 eV)
    73      73      2.000      -2.411 au  fB            1.00     17 A               2
                        (     -65.594 eV)
    74      74      2.000      -2.403 au  fB            1.00     18 A               2
                        (     -65.382 eV)
    75      75      2.000      -2.403 au  fB            1.00     19 A               2
                        (     -65.379 eV)
    76      76      2.000      -0.882 au  fB            1.00     20 A               2
                        (     -24.002 eV)
    77      77      2.000      -0.837 au  fB            1.00     21 A               2
                        (     -22.764 eV)
    78      78      2.000      -0.736 au  fB            1.00     22 A               2
                        (     -20.030 eV)
    79      79      2.000      -0.716 au  fB            1.00     23 A               2
                        (     -19.495 eV)
    80      80      2.000      -0.618 au  fB            1.00     24 A               2
                        (     -16.806 eV)
    81      81      2.000      -0.520 au  fB            1.00     25 A               2
                        (     -14.153 eV)
    82      82      2.000      -0.496 au  fB            1.00     26 A               2
                        (     -13.505 eV)
    83      83      2.000      -0.442 au  fB            1.00     27 A               2
                        (     -12.019 eV)
    84      84      2.000      -0.410 au  fB            1.00     28 A               2
                        (     -11.167 eV)
    85      85      2.000      -0.399 au  fB            1.00     29 A               2
                        (     -10.870 eV)
    86      86      2.000      -0.341 au  fB            1.00     30 A               2
                        (      -9.271 eV)
    87      87      2.000      -0.338 au  fB            1.00     31 A               2
                        (      -9.208 eV)
    88      88      2.000      -0.323 au  fB            1.00     32 A               2
                        (      -8.799 eV)
    89      89      2.000      -0.287 au  fB            1.00     33 A               2
                        (      -7.811 eV)
    90      90      2.000      -0.258 au  fB            1.00     34 A               2
                        (      -7.013 eV)
    91      91      2.000      -0.250 au  fB            1.00     35 A               2
                        (      -6.799 eV)
    92      92      2.000      -0.247 au  fB            1.00     36 A               2
                        (      -6.721 eV)
    93      93       --        -0.142 au  fB            1.00     37 A               2
                        (      -3.866 eV)
    94      94       --        -0.049 au  fB            1.00     38 A               2
                        (      -1.322 eV)
    95      95       --        -0.038 au  fB            1.00     39 A               2
                        (      -1.037 eV)
    96      96       --        -0.017 au  fB            1.00     40 A               2
                        (      -0.458 eV)
    97      97       --         0.005 au  fB            1.00     41 A               2
                        (       0.126 eV)
    98      98       --         0.014 au  fB            1.00     42 A               2
                        (       0.388 eV)
    99      99       --         0.028 au  fB            1.00     43 A               2
                        (       0.756 eV)
   100     100       --         0.051 au  fB            1.00     44 A               2
                        (       1.377 eV)
   101     101       --         0.065 au  fB            1.00     45 A               2
                        (       1.774 eV)
   102     102       --         0.093 au  fB            1.00     46 A               2
                        (       2.529 eV)
   103     103       --         0.119 au  fB            1.00     47 A               2
                        (       3.247 eV)
   104     104       --         0.142 au  fB            1.00     48 A               2
                        (       3.856 eV)
   105     105       --         0.145 au  fB            1.00     49 A               2
                        (       3.947 eV)
   106     106       --         0.153 au  fB            1.00     50 A               2
                        (       4.172 eV)
   107     107       --         0.160 au  fB            1.00     51 A               2
                        (       4.348 eV)
   108     108       --         0.173 au  fB            1.00     52 A               2
                        (       4.700 eV)
   109     109       --         0.184 au  fB            1.00     53 A               2
                        (       5.013 eV)
   110     110       --         0.191 au  fB            1.00     54 A               2
                        (       5.194 eV)
   111     111       --         0.203 au  fB            1.00     55 A               2
                        (       5.529 eV)
   112     112       --         0.220 au  fB            1.00     56 A               2
                        (       5.973 eV)
   113     113       --         0.226 au  fB            1.00     57 A               2
                        (       6.139 eV)
   114     114       --         0.243 au  fB            1.00     58 A               2
                        (       6.607 eV)
   115     115       --         0.276 au  fB            1.00     59 A               2
                        (       7.520 eV)
   116     116       --         0.293 au  fB            1.00     60 A               2
                        (       7.973 eV)
   117     117       --         0.297 au  fB            1.00     61 A               2
                        (       8.082 eV)
   118     118       --         0.307 au  fB            1.00     62 A               2
                        (       8.357 eV)
   119     119       --         0.323 au  fB            1.00     63 A               2
                        (       8.787 eV)
   120     120       --         0.343 au  fB            1.00     64 A               2
                        (       9.331 eV)
   121     121       --         0.361 au  fB            1.00     65 A               2
                        (       9.837 eV)
   122     122       --         0.383 au  fB            1.00     66 A               2
                        (      10.422 eV)
   123     123       --         0.391 au  fB            1.00     67 A               2
                        (      10.641 eV)
   124     124       --         0.412 au  fB            1.00     68 A               2
                        (      11.208 eV)
   125     125       --         0.444 au  fB            1.00     69 A               2
                        (      12.087 eV)
   126     126       --         0.450 au  fB            1.00     70 A               2
                        (      12.238 eV)
   127     127       --         0.488 au  fB            1.00     71 A               2
                        (      13.268 eV)
   128     128       --         0.503 au  fB            1.00     72 A               2
                        (      13.695 eV)
   129     129       --         0.516 au  fB            1.00     73 A               2
                        (      14.030 eV)
   130     130       --         0.585 au  fB            1.00     74 A               2
                        (      15.915 eV)
   131     131       --         0.592 au  fB            1.00     75 A               2
                        (      16.122 eV)
   132     132       --         0.616 au  fB            1.00     76 A               2
                        (      16.761 eV)
   133     133       --         0.637 au  fB            1.00     77 A               2
                        (      17.322 eV)
   134     134       --         0.660 au  fB            1.00     78 A               2
                        (      17.966 eV)
   135     135       --         0.707 au  fB            1.00     79 A               2
                        (      19.240 eV)
   136     136       --         0.709 au  fB            1.00     80 A               2
                        (      19.294 eV)
   137     137       --         0.757 au  fB            1.00     81 A               2
                        (      20.593 eV)
   138     138       --         0.807 au  fB            1.00     82 A               2
                        (      21.957 eV)
   139     139       --         0.851 au  fB            1.00     83 A               2
                        (      23.163 eV)
   140     140       --         0.855 au  fB            1.00     84 A               2
                        (      23.269 eV)
   141     141       --         0.877 au  fB            1.00     85 A               2
                        (      23.878 eV)
   142     142       --         0.889 au  fB            1.00     86 A               2
                        (      24.183 eV)
   143     143       --         0.901 au  fB            1.00     87 A               2
                        (      24.505 eV)
   144     144       --         0.909 au  fB            1.00     88 A               2
                        (      24.725 eV)
   145     145       --         0.928 au  fB            1.00     89 A               2
                        (      25.258 eV)
   146     146       --         0.938 au  fB            1.00     90 A               2
                        (      25.517 eV)
   147     147       --         0.952 au  fB            1.00     91 A               2
                        (      25.900 eV)
   148     148       --         0.989 au  fB            1.00     92 A               2
                        (      26.900 eV)
   149     149       --         1.006 au  fB            1.00     93 A               2
                        (      27.362 eV)
   150     150       --         1.052 au  fB            1.00     94 A               2
                        (      28.622 eV)
   151     151       --         1.067 au  fB            1.00     95 A               2
                        (      29.028 eV)
   152     152       --         1.086 au  fB            1.00     96 A               2
                        (      29.560 eV)
   153     153       --         1.115 au  fB            1.00     97 A               2
                        (      30.332 eV)
   154     154       --         1.155 au  fB            1.00     98 A               2
                        (      31.434 eV)
   155     155       --         1.199 au  fB            1.00     99 A               2
                        (      32.626 eV)
   156     156       --         1.212 au  fB            1.00    100 A               2
                        (      32.980 eV)
   157     157       --         1.235 au  fB            1.00    101 A               2
                        (      33.602 eV)
   158     158       --         1.254 au  fB            1.00    102 A               2
                        (      34.128 eV)
   159     159       --         1.266 au  fB            1.00    103 A               2
                        (      34.438 eV)
   160     160       --         1.309 au  fB            1.00    104 A               2
                        (      35.621 eV)
   161     161       --         1.325 au  fB            1.00    105 A               2
                        (      36.060 eV)
   162     162       --         1.336 au  fB            1.00    106 A               2
                        (      36.352 eV)
   163     163       --         1.364 au  fB            1.00    107 A               2
                        (      37.129 eV)
   164     164       --         1.467 au  fB            1.00    108 A               2
                        (      39.912 eV)
   165     165       --         1.478 au  fB            1.00    109 A               2
                        (      40.221 eV)
   166     166       --         1.493 au  fB            1.00    110 A               2
                        (      40.636 eV)
   167     167       --         1.520 au  fB            1.00    111 A               2
                        (      41.351 eV)
   168     168       --         1.571 au  fB            1.00    112 A               2
                        (      42.745 eV)
   169     169       --         1.599 au  fB            1.00    113 A               2
                        (      43.503 eV)
   170     170       --         1.613 au  fB            1.00    114 A               2
                        (      43.893 eV)
   171     171       --         1.644 au  fB            1.00    115 A               2
                        (      44.725 eV)
   172     172       --         1.671 au  fB            1.00    116 A               2
                        (      45.462 eV)
   173     173       --         1.684 au  fB            1.00    117 A               2
                        (      45.836 eV)
   174     174       --         1.805 au  fB            1.00    118 A               2
                        (      49.111 eV)
   175     175       --         1.822 au  fB            1.00    119 A               2
                        (      49.590 eV)
   176     176       --         1.896 au  fB            1.00    120 A               2
                        (      51.604 eV)
   177     177       --         1.958 au  fB            1.00    121 A               2
                        (      53.281 eV)
   178     178       --         1.980 au  fB            1.00    122 A               2
                        (      53.870 eV)
   179     179       --         2.013 au  fB            1.00    123 A               2
                        (      54.772 eV)
   180     180       --         2.086 au  fB            1.00    124 A               2
                        (      56.751 eV)
   181     181       --         2.172 au  fB            1.00    125 A               2
                        (      59.109 eV)
   182     182       --         2.179 au  fB            1.00    126 A               2
                        (      59.289 eV)
   183     183       --         2.228 au  fB            1.00    127 A               2
                        (      60.622 eV)
   184     184       --         2.287 au  fB            1.00    128 A               2
                        (      62.228 eV)
   185     185       --         2.313 au  fB            1.00    129 A               2
                        (      62.929 eV)
   186     186       --         2.347 au  fB            1.00    130 A               2
                        (      63.857 eV)
   187     187       --         2.376 au  fB            1.00    131 A               2
                        (      64.660 eV)
   188     188       --         2.404 au  fB            1.00    132 A               2
                        (      65.405 eV)
   189     189       --         2.418 au  fB            1.00    133 A               2
                        (      65.809 eV)
   190     190       --         2.465 au  fB            1.00    134 A               2
                        (      67.084 eV)
   191     191       --         2.536 au  fB            1.00    135 A               2
                        (      69.006 eV)
   192     192       --         2.555 au  fB            1.00    136 A               2
                        (      69.537 eV)
   193     193       --         2.619 au  fB            1.00    137 A               2
                        (      71.279 eV)
   194     194       --         2.662 au  fB            1.00    138 A               2
                        (      72.436 eV)
   195     195       --         2.664 au  fB            1.00    139 A               2
                        (      72.496 eV)
   196     196       --         2.709 au  fB            1.00    140 A               2
                        (      73.727 eV)
   197     197       --         2.766 au  fB            1.00    141 A               2
                        (      75.268 eV)
   198     198       --         2.781 au  fB            1.00    142 A               2
                        (      75.664 eV)
   199     199       --         2.828 au  fB            1.00    143 A               2
                        (      76.953 eV)
   200     200       --         2.837 au  fB            1.00    144 A               2
                        (      77.198 eV)
   201     201       --         2.848 au  fB            1.00    145 A               2
                        (      77.503 eV)
   202     202       --         2.878 au  fB            1.00    146 A               2
                        (      78.323 eV)
   203     203       --         2.918 au  fB            1.00    147 A               2
                        (      79.395 eV)
   204     204       --         2.934 au  fB            1.00    148 A               2
                        (      79.850 eV)
   205     205       --         2.944 au  fB            1.00    149 A               2
                        (      80.104 eV)
   206     206       --         2.945 au  fB            1.00    150 A               2
                        (      80.139 eV)
   207     207       --         2.987 au  fB            1.00    151 A               2
                        (      81.284 eV)
   208     208       --         3.020 au  fB            1.00    152 A               2
                        (      82.166 eV)
   209     209       --         3.037 au  fB            1.00    153 A               2
                        (      82.637 eV)
   210     210       --         3.157 au  fB            1.00    154 A               2
                        (      85.895 eV)
   211     211       --         3.210 au  fB            1.00    155 A               2
                        (      87.349 eV)
   212     212       --         3.227 au  fB            1.00    156 A               2
                        (      87.810 eV)
   213     213       --         3.336 au  fB            1.00    157 A               2
                        (      90.782 eV)
   214     214       --         3.395 au  fB            1.00    158 A               2
                        (      92.396 eV)
   215     215       --         3.417 au  fB            1.00    159 A               2
                        (      92.975 eV)
   216     216       --         3.517 au  fB            1.00    160 A               2
                        (      95.716 eV)
   217     217       --         3.533 au  fB            1.00    161 A               2
                        (      96.151 eV)
   218     218       --         3.588 au  fB            1.00    162 A               2
                        (      97.631 eV)
   219     219       --         3.630 au  fB            1.00    163 A               2
                        (      98.773 eV)
   220     220       --         3.647 au  fB            1.00    164 A               2
                        (      99.239 eV)
   221     221       --         3.655 au  fB            1.00    165 A               2
                        (      99.463 eV)
   222     222       --         3.712 au  fB            1.00    166 A               2
                        (     101.014 eV)
   223     223       --         3.723 au  fB            1.00    167 A               2
                        (     101.295 eV)
   224     224       --         3.774 au  fB            1.00    168 A               2
                        (     102.697 eV)
   225     225       --         3.785 au  fB            1.00    169 A               2
                        (     102.997 eV)
   226     226       --         3.803 au  fB            1.00    170 A               2
                        (     103.484 eV)
   227     227       --         3.830 au  fB            1.00    171 A               2
                        (     104.230 eV)
   228     228       --         3.866 au  fB            1.00    172 A               2
                        (     105.212 eV)
   229     229       --         3.891 au  fB            1.00    173 A               2
                        (     105.873 eV)
   230     230       --         3.913 au  fB            1.00    174 A               2
                        (     106.478 eV)
   231     231       --         4.002 au  fB            1.00    175 A               2
                        (     108.900 eV)
   232     232       --         4.127 au  fB            1.00    176 A               2
                        (     112.301 eV)
   233     233       --         4.196 au  fB            1.00    177 A               2
                        (     114.171 eV)
   234     234       --         4.229 au  fB            1.00    178 A               2
                        (     115.068 eV)
   235     235       --         4.299 au  fB            1.00    179 A               2
                        (     116.978 eV)
   236     236       --         4.370 au  fB            1.00    180 A               2
                        (     118.912 eV)
   237     237       --         4.403 au  fB            1.00    181 A               2
                        (     119.803 eV)
   238     238       --         4.432 au  fB            1.00    182 A               2
                        (     120.593 eV)
   239     239       --         4.463 au  fB            1.00    183 A               2
                        (     121.444 eV)
   240     240       --         4.493 au  fB            1.00    184 A               2
                        (     122.250 eV)
   241     241       --         4.577 au  fB            1.00    185 A               2
                        (     124.546 eV)
   242     242       --         4.664 au  fB            1.00    186 A               2
                        (     126.907 eV)
   243     243       --         4.800 au  fB            1.00    187 A               2
                        (     130.605 eV)
   244     244       --         4.872 au  fB            1.00    188 A               2
                        (     132.578 eV)
   245     245       --         4.910 au  fB            1.00    189 A               2
                        (     133.599 eV)
   246     246       --         4.931 au  fB            1.00    190 A               2
                        (     134.177 eV)
   247     247       --         5.013 au  fB            1.00    191 A               2
                        (     136.409 eV)
   248     248       --         5.033 au  fB            1.00    192 A               2
                        (     136.945 eV)
   249     249       --         5.134 au  fB            1.00    193 A               2
                        (     139.694 eV)
   250     250       --         5.176 au  fB            1.00    194 A               2
                        (     140.838 eV)
   251     251       --         5.335 au  fB            1.00    195 A               2
                        (     145.179 eV)
   252     252       --         5.371 au  fB            1.00    196 A               2
                        (     146.157 eV)
   253     253       --         5.466 au  fB            1.00    197 A               2
                        (     148.749 eV)
   254     254       --         5.505 au  fB            1.00    198 A               2
                        (     149.804 eV)
   255     255       --         5.530 au  fB            1.00    199 A               2
                        (     150.488 eV)
   256     256       --         5.658 au  fB            1.00    200 A               2
                        (     153.964 eV)
   257     257       --         5.880 au  fB            1.00    201 A               2
                        (     159.990 eV)
   258     258       --         5.967 au  fB            1.00    202 A               2
                        (     162.379 eV)
   259     259       --         6.104 au  fB            1.00    203 A               2
                        (     166.094 eV)
   260     260       --         6.202 au  fB            1.00    204 A               2
                        (     168.770 eV)
   261     261       --         6.246 au  fB            1.00    205 A               2
                        (     169.953 eV)
   262     262       --         6.323 au  fB            1.00    206 A               2
                        (     172.055 eV)
   263     263       --         6.365 au  fB            1.00    207 A               2
                        (     173.211 eV)
   264     264       --         6.442 au  fB            1.00    208 A               2
                        (     175.287 eV)
   265     265       --         6.565 au  fB            1.00    209 A               2
                        (     178.656 eV)
   266     266       --         6.794 au  fB            1.00    210 A               2
                        (     184.878 eV)
   267     267       --         6.866 au  fB            1.00    211 A               2
                        (     186.833 eV)
   268     268       --         7.019 au  fB            1.00    212 A               2
                        (     190.995 eV)
   269     269       --         7.094 au  fB            1.00    213 A               2
                        (     193.038 eV)
   270     270       --         7.449 au  fB            1.00    214 A               2
                        (     202.689 eV)
   271     271       --         7.554 au  fB            1.00    215 A               2
                        (     205.560 eV)
   272     272       --         7.634 au  fB            1.00    216 A               2
                        (     207.727 eV)
   273     273       --         7.727 au  fB            1.00    217 A               2
                        (     210.258 eV)
   274     274       --         7.855 au  fB            1.00    218 A               2
                        (     213.738 eV)
   275     275       --         8.380 au  fB            1.00    219 A               2
                        (     228.042 eV)
   276     276       --         8.746 au  fB            1.00    220 A               2
                        (     238.003 eV)
   277     277       --         8.859 au  fB            1.00    221 A               2
                        (     241.054 eV)
   278     278       --         8.870 au  fB            1.00    222 A               2
                        (     241.369 eV)
   279     279       --         9.304 au  fB            1.00    223 A               2
                        (     253.184 eV)
   280     280       --         9.363 au  fB            1.00    224 A               2
                        (     254.789 eV)
   281     281       --         9.587 au  fB            1.00    225 A               2
                        (     260.863 eV)
   282     282       --        11.352 au  fB            1.00    226 A               2
                        (     308.905 eV)
   283     283       --        14.529 au  fB            1.00    227 A               2
                        (     395.355 eV)
   284     284       --        20.591 au  fB            1.00    228 A               2
                        (     560.319 eV)
   285     285       --        20.603 au  fB            1.00    229 A               2
                        (     560.626 eV)
   286     286       --        20.825 au  fB            1.00    230 A               2
                        (     566.680 eV)
   287     287       --        20.841 au  fB            1.00    231 A               2
                        (     567.104 eV)
   288     288       --        21.467 au  fB            1.00    232 A               2
                        (     584.155 eV)
   289     289       --        54.613 au  fB            1.00    233 A               2
                        (    1486.087 eV)
   290     290       --        56.639 au  fB            1.00    234 A               2
                        (    1541.220 eV)
   291     291       --        58.994 au  fB            1.00    235 A               2
                        (    1605.314 eV)
   292     292       --        69.773 au  fB            1.00    236 A               2
                        (    1898.606 eV)
   293     293       --        70.886 au  fB            1.00    237 A               2
                        (    1928.893 eV)
   294     294       --        95.840 au  fB            1.00    238 A               2
                        (    2607.943 eV)
   295     295       --        95.854 au  fB            1.00    239 A               2
                        (    2608.322 eV)
   296     296       --        96.834 au  fB            1.00    240 A               2
                        (    2634.978 eV)
   297     297       --       618.833 au  fB            1.00    241 A               2
                        (   16839.311 eV)



 ================================
 (Slater-type)  F U N C T I O N S  ***  (Basis and Fit)  ***
 ================================
  

 Atom Type    1  (Br)
 ==============

 Valence Basis Sets:  20
 -----------------------
   1 S   41.300000
   1 S   32.800000
   2 S   13.900000
   2 P   19.450000
   2 P   13.100000
   3 S    7.200000
   3 S    4.950000
   3 P    7.900000
   3 P    5.050000
   3 D   10.900000
   3 D    6.050000
   3 D    3.500000
   4 S    4.500000
   4 S    2.800000
   4 S    1.800000
   4 P    3.250000
   4 P    1.950000
   4 P    1.200000
   4 D    1.800000
   4 F    1.800000

 Atom Type    2  (C)
 ==============

 Valence Basis Sets:  10
 -----------------------
   1 S    7.680000
   1 S    5.000000
   2 S    1.280000
   2 S    2.100000
   2 S    4.600000
   2 P    0.820000
   2 P    1.480000
   2 P    2.940000
   3 D    2.200000
   4 F    3.300000

 Atom Type    3  (Br)
 ==============

 Valence Basis Sets:  20
 -----------------------
   1 S   41.300000
   1 S   32.800000
   2 S   13.900000
   2 P   19.450000
   2 P   13.100000
   3 S    7.200000
   3 S    4.950000
   3 P    7.900000
   3 P    5.050000
   3 D   10.900000
   3 D    6.050000
   3 D    3.500000
   4 S    4.500000
   4 S    2.800000
   4 S    1.800000
   4 P    3.250000
   4 P    1.950000
   4 P    1.200000
   4 D    1.800000
   4 F    1.800000

 Atom Type    4  (H)
 ==============

 Valence Basis Sets:   5
 -----------------------
   1 S    0.690000
   1 S    0.920000
   1 S    1.580000
   2 P    1.250000
   3 D    2.500000

 Atom Type    5  (N)
 ==============

 Valence Basis Sets:  10
 -----------------------
   1 S    8.740000
   1 S    5.900000
   2 S    5.150000
   2 S    2.500000
   2 S    1.500000
   2 P    3.680000
   2 P    1.880000
   2 P    1.000000
   3 D    2.200000
   4 F    3.300000


 BAS: List of all Elementary Cartesian Basis Functions
 =====================================================

 The numbering in the list below (to the right of the function characteristics) is referred
 to in print-outs of MO eigenvectors and Mulliken populations in the BAS representation
 (as contrasted to the SFO representation).

 Notes:
 1. The functions are characterized by a polynomial prefactor (powers of x,y,z and r) and
    an exponential decay factor alpha.
 2. Since the basis sets are specific for an atom TYPE, the individual functions occur on
    all atoms of that type.
 3. The word 'Core' in the left margin signals that it is a Core Function (CF) : not a
    degree of freedom in the valence set, but only used to ensure orthogonalization of
    the other valence basis functions on the frozen Core Orbitals.


 (power of) X  Y  Z  R     Alpha  on Atom
            ==========     =====     ==========

 Br                                   1
                                  ---------------------------------------------------------------------------
            0  0  0  0    41.300      1
            0  0  0  0    32.800      2
            0  0  0  1    13.900      3
            1  0  0  0    19.450      4
            0  1  0  0    19.450      5
            0  0  1  0    19.450      6
            1  0  0  0    13.100      7
            0  1  0  0    13.100      8
            0  0  1  0    13.100      9
            0  0  0  2     7.200     10
            0  0  0  2     4.950     11
            1  0  0  1     7.900     12
            0  1  0  1     7.900     13
            0  0  1  1     7.900     14
            1  0  0  1     5.050     15
            0  1  0  1     5.050     16
            0  0  1  1     5.050     17
            2  0  0  0    10.900     18
            1  1  0  0    10.900     19
            1  0  1  0    10.900     20
            0  2  0  0    10.900     21
            0  1  1  0    10.900     22
            0  0  2  0    10.900     23
            2  0  0  0     6.050     24
            1  1  0  0     6.050     25
            1  0  1  0     6.050     26
            0  2  0  0     6.050     27
            0  1  1  0     6.050     28
            0  0  2  0     6.050     29
            2  0  0  0     3.500     30
            1  1  0  0     3.500     31
            1  0  1  0     3.500     32
            0  2  0  0     3.500     33
            0  1  1  0     3.500     34
            0  0  2  0     3.500     35
            0  0  0  3     4.500     36
            0  0  0  3     2.800     37
            0  0  0  3     1.800     38
            1  0  0  2     3.250     39
            0  1  0  2     3.250     40
            0  0  1  2     3.250     41
            1  0  0  2     1.950     42
            0  1  0  2     1.950     43
            0  0  1  2     1.950     44
            1  0  0  2     1.200     45
            0  1  0  2     1.200     46
            0  0  1  2     1.200     47
            2  0  0  1     1.800     48
            1  1  0  1     1.800     49
            1  0  1  1     1.800     50
            0  2  0  1     1.800     51
            0  1  1  1     1.800     52
            0  0  2  1     1.800     53
            3  0  0  0     1.800     54
            2  1  0  0     1.800     55
            2  0  1  0     1.800     56
            1  2  0  0     1.800     57
            1  1  1  0     1.800     58
            1  0  2  0     1.800     59
            0  3  0  0     1.800     60
            0  2  1  0     1.800     61
            0  1  2  0     1.800     62
            0  0  3  0     1.800     63

 C                                    2    3    4
                                  ---------------------------------------------------------------------------
            0  0  0  0     7.680     64   94  124
            0  0  0  0     5.000     65   95  125
            0  0  0  1     1.280     66   96  126
            0  0  0  1     2.100     67   97  127
            0  0  0  1     4.600     68   98  128
            1  0  0  0     0.820     69   99  129
            0  1  0  0     0.820     70  100  130
            0  0  1  0     0.820     71  101  131
            1  0  0  0     1.480     72  102  132
            0  1  0  0     1.480     73  103  133
            0  0  1  0     1.480     74  104  134
            1  0  0  0     2.940     75  105  135
            0  1  0  0     2.940     76  106  136
            0  0  1  0     2.940     77  107  137
            2  0  0  0     2.200     78  108  138
            1  1  0  0     2.200     79  109  139
            1  0  1  0     2.200     80  110  140
            0  2  0  0     2.200     81  111  141
            0  1  1  0     2.200     82  112  142
            0  0  2  0     2.200     83  113  143
            3  0  0  0     3.300     84  114  144
            2  1  0  0     3.300     85  115  145
            2  0  1  0     3.300     86  116  146
            1  2  0  0     3.300     87  117  147
            1  1  1  0     3.300     88  118  148
            1  0  2  0     3.300     89  119  149
            0  3  0  0     3.300     90  120  150
            0  2  1  0     3.300     91  121  151
            0  1  2  0     3.300     92  122  152
            0  0  3  0     3.300     93  123  153

 Br                                   5
                                  ---------------------------------------------------------------------------
            0  0  0  0    41.300    154
            0  0  0  0    32.800    155
            0  0  0  1    13.900    156
            1  0  0  0    19.450    157
            0  1  0  0    19.450    158
            0  0  1  0    19.450    159
            1  0  0  0    13.100    160
            0  1  0  0    13.100    161
            0  0  1  0    13.100    162
            0  0  0  2     7.200    163
            0  0  0  2     4.950    164
            1  0  0  1     7.900    165
            0  1  0  1     7.900    166
            0  0  1  1     7.900    167
            1  0  0  1     5.050    168
            0  1  0  1     5.050    169
            0  0  1  1     5.050    170
            2  0  0  0    10.900    171
            1  1  0  0    10.900    172
            1  0  1  0    10.900    173
            0  2  0  0    10.900    174
            0  1  1  0    10.900    175
            0  0  2  0    10.900    176
            2  0  0  0     6.050    177
            1  1  0  0     6.050    178
            1  0  1  0     6.050    179
            0  2  0  0     6.050    180
            0  1  1  0     6.050    181
            0  0  2  0     6.050    182
            2  0  0  0     3.500    183
            1  1  0  0     3.500    184
            1  0  1  0     3.500    185
            0  2  0  0     3.500    186
            0  1  1  0     3.500    187
            0  0  2  0     3.500    188
            0  0  0  3     4.500    189
            0  0  0  3     2.800    190
            0  0  0  3     1.800    191
            1  0  0  2     3.250    192
            0  1  0  2     3.250    193
            0  0  1  2     3.250    194
            1  0  0  2     1.950    195
            0  1  0  2     1.950    196
            0  0  1  2     1.950    197
            1  0  0  2     1.200    198
            0  1  0  2     1.200    199
            0  0  1  2     1.200    200
            2  0  0  1     1.800    201
            1  1  0  1     1.800    202
            1  0  1  1     1.800    203
            0  2  0  1     1.800    204
            0  1  1  1     1.800    205
            0  0  2  1     1.800    206
            3  0  0  0     1.800    207
            2  1  0  0     1.800    208
            2  0  1  0     1.800    209
            1  2  0  0     1.800    210
            1  1  1  0     1.800    211
            1  0  2  0     1.800    212
            0  3  0  0     1.800    213
            0  2  1  0     1.800    214
            0  1  2  0     1.800    215
            0  0  3  0     1.800    216

 H                                    6    7    8    9   10
                                  ---------------------------------------------------------------------------
            0  0  0  0     0.690    217  229  241  253  265
            0  0  0  0     0.920    218  230  242  254  266
            0  0  0  0     1.580    219  231  243  255  267
            1  0  0  0     1.250    220  232  244  256  268
            0  1  0  0     1.250    221  233  245  257  269
            0  0  1  0     1.250    222  234  246  258  270
            2  0  0  0     2.500    223  235  247  259  271
            1  1  0  0     2.500    224  236  248  260  272
            1  0  1  0     2.500    225  237  249  261  273
            0  2  0  0     2.500    226  238  250  262  274
            0  1  1  0     2.500    227  239  251  263  275
            0  0  2  0     2.500    228  240  252  264  276

 N                                   11   12
                                  ---------------------------------------------------------------------------
            0  0  0  0     8.740    277  307
            0  0  0  0     5.900    278  308
            0  0  0  1     5.150    279  309
            0  0  0  1     2.500    280  310
            0  0  0  1     1.500    281  311
            1  0  0  0     3.680    282  312
            0  1  0  0     3.680    283  313
            0  0  1  0     3.680    284  314
            1  0  0  0     1.880    285  315
            0  1  0  0     1.880    286  316
            0  0  1  0     1.880    287  317
            1  0  0  0     1.000    288  318
            0  1  0  0     1.000    289  319
            0  0  1  0     1.000    290  320
            2  0  0  0     2.200    291  321
            1  1  0  0     2.200    292  322
            1  0  1  0     2.200    293  323
            0  2  0  0     2.200    294  324
            0  1  1  0     2.200    295  325
            0  0  2  0     2.200    296  326
            3  0  0  0     3.300    297  327
            2  1  0  0     3.300    298  328
            2  0  1  0     3.300    299  329
            1  2  0  0     3.300    300  330
            1  1  1  0     3.300    301  331
            1  0  2  0     3.300    302  332
            0  3  0  0     3.300    303  333
            0  2  1  0     3.300    304  334
            0  1  2  0     3.300    305  335
            0  0  3  0     3.300    306  336

 Total number of charge fitting functions (nprimf)      1010
 Total number of Cartesian basis functions (naos)        336
 Total number of Cartesian core functions  (ncos)          0

 ***************************************************************************************************



                                              ***********************
                                              *  T E C H N I C A L  *
                                              ***********************
  



 =============================================================
 P A R A L L E L I Z A T I O N  and  V E C T O R I Z A T I O N
 =============================================================
  
 Nr of parallel processes:                                1
 Maximum vector length in NumInt loops:                 128



 =====================
 S C F   U P D A T E S
 =====================
  
 Max. nr. of cycles:                               200
 Convergence criterion:                              0.0000010000
   secondary criterion:                              0.0010000000

 Mix parameter (when DIIS does not apply):           0.2000000000
 Mixed ADIIS+SDIIS will be used                  
    Max number of expansion vectors:                10
    Pure ADIIS when Max([F,P]) is above              0.1000000000
    Pure SDIIS when Max([F,P]) is below              0.0010000000
 Automatic ElectronSmearing (in case of problematic SCF convergence) disabled



 =================
 P R E C I S I O N  ***  (General: NumInt, NeglectFunctionTails, ...)  ***
 =================
  

 NumInt:           Target precision:                 4.0000000000
 -------           Initial precision:                4.0000000000
                   Min. precision (optimization):    4.0000000000

 Neglect Functions:          Basis functions:        0.1000000000E-05
 ------------------          Fit functions:          0.1000000000E-05



 ===========================
 L I N E A R   S C A L I N G
 ===========================
  

 Cut-off radii density fit:                        0.1000000000E-07
 Overlap cut-off criterion AO matrix elements:     0.1000000000E-05
 Cut-offs for Coulomb potential and fitted density:0.1000000000E-07
 Cut-off criterion for Coulomb multipole terms:    0.1000000000E-07
 Progressive Convergence parameter:                 0.000000000    
 ***************************************************************************************************



                                            ***************************
                                            *  C O M P U T A T I O N  *
                                            ***************************
  

 Number of elements of the density matrix on this node (used, total):     56616     56616



 ===========================================
 Numerical Integration : Fuzzy Cells (Becke)
 ===========================================
  
 Becke grid quality: NORMAL         
  
 Lebedev angular grid order:             min:  11 max:  23
 Nr. of radial points:                   min:  46 max:  77

 Total nr. of points:      85979
 Nr. of blocks:              672
 Block length:               128
 Nr. of dummy points:         37


 Test of Precision of the Numerical Integration Grid
 ===================================================

 Integral of the Total Core Density:                   0.00000000000000



 ========================
 Density Fitting (zlmFit)
 ========================
  
 ZlmFit Fit Quality: NORMAL         
  
 Max L-expansion:                        min:   6 max:   7
 Nr. of radial interpolation points:     min:  39 max:  72



 =====
 S C F  ***  ScaSCF  ***
 =====
  
 Initial density matrix is calculated as sum of fragments

 CYCLE    1
 SCF Error: norm([F,P])=      1.301400828828, max([F,P])=      0.377314998597
 orbitals (Q,E):
 ---------------
 A :45...64          ( 2.00    -0.2205)  ( 2.00    -0.2165)  ( 2.00    -0.1953)  ( 2.00    -0.1658)
                     ( 2.00    -0.1647)  ( 2.00    -0.1483)  ( 2.00    -0.1080)  ( 2.00    -0.0295)
                     ( 2.00    -0.0092)  ( 2.00    -0.0055)  ( 0.00     0.0753)  ( 0.00     0.0771)
                     ( 0.00     0.0890)  ( 0.00     0.0993)  ( 0.00     0.1289)  ( 0.00     0.1551)
                     ( 0.00     0.1642)  ( 0.00     0.1861)  ( 0.00     0.1998)  ( 0.00     0.2113)

 CYCLE    2
   MIX coefficients:  0.8000  0.2000
 SCF Error: norm([F,P])=      0.514250859240, max([F,P])=      0.150962718412
 orbitals (Q,E):
 ---------------
 A :45...55          ( 2.00    -0.2016)  ( 2.00    -0.1977)  ( 2.00    -0.1774)  ( 2.00    -0.1427)
                     ( 2.00    -0.1404)  ( 2.00    -0.1351)  ( 2.00    -0.1082)  ( 2.00    -0.0535)
                     ( 2.00    -0.0507)  ( 2.00    -0.0483)  ( 0.00     0.0618)

 CYCLE    3
  SDIIS (wt  0.000): -0.2313  1.2313
 A-DIIS (wt  1.000):  0.0000  1.0000
  DIIS coefficients:  0.0000  1.0000
 SCF Error: norm([F,P])=      0.184258978876, max([F,P])=      0.036839637539
 orbitals (Q,E):
 ---------------
 A :45...55          ( 2.00    -0.1750)  ( 2.00    -0.1696)  ( 2.00    -0.1591)  ( 2.00    -0.1539)
                     ( 2.00    -0.1182)  ( 2.00    -0.1150)  ( 2.00    -0.1083)  ( 2.00    -0.0877)
                     ( 2.00    -0.0852)  ( 2.00    -0.0661)  ( 0.00     0.0311)

 CYCLE    4
  SDIIS (wt  0.000):  0.0431  0.7149  0.2420
 A-DIIS (wt  1.000): -0.0000  0.8295  0.1705
  DIIS coefficients: -0.0000  0.8295  0.1705
 SCF Error: norm([F,P])=      0.577349862413, max([F,P])=      0.150391885957
 orbitals (Q,E):
 ---------------
 A :45...55          ( 2.00    -0.1887)  ( 2.00    -0.1810)  ( 2.00    -0.1681)  ( 2.00    -0.1502)
                     ( 2.00    -0.1173)  ( 2.00    -0.1041)  ( 2.00    -0.1018)  ( 2.00    -0.0907)
                     ( 2.00    -0.0882)  ( 2.00    -0.0594)  ( 0.00     0.0418)

 CYCLE    5
  SDIIS (wt  0.673):  0.0087  0.4050 -0.0216  0.6078
 A-DIIS (wt  0.327):  0.0000  0.3936  0.0000  0.6064
  DIIS coefficients:  0.0059  0.4013 -0.0145  0.6074
 SCF Error: norm([F,P])=      0.147455560608, max([F,P])=      0.033406120718
 orbitals (Q,E):
 ---------------
 A :45...55          ( 2.00    -0.1909)  ( 2.00    -0.1874)  ( 2.00    -0.1705)  ( 2.00    -0.1434)
                     ( 2.00    -0.1221)  ( 2.00    -0.1184)  ( 2.00    -0.1098)  ( 2.00    -0.0743)
                     ( 2.00    -0.0716)  ( 2.00    -0.0547)  ( 0.00     0.0487)

 CYCLE    6
  SDIIS (wt  0.929):  0.0003  0.2620 -0.0198  0.4135  0.3440
 A-DIIS (wt  0.071):  0.0000  0.0000  0.0000  0.0000  1.0000
  DIIS coefficients:  0.0003  0.2433 -0.0184  0.3840  0.3908
 SCF Error: norm([F,P])=      0.038156998855, max([F,P])=      0.008056451734
 orbitals (Q,E):
 ---------------
 A :45...55          ( 2.00    -0.1931)  ( 2.00    -0.1869)  ( 2.00    -0.1709)  ( 2.00    -0.1440)
                     ( 2.00    -0.1207)  ( 2.00    -0.1166)  ( 2.00    -0.1095)  ( 2.00    -0.0767)
                     ( 2.00    -0.0741)  ( 2.00    -0.0551)  ( 0.00     0.0485)

 CYCLE    7
  SDIIS (wt  0.949): -0.0075  0.1186 -0.0133  0.1768  0.3390  0.3865
 A-DIIS (wt  0.051):  0.0000  0.0000  0.0000  0.0000  0.3688  0.6312
  DIIS coefficients: -0.0071  0.1125 -0.0126  0.1678  0.3405  0.3989
 SCF Error: norm([F,P])=      0.026345101116, max([F,P])=      0.006048501377
 orbitals (Q,E):
 ---------------
 A :45...55          ( 2.00    -0.1925)  ( 2.00    -0.1874)  ( 2.00    -0.1711)  ( 2.00    -0.1441)
                     ( 2.00    -0.1212)  ( 2.00    -0.1169)  ( 2.00    -0.1102)  ( 2.00    -0.0760)
                     ( 2.00    -0.0734)  ( 2.00    -0.0555)  ( 0.00     0.0482)

 CYCLE    8
  SDIIS (wt  0.997): -0.0058  0.0590 -0.0085  0.0852  0.2027  0.2953  0.3722
 A-DIIS (wt  0.003):  0.0000  0.0000  0.0000  0.0000  0.0000  0.1142  0.8858
  DIIS coefficients: -0.0058  0.0588 -0.0085  0.0850  0.2022  0.2948  0.3736
 SCF Error: norm([F,P])=      0.008176493226, max([F,P])=      0.001270842346
 orbitals (Q,E):
 ---------------
 A :45...55          ( 2.00    -0.1925)  ( 2.00    -0.1873)  ( 2.00    -0.1710)  ( 2.00    -0.1439)
                     ( 2.00    -0.1212)  ( 2.00    -0.1171)  ( 2.00    -0.1099)  ( 2.00    -0.0760)
                     ( 2.00    -0.0733)  ( 2.00    -0.0552)  ( 0.00     0.0486)

 CYCLE    9
  SDIIS (wt  1.000): -0.0012  0.0132 -0.0030  0.0219  0.0505  0.0744  0.1186  0.7258
  DIIS coefficients: -0.0012  0.0132 -0.0030  0.0219  0.0505  0.0744  0.1186  0.7258
 SCF Error: norm([F,P])=      0.000724579786, max([F,P])=      0.000085716855
 orbitals (Q,E):
 ---------------
 A :45...55          ( 2.00    -0.1924)  ( 2.00    -0.1873)  ( 2.00    -0.1710)  ( 2.00    -0.1439)
                     ( 2.00    -0.1213)  ( 2.00    -0.1172)  ( 2.00    -0.1100)  ( 2.00    -0.0759)
                     ( 2.00    -0.0733)  ( 2.00    -0.0553)  ( 0.00     0.0486)

 CYCLE   10
  SDIIS (wt  1.000): -0.0003  0.0035 -0.0012  0.0068  0.0146  0.0211  0.0407  0.4441  0.4707
  DIIS coefficients: -0.0003  0.0035 -0.0012  0.0068  0.0146  0.0211  0.0407  0.4441  0.4707
 SCF Error: norm([F,P])=      0.000414065450, max([F,P])=      0.000037358386
 orbitals (Q,E):
 ---------------
 A :45...55          ( 2.00    -0.1925)  ( 2.00    -0.1873)  ( 2.00    -0.1710)  ( 2.00    -0.1439)
                     ( 2.00    -0.1213)  ( 2.00    -0.1171)  ( 2.00    -0.1100)  ( 2.00    -0.0759)
                     ( 2.00    -0.0733)  ( 2.00    -0.0553)  ( 0.00     0.0486)

 CYCLE   11
  SDIIS (wt  1.000): -0.0000  0.0006 -0.0003  0.0014  0.0027  0.0034  0.0101  0.1585  0.2488  0.5748
  DIIS coefficients: -0.0000  0.0006 -0.0003  0.0014  0.0027  0.0034  0.0101  0.1585  0.2488  0.5748
 SCF Error: norm([F,P])=      0.000100580132, max([F,P])=      0.000014356399
 orbitals (Q,E):
 ---------------
 A :45...55          ( 2.00    -0.1925)  ( 2.00    -0.1873)  ( 2.00    -0.1710)  ( 2.00    -0.1439)
                     ( 2.00    -0.1213)  ( 2.00    -0.1171)  ( 2.00    -0.1100)  ( 2.00    -0.0759)
                     ( 2.00    -0.0733)  ( 2.00    -0.0553)  ( 0.00     0.0486)

 CYCLE   12
  SDIIS (wt  1.000):  0.0001 -0.0001  0.0002  0.0005  0.0004  0.0029  0.0471  0.0962  0.3354  0.5172
  DIIS coefficients:  0.0001 -0.0001  0.0002  0.0005  0.0004  0.0029  0.0471  0.0962  0.3354  0.5172
 SCF Error: norm([F,P])=      0.000035837997, max([F,P])=      0.000004133458
 orbitals (Q,E):
 ---------------
 A :45...55          ( 2.00    -0.1925)  ( 2.00    -0.1873)  ( 2.00    -0.1710)  ( 2.00    -0.1439)
                     ( 2.00    -0.1213)  ( 2.00    -0.1171)  ( 2.00    -0.1100)  ( 2.00    -0.0759)
                     ( 2.00    -0.0733)  ( 2.00    -0.0553)  ( 0.00     0.0486)

 CYCLE   13
  SDIIS (wt  1.000): -0.0000 -0.0000  0.0001  0.0001  0.0008  0.0095  0.0236  0.1049  0.2304  0.6306
  DIIS coefficients: -0.0000 -0.0000  0.0001  0.0001  0.0008  0.0095  0.0236  0.1049  0.2304  0.6306
 SCF Error: norm([F,P])=      0.000007260632, max([F,P])=      0.000001139232
 orbitals (Q,E):
 ---------------
 A :45...55          ( 2.00    -0.1925)  ( 2.00    -0.1873)  ( 2.00    -0.1710)  ( 2.00    -0.1439)
                     ( 2.00    -0.1213)  ( 2.00    -0.1171)  ( 2.00    -0.1100)  ( 2.00    -0.0759)
                     ( 2.00    -0.0733)  ( 2.00    -0.0553)  ( 0.00     0.0486)

 CYCLE   14
  SDIIS (wt  1.000): -0.0000  0.0000  0.0000  0.0003  0.0036  0.0099  0.0469  0.1105  0.3423  0.4866
  DIIS coefficients: -0.0000  0.0000  0.0000  0.0003  0.0036  0.0099  0.0469  0.1105  0.3423  0.4866
 SCF Error: norm([F,P])=      0.000002965333, max([F,P])=      0.000000741473
 orbitals (Q,E):
 ---------------
 A :45...55          ( 2.00    -0.1925)  ( 2.00    -0.1873)  ( 2.00    -0.1710)  ( 2.00    -0.1439)
                     ( 2.00    -0.1213)  ( 2.00    -0.1171)  ( 2.00    -0.1100)  ( 2.00    -0.0759)
                     ( 2.00    -0.0733)  ( 2.00    -0.0553)  ( 0.00     0.0486)

 SCF CONVERGED

 CYCLE   15
 ***************************************************************************************************



                                                *******************
                                                *  R E S U L T S  *
                                                *******************
  
 *** Using FIT density in Focky
[...]
                                    1.73%    34 A              -7.013  2.00     2 fB
      -0.15243         2 A         17.38%    34 A              -7.013  2.00     2 fB
                                   15.36%    33 A              -7.811  2.00     2 fB
                                   12.38%    20 A               9.586  0.00     1 fA
                                    8.20%    39 A              -1.037  0.00     2 fB
                                    6.66%    36 A              -6.721  2.00     2 fB
                                    5.15%    17 A               0.483  2.00     1 fA
                                    2.66%    31 A              -9.208  2.00     2 fB
                                    2.62%    21 A               9.586  0.00     1 fA
                                    2.34%    18 A               0.483  2.00     1 fA
                                    2.27%    41 A               0.126  0.00     2 fB
                                    2.22%    48 A               3.856  0.00     2 fB
                                    2.06%    38 A              -1.322  0.00     2 fB
                                    1.80%    27 A              15.187  0.00     1 fA
                                    1.65%    35 A              -6.799  2.00     2 fB
                                    1.55%    22 A              13.238  0.00     1 fA
                                    1.49%    42 A               0.388  0.00     2 fB
                                    1.31%    37 A              -3.866  0.00     2 fB
                                    1.27%    45 A               1.774  0.00     2 fB
                                    1.23%    44 A               1.377  0.00     2 fB
                                    1.22%    24 A              15.187  0.00     1 fA
       0.15243       296 A         13.09%    34 A              -7.013  2.00     2 fB
                                   11.06%    33 A              -7.811  2.00     2 fB
                                    9.79%    20 A               9.586  0.00     1 fA
                                    9.60%    39 A              -1.037  0.00     2 fB
                                    8.50%    17 A               0.483  2.00     1 fA
                                    5.08%    36 A              -6.721  2.00     2 fB
                                    4.46%    27 A              15.187  0.00     1 fA
                                    4.36%    24 A              15.187  0.00     1 fA
                                    3.49%    44 A               1.377  0.00     2 fB
                                    3.02%    38 A              -1.322  0.00     2 fB
                                    2.30%    31 A              -9.208  2.00     2 fB
                                    2.29%    18 A               0.483  2.00     1 fA
                                    2.08%    21 A               9.586  0.00     1 fA
                                    2.02%    48 A               3.856  0.00     2 fB
                                    1.72%    41 A               0.126  0.00     2 fB
                                    1.58%    45 A               1.774  0.00     2 fB
                                    1.55%    46 A               2.529  0.00     2 fB
                                    1.29%    35 A              -6.799  2.00     2 fB
                                    1.25%    42 A               0.388  0.00     2 fB
                                    1.22%    43 A               0.756  0.00     2 fB
      -0.09814         3 A         49.23%    16 A               0.483  2.00     1 fA
                                   20.82%    19 A               9.586  0.00     1 fA
                                    6.28%    17 A               0.483  2.00     1 fA
                                    4.00%    38 A              -1.322  0.00     2 fB
                                    2.96%    24 A              15.187  0.00     1 fA
                                    2.54%    49 A               3.947  0.00     2 fB
                                   -2.37%    44 A               1.377  0.00     2 fB
                                    1.80%    34 A              -7.013  2.00     2 fB
                                    1.28%    52 A               4.700  0.00     2 fB
                                    1.06%    36 A              -6.721  2.00     2 fB
                                    1.05%    33 A              -7.811  2.00     2 fB
       0.09814       295 A         32.87%    16 A               0.483  2.00     1 fA
                                   23.40%    19 A               9.586  0.00     1 fA
                                    8.24%    38 A              -1.322  0.00     2 fB
                                    3.99%    24 A              15.187  0.00     1 fA
                                    3.18%    44 A               1.377  0.00     2 fB
                                    2.88%    49 A               3.947  0.00     2 fB
                                    2.61%    47 A               3.247  0.00     2 fB
                                    2.60%    17 A               0.483  2.00     1 fA
                                    1.51%    39 A              -1.037  0.00     2 fB
                                    1.43%    42 A               0.388  0.00     2 fB
                                    1.30%    20 A               9.586  0.00     1 fA
                                    1.06%    34 A              -7.013  2.00     2 fB
      -0.09326         4 A         49.28%    18 A               0.483  2.00     1 fA
                                   23.68%    21 A               9.586  0.00     1 fA
                                    5.85%    17 A               0.483  2.00     1 fA
                                    4.34%    20 A               9.586  0.00     1 fA
                                    4.02%    40 A              -0.458  0.00     2 fB
                                   -1.40%    41 A               0.126  0.00     2 fB
                                    1.12%    31 A              -9.208  2.00     2 fB
                                    1.09%    16 A               0.483  2.00     1 fA
                                    1.01%    48 A               3.856  0.00     2 fB
       0.09326       294 A         35.08%    18 A               0.483  2.00     1 fA
                                   26.85%    21 A               9.586  0.00     1 fA
                                    6.46%    40 A              -0.458  0.00     2 fB
                                    5.03%    17 A               0.483  2.00     1 fA
                                    4.85%    20 A               9.586  0.00     1 fA
                                    2.06%    63 A               8.787  0.00     2 fB
                                    1.81%    56 A               5.973  0.00     2 fB
                                    1.80%    49 A               3.947  0.00     2 fB
                                    1.13%    48 A               3.856  0.00     2 fB
                                    1.00%    54 A               5.194  0.00     2 fB
      -0.05272         5 A         32.13%    31 A              -9.208  2.00     2 fB
                                   10.79%    39 A              -1.037  0.00     2 fB
                                    8.63%    20 A               9.586  0.00     1 fA
                                    4.35%    34 A              -7.013  2.00     2 fB
                                    3.89%    40 A              -0.458  0.00     2 fB
                                    3.81%    50 A               4.172  0.00     2 fB
                                    3.41%    41 A               0.126  0.00     2 fB
                                    3.33%    27 A             -12.019  2.00     2 fB
                                    2.84%    42 A               0.388  0.00     2 fB
                                    2.78%    35 A              -6.799  2.00     2 fB
                                    1.57%    26 A              15.187  0.00     1 fA
                                    1.49%    29 A             -10.870  2.00     2 fB
                                    1.43%    52 A               4.700  0.00     2 fB
                                    1.43%    23 A              15.187  0.00     1 fA
                                    1.40%    33 A              -7.811  2.00     2 fB
                                    1.31%    17 A               0.483  2.00     1 fA
                                    1.29%    38 A              -1.322  0.00     2 fB
                                    1.06%    44 A               1.377  0.00     2 fB
       0.05272       293 A         30.35%    31 A              -9.208  2.00     2 fB
                                   11.45%    39 A              -1.037  0.00     2 fB
                                    4.87%    34 A              -7.013  2.00     2 fB
                                    4.73%    20 A               9.586  0.00     1 fA
                                    4.21%    50 A               4.172  0.00     2 fB
                                    4.11%    27 A             -12.019  2.00     2 fB
                                    3.97%    40 A              -0.458  0.00     2 fB
                                    3.52%    41 A               0.126  0.00     2 fB
                                    2.55%    23 A              15.187  0.00     1 fA
                                    2.52%    42 A               0.388  0.00     2 fB
                                    2.49%    26 A              15.187  0.00     1 fA
                                    2.45%    35 A              -6.799  2.00     2 fB
                                    1.83%    52 A               4.700  0.00     2 fB
                                    1.37%    29 A             -10.870  2.00     2 fB
                                    1.29%    38 A              -1.322  0.00     2 fB
                                    1.20%    33 A              -7.811  2.00     2 fB
 Mulliken charges used for AMS results%charges...


    =====================
     CALCULATION RESULTS
    =====================

Energy (hartree)            -0.05412753


--------------
Atomic charges
--------------
  Index   Atom    Charge
      1     Br   -0.6295
      2      C    0.5622
      3      C    0.1136
      4     Br   -0.3463
      5      H    0.0698
      6      H   -0.1799
      7      H   -0.1957
      8      N   -0.0284
      9      H   -0.0641
     10      H   -0.0484
     11      C    0.0878
     12      N   -0.3410


Dipole moment vector    (Debye):    -1.58983060   -1.57755567   -2.17877418
              magnitude (Debye):     3.12462801


-----------------------
Molecular orbitals info
-----------------------
n orbitals:              297
n spin:                    1

Note: only printing virtual orbitals with
      energy smaller than HOMO + 100. eV

HOMO (eV):              -1.5036
LUMO (eV):               1.3218
HOMO-LUMO gap (eV):      2.8254

   Index   Energy (eV)    Occupation
     200       96.9588         0.000       
     199       95.3049         0.000       
     198       93.7497         0.000       
     197       92.4862         0.000       
     196       92.3637         0.000       
     195       90.5151         0.000       
     194       88.0898         0.000       
     193       86.4826         0.000       
     192       86.2746         0.000       
     191       85.9884         0.000       
     190       85.2680         0.000       
     189       84.9324         0.000       
     188       84.0579         0.000       
     187       83.5285         0.000       
     186       83.3233         0.000       
     185       83.0470         0.000       
     184       82.2458         0.000       
     183       81.7390         0.000       
     182       81.2334         0.000       
     181       81.0884         0.000       
     180       80.8717         0.000       
     179       80.1018         0.000       
     178       79.6240         0.000       
     177       77.9463         0.000       
     176       76.9921         0.000       
     175       76.6802         0.000       
     174       75.8533         0.000       
     173       74.8969         0.000       
     172       73.6298         0.000       
     171       72.7078         0.000       
     170       71.3647         0.000       
     169       70.6857         0.000       
     168       69.4405         0.000       
     167       68.7976         0.000       
     166       67.7737         0.000       
     165       67.2946         0.000       
     164       65.6609         0.000       
     163       64.3882         0.000       
     162       63.8883         0.000       
     161       62.0982         0.000       
     160       61.0181         0.000       
     159       58.5489         0.000       
     158       58.0447         0.000       
     157       56.6832         0.000       
     156       54.6825         0.000       
     155       54.0215         0.000       
     154       51.7637         0.000       
     153       50.4829         0.000       
     152       49.7106         0.000       
     151       48.7237         0.000       
     150       48.2640         0.000       
     149       48.1038         0.000       
     148       46.3995         0.000       
     147       46.0383         0.000       
     146       44.9931         0.000       
     145       44.8316         0.000       
     144       44.6235         0.000       
     143       42.4738         0.000       
     142       41.8046         0.000       
     141       41.2715         0.000       
     140       40.4936         0.000       
     139       40.2249         0.000       
     138       39.8728         0.000       
     137       39.3468         0.000       
     136       38.3387         0.000       
     135       38.3211         0.000       
     134       37.3541         0.000       
     133       36.9911         0.000       
     132       36.7143         0.000       
     131       36.5325         0.000       
     130       35.0863         0.000       
     129       34.1855         0.000       
     128       33.7427         0.000       
     127       33.1439         0.000       
     126       32.7920         0.000       
     125       32.1873         0.000       
     124       31.7368         0.000       
     123       31.2380         0.000       
     122       31.1199         0.000       
     121       30.4344         0.000       
     120       29.7542         0.000       
     119       29.4639         0.000       
     118       29.2593         0.000       
     117       29.0572         0.000       
     116       28.7942         0.000       
     115       28.7040         0.000       
     114       28.2197         0.000       
     113       27.7752         0.000       
     112       27.6609         0.000       
     111       27.3741         0.000       
     110       27.1331         0.000       
     109       26.7677         0.000       
     108       25.5307         0.000       
     107       24.2403         0.000       
     106       23.6522         0.000       
     105       22.8733         0.000       
     104       22.6548         0.000       
     103       21.4196         0.000       
     102       20.7999         0.000       
     101       20.3987         0.000       
     100       20.1773         0.000       
      99       19.0284         0.000       
      98       18.6776         0.000       
      97       17.8543         0.000       
      96       17.2876         0.000       
      95       16.4926         0.000       
      94       16.1970         0.000       
      93       15.9772         0.000       
      92       15.1829         0.000       
      91       15.0387         0.000       
      90       14.3777         0.000       
      89       14.0109         0.000       
      88       13.4885         0.000       
      87       13.2160         0.000       
      86       12.9989         0.000       
      85       12.8592         0.000       
      84       12.5987         0.000       
      83       11.9722         0.000       
      82       11.7381         0.000       
      81       11.3385         0.000       
      80       11.3309         0.000       
      79       10.9701         0.000       
      78       10.2122         0.000       
      77       10.0688         0.000       
      76        9.6569         0.000       
      75        9.2968         0.000       
      74        8.9642         0.000       
      73        8.7071         0.000       
      72        8.6387         0.000       
      71        8.2855         0.000       
      70        8.0568         0.000       
      69        7.7310         0.000       
      68        7.4334         0.000       
      67        7.3431         0.000       
      66        7.1019         0.000       
      65        6.8689         0.000       
      64        6.3850         0.000       
      63        5.4903         0.000       
      62        5.2203         0.000       
      61        4.4321         0.000       
      60        3.9953         0.000       
      59        3.8951         0.000       
      58        3.3203         0.000       
      57        2.9965         0.000       
      56        2.6213         0.000       
      55        1.3218         0.000 < LUMO
      54       -1.5036         2.000 < HOMO
      53       -1.9946         2.000       
      52       -2.0664         2.000       
      51       -2.9923         2.000       
      50       -3.1878         2.000       
      49       -3.2998         2.000       
      48       -3.9152         2.000       
      47       -4.6528         2.000       
      46       -5.0961         2.000       
      45       -5.2372         2.000       
      44       -6.6648         2.000       
      43       -6.9439         2.000       
      42       -7.6680         2.000       
      41       -9.0925         2.000       
      40       -9.7950         2.000       
      39      -12.2829         2.000       
      38      -14.0465         2.000       
      37      -15.5335         2.000       
      36      -15.8757         2.000       
      35      -18.5221         2.000       
      34      -19.5315         2.000       
      33      -60.2634         2.000       
      32      -60.2643         2.000       
      31      -60.3656         2.000       
      30      -60.3731         2.000       
      29      -60.4043         2.000       
      28      -61.5634         2.000       
      27      -61.5670         2.000       
      26      -61.7170         2.000       
      25      -61.7206         2.000       
      24      -61.7797         2.000       
      23     -166.8060         2.000       
      22     -166.8154         2.000       
      21     -166.9526         2.000       
      20     -168.1189         2.000       
      19     -168.1257         2.000       
      18     -168.3277         2.000       
      17     -230.6294         2.000       
      16     -231.9619         2.000       
      15     -267.5016         2.000       
      14     -267.5048         2.000       
      13     -268.0194         2.000       
      12     -377.9395         2.000       
      11     -378.2843         2.000       
      10    -1520.8980         2.000       
       9    -1520.9013         2.000       
       8    -1520.9468         2.000       
       7    -1522.2033         2.000       
       6    -1522.2060         2.000       
       5    -1522.2721         2.000       
       4    -1724.0035         2.000       
       3    -1725.3179         2.000       
       2   -13290.5610         2.000       
       1   -13291.8489         2.000       

AMS application finished. Exiting.
NORMAL TERMINATION
     Total cpu time:      64.80
  Total system time:       0.33
 Total elapsed time:      65.31
NORMAL TERMINATION
