
                                 *****************
                                 * O   R   C   A *
                                 *****************

                                            #,                                       
                                            ###                                      
                                            ####                                     
                                            #####                                    
                                            ######                                   
                                           ########,                                 
                                     ,,################,,,,,                         
                               ,,#################################,,                 
                          ,,##########################################,,             
                       ,#########################################, ''#####,          
                    ,#############################################,,   '####,        
                  ,##################################################,,,,####,       
                ,###########''''           ''''###############################       
              ,#####''   ,,,,##########,,,,          '''####'''          '####       
            ,##' ,,,,###########################,,,                        '##       
           ' ,,###''''                  '''############,,,                           
         ,,##''                                '''############,,,,        ,,,,,,###''
      ,#''                                            '''#######################'''  
     '                                                          ''''####''''         
             ,#######,   #######,   ,#######,      ##                                
            ,#'     '#,  ##    ##  ,#'     '#,    #''#        ,####,    ,#,          
            ##       ##  ##   ,#'  ##            #'  '#       #'       ,# #          
            ##       ##  #######   ##           ,######,      #####,      #          
            '#,     ,#'  ##    ##  '#,     ,#' ,#      #,     #,   #      #          
             '#######'   ##     ##  '#######'  #'      '#     '####' #    #          



                #########################################################
                #                        -***-                          #
                #          Department of theory and spectroscopy        #
                #                                                       #
                #                      Frank Neese                      #
                #                                                       #
                #     Directorship, Architecture, Infrastructure        #
                #                    SHARK, DRIVERS                     #
                #        Core code/Algorithms in most modules           #
                #                                                       #
                #        Max Planck Institute fuer Kohlenforschung      #
                #                Kaiser Wilhelm Platz 1                 #
                #                 D-45470 Muelheim/Ruhr                 #
                #                      Germany                          #
                #                                                       #
                #                  All rights reserved                  #
                #                        -***-                          #
                #########################################################


                         Program Version 6.1.1  -  RELEASE   -
                                (GIT: $487d211c$)
                          ($2025-11-21 10:33:24 +0100$)


 With contributions from (in alphabetic order):
[Max-Planck-Institut fuer Kohlenforschung]                               
  Daniel Aravena         : Magnetic Suceptibility                        
  Michael Atanasov       : Ab Initio Ligand Field Theory (pilot matlab implementation)
  Alexander A. Auer      : GIAO ZORA, VPT2 properties, NMR spectrum      
  Ute Becker             : All parallelization in ORCA, NUMFREQ, NUMCALC 
  Giovanni Bistoni       : ED, misc. LED, open-shell LED, HFLD           
  Dmytro Bykov           : pre 5.0 version of the SCF Hessian            
  Marcos Casanova-Páez   : Triplet and SCS-CIS(D). UHF-(DLPNO)-IP/EA/STEOM-CCSD. UHF-CVS-IP/STEOM-CCSD   
  Vijay G. Chilkuri      : MRCI spin determinant printing, contributions to CSF-ICE 
  Pauline Colinet        : FMM embedding                                 
  Dipayan Datta          : RHF DLPNO-CCSD density                        
  Achintya Kumar Dutta   : EOM-CC, STEOM-CC                              
  Nicolas Foglia         : Exact transition moments, OPA infrastructure, MCD improvements    
  Dmitry Ganyushin       : Spin-Orbit,Spin-Spin,Magnetic field MRCI      
  Miquel Garcia-Rates    : C-PCM and meta-GGA Hessian, CCSD/C-PCM, Gaussian charge scheme 
  Tiago L. C. Gouveia    : GS-ROHF, GS-ROCIS                             
  Yang Guo               : DLPNO-NEVPT2, F12-NEVPT2, CIM, IAO-localization        
  Andreas Hansen         : Spin unrestricted coupled pair/coupled cluster methods 
  Ingolf Harden          : AUTO-CI MPn and infrastructure                
  Benjamin Helmich-Paris : MC-RPA, TRAH-(SCF,CASSCF), AVAS, COSX integrals, SCF dyn. polar., MC-PDFT, srDFT 
  Lee Huntington         : MR-EOM, pCC                                   
  Robert Izsak           : Overlap fitted RIJCOSX, COSX-SCS-MP3, EOM     
  Riya Kayal             : Wick's Theorem for AUTO-CI, AUTO-CI UHF-CCSDT 
  Emily Kempfer          : AUTO-CI RHF CISDT and CCSDT, approximate NEVPT4
  Christian Kollmar      : KDIIS, OOCD, Brueckner-CCSD(T), CCSD density, CASPT2, CASPT2-K, improved NEVPT2 
  Axel Koslowski         : Symmetry handling                             
  Simone Kossmann        : meta-GGA functionals, TD-DFT gradient, OOMP2, (MP2 Hessian; deprecated post 5.0) 
  Lucas Lang             : DCDCAS, Hyperfine gauge corrections, ICE-SOC+SSC
  Marvin Lechner         : AUTO-CI (C++ implementation), FIC-MRCC        
  Spencer Leger          : CASSCF response                               
  Dagmar Lenk            : GEPOL surface, SMD, ORCA-2-JSON               
  Dimitrios Liakos       : Extrapolation schemes; Compound Job, Property file
  Dimitrios Manganas     : Further ROCIS development; embedding schemes. LFT, Crystal Embedding 
  Dimitrios Pantazis     : SARC Basis sets                               
  Anastasios Papadopoulos: AUTO-CI, single reference methods and gradients 
  Taras Petrenko         : pre 6.0 DFT Hessian and TD-DFT gradient,  ECA, NRVS 
  Petra Pikulova         : Analytic Raman intensities                    
  Peter Pinski           : DLPNO-MP2, DLPNO-MP2 Gradient                 
  Shashank Vittal Rao    : ES-AILFT, MagRelax                            
  Christoph Reimann      : Effective Core Potentials                     
  Marius Retegan         : Local ZFS, SOC                                
  Christoph Riplinger    : Optimizer, TS searches, QM/MM, DLPNO-CCSD(T), (RO)-DLPNO pert. Triples 
  Michael Roemelt        : Original ROCIS implementation, recursive CI coupling coefficients
  Masaaki Saitow         : Open-shell DLPNO-CCSD energy and density      
  Barbara Sandhoefer     : DKH picture change effects                    
  Yorick L. A. Schmerwitz: GMF and freeze-and-release deltaSCF, NEB S-IDPP initial path                    
  Kantharuban Sivalingam : CASSCF convergence/infrastructure, NEVPT2, NEVPT3, NEVPT4(SD), FIC-MRCI and CEPA variants
  Bernardo de Souza      : ESD, SOC TD-DFT                               
  Georgi L. Stoychev     : AutoAux, RI-MP2 NMR, DLPNO-MP2 response, X2C  
  Van Anh Tran           : RI-MP2 g-tensors                              
  Willem Van den Heuvel  : Paramagnetic NMR                              
  Zikuan Wang            : NOTCH, Electric field optimization            
  Frank Wennmohs         : Technical directorship and infrastructure     
  Hang Xu                : AUTO-CI-Response properties                   
                                                                         
[FACCTs GmbH]                                                            
  Markus Bursch, Nicolas Foglia, Miquel Garcia-Rates, Ingolf Harden, Hagen Neugebauer, Anastasios Papadopoulos, 
  Christoph Riplinger, Bernardo de Souza, Georgi L. Stoychev                                                    
                                                                 
  APM, various basis sets, CI-OPT, improved COSX, DLPNO-Multilevel,           
  DOCKER, DRACO, updates on ESD, Fragmentator, GOAT, IRC, LR-CPCM, L-BFGS, MBIS, meta-GGA TD-DFT gradient, ML-optimized integration grids, 
  MM, NACMEs, nearIR, NEB, NEB-TS, NL-DFT gradient (VV10), 2- and 3-layer-ONIOM, interface openCOSMO-RS, QMMM,   
  Crystal-QMMM, RESP, rigid body optimization, SF, symmetry and pop. for TD-DFT, various functionals, SOLVATOR                                   
                                                                         
[Other institutions]                                                     
  V. Asgeirsson          : NEB                                           
  Christoph Bannwarth    : sTDA-DFT, sTD-DFT, PBEh-3c, B97-3c, D3        
  Giovanni Bistoni       : ETS/NOCV, ADLD/ADEX, COVALED                  
  Martin Brehm           : Molecular dynamics                            
  Ronald Cardenas        : ETS/NOCV                                      
  Martina Colucci        : COVALED                                       
  Sebastian Ehlert       : rSCAN, r2SCAN, r2SCAN-3c, D4, dhf basis sets  
  Marvin Friede          : D4 for Fr, Ra, Ac-Lr                          
  Lars Goerigk           : TD-DFT with DH, B97 family of functionals     
  Stefan Grimme          : VdW corrections, initial TS optimization, DFT functionals, gCP, sTDA/sTD-DF 
  Waldemar Hujo          : DFT-NL                                        
  H. Jonsson             : NEB                                           
  Holger Kruse           : gCP                                           
  Marcel Mueller         : wB97X-3c, vDZP basis set                      
  Hagen Neugebauer       : wr2SCAN, Native XTB                           
  Gianluca Regni         : ADLD/ADEX                                     
  Tobias Risthaus        : pre 6.0 range-separated hybrid DFT and stability analysis
  Lukas Wittmann         : regularized MP2, r2SCAN double-hybrids, wr2SCAN        
                                                                         
We gratefully acknowledge several colleagues who have allowed us to      
interface, adapt or use parts of their codes:                            
  Ed Valeev, F. Pavosevic, A. Kumar             : LibInt (2-el integral package), F12 methods 
  Garnet Chan, S. Sharma, J. Yang, R. Olivares  : DMRG                   
  Ulf Ekstrom                                   : XCFun DFT Library      
  Mihaly Kallay                                 : mrcc  (arbitrary order and MRCC methods)
  Frank Weinhold                                : gennbo (NPA and NBO analysis)           
  Simon Mueller                                 : openCOSMO-RS                            
  Christopher J. Cramer and Donald G. Truhlar   : smd solvation model                     
  S Lehtola, MJT Oliveira, MAL Marques          : LibXC Library                           
  Liviu Ungur et al                             : ANISO software                          


 Your calculation uses the libint2 library for the computation of 2-el integrals
 For citations please refer to: http://libint.valeyev.net

 Your ORCA version has been built with support for libXC version: 7.0.0
 For citations please refer to: https://libxc.gitlab.io

 This ORCA versions uses:
   CBLAS   interface :  Fast vector & matrix operations
   LAPACKE interface :  Fast linear algebra routines
   SCALAPACK package :  Parallel linear algebra routines
   Shared memory     :  Shared parallel matrices
   BLAS/LAPACK       :  OpenBLAS 0.3.29  USE64BITINT DYNAMIC_ARCH NO_AFFINITY SkylakeX SINGLE_THREADED
        Core in use  :  SkylakeX
   Copyright (c) 2011-2014, The OpenBLAS Project


  ***********************************
  * Starting time: Sat May 23 02:37:20 2026
  * Host name:     n047.hpc
  * Process ID:    3233406
  * Working dir.:  /gpfs/home1/yeseo1ee/projects/v1-claisen-asr/runs/cn/orca
  ***********************************

NOTE: MaxCore=4000 MB was set to SCF,MP2,MDCI,CIPSI,MRCI,RASCI and CIS
      => If you want to overwrite this, your respective input block should be placed after the MaxCore statement


***************************************
The coordinates will be read from file: ts_guess.xyz
***************************************


Your calculation utilizes the atom-pairwise dispersion correction
based on EEQ partial charges (D4)


================================================================================

cite the ECPs for C  [vDZP-ECP], N  [vDZP-ECP], O  [vDZP-ECP] as follows:
   B-Ne (ecp-2-mwb), Al-Ar (ecp-10-mwb), Ga-Kr (ecp-28-mwb), Y-Cd (ecp-28-mwb), In-Xe (ecp-46-mwb):
     A. Bergner, M. Dolg, W. Küchle, H. Stoll, and H. Preuß, Mol. Phys. 80, 1431 (1993)., T. Leininger, A. Berning, A. Nicklass, H. Stoll, H.-J. Werner, and H.-J.Flad, Chem. Phys. 217, 19 (1997).
   Na-Mg, K-Ca, Rb-Sr, Cs-Ba (CRENBL):
     L. Fernandez Pacios and P. A. Christiansen, J. Chem. Phys. 82, 2664 (1985)., M. M. Hurley, L. F. Pacios, P. A. Christiansen, R. B. Ross, and W. C. Ermler, J. Chem. Phys. 84, 6840 (1986)., L. A. LaJohn, P. A. Christiansen, R. B. Ross, T. Atashroo, and W. C. Ermler, J. Chem. Phys. 87, 2812 (1987)., R. B. Ross, J. M. Powers, T. Atashroo, W. C. Ermler, L. A. LaJohn, and P. A. Christiansen, J. Chem. Phys. 93, 6654 (1990). 
   Sc-Zn (ecp-10-mdf):
     M. Dolg, U. Wedig, H. Stoll, and H. Preuss, J. Chem. Phys. 86, 866 (1986). 
   Y-Cd (ecp-28-mwb), Hf-Hg (ecp-60-mwb):
     D. Andrae, U. Häußermann, M. Dolg, H. Stoll, and H. Preuß, Theor. Chim. Acta 77, 123 (1990). 
   La (ecp-46-mwb):
     M. Dolg, H. Stoll, and H. Preuss, J. Chem. Phys. 90, 1730 (1989)., M. Dolg, H. Stoll, and H. Preuss, Theor. Chim. Acta 85, 441 (1993).
   Ce-Lu (SBKJC-ecp):
     T. R. Cundari and W. J. Stevens, J. Chem. Phys. 98, 5555 (1993).
   Tl-Rn (ecp-78-mwb):
     W. Küchle, M. Dolg, H. Stoll, and H. Preuss, Mol. Phys. 74, 1245 (1991).

ECP parameters for C  [vDZP-ECP], N  [vDZP-ECP], O  [vDZP-ECP] have been obtained from:
MM, AH, SG, J. Chem. Phys. 158, 014103 (2023), 10.1063/5.0133026

----- Orbital basis set information -----
Your calculation utilizes the basis: vDZP
   Marcel Mueller, Andreas Hansen, Stefan Grimme 
   J. Chem. Phys. 158, 014103 (2023). DOI: 10.1063/5.0133026

----- AuxJ basis set information -----
Your calculation utilizes the auxiliary basis: def2/J
   H-Rn: F. Weigend, Phys. Chem. Chem. Phys. 8, 1057 (2006).
   Fr-Lr: K. Eichkorn, F. Weigend, O. Treutler, R. Ahlrichs; Theor. Chem. Acc. 97, 119 (1997).

================================================================================
                                        WARNINGS
                       Please study these warnings very carefully!
================================================================================

WARNING: Frozen-Core approximation turned on, but there are no core electrons.
  ===> : Turning off frozen-core approximation


WARNING: Geometry Optimization
  ===> : Switching off AutoStart
         For restart on a previous wavefunction, please use MOREAD

================================================================================
                                       INPUT FILE
================================================================================
NAME = ts.inp
|  1> ! wB97X-3c OptTS Freq TightSCF
|  2> %pal nprocs 8 end
|  3> %maxcore 4000
|  4> %geom
|  5>   Calc_Hess true
|  6>   Recalc_Hess 5
|  7> end
|  8> * xyzfile 0 1 ts_guess.xyz
|  9> 
| 10>                          ****END OF INPUT****
================================================================================

                       *****************************
                       * Geometry Optimization Run *
                       *****************************

Geometry optimization settings:
Update method            Update   .... Bofill
Choice of coordinates    CoordSys .... (2022) Redundant Internals
Initial Hessian          InHess   .... Almloef's Model
Max. no of cycles        MaxIter  .... 50

Convergence Tolerances:
Energy Change            TolE     ....  5.0000e-06 Eh
Max. Gradient            TolMAXG  ....  3.0000e-04 Eh/bohr
RMS Gradient             TolRMSG  ....  1.0000e-04 Eh/bohr
Max. Displacement        TolMAXD  ....  4.0000e-03 bohr
RMS Displacement         TolRMSD  ....  2.0000e-03 bohr
Strict Convergence                .... False

------------------------------------------------------------------------------
                        ORCA OPTIMIZATION COORDINATE SETUP
------------------------------------------------------------------------------

The optimization will be done in redundant internal coordinates (2022)
Making redundant internal coordinates   ...  (2022 redundants) done
Following TS mode number                ...     0
Evaluating the initial hessian          ...  (Is done on the fly) done
Evaluating the coordinates              ...  done
Calculating the B-matrix                .... done
Calculating the G-matrix                .... done
The number of degrees of freedom        ....   53

    -----------------------------------------------------------------
                    Redundant Internal Coordinates


    -----------------------------------------------------------------
         Definition                    Initial Value    d2E/dq (diagonal element)
    -----------------------------------------------------------------
      1. B(C   1,C   0)                  1.3491         0.000000   
      2. B(C   2,C   1)                  1.4372         0.000000   
      3. B(N   3,C   2)                  1.1498         0.000000   
      4. B(O   4,C   1)                  1.3255         0.000000   
      5. B(C   5,O   4)                  1.5081         0.000000   
      6. B(C   6,C   5)                  1.4569         0.000000   
      7. B(C   7,C   6)                  1.3530         0.000000   
      8. B(H   8,C   0)                  1.0808         0.000000   
      9. B(H   9,C   0)                  1.0742         0.000000   
     10. B(H  10,C   5)                  1.0884         0.000000   
     11. B(H  11,C   5)                  1.0833         0.000000   
     12. B(H  12,C   6)                  1.0839         0.000000   
     13. B(H  13,C   7)                  1.0841         0.000000   
     14. B(H  14,C   7)                  1.0782         0.000000   
     15. A(H   8,C   0,H   9)          116.4533         0.000000   
     16. A(C   1,C   0,H   8)          118.7532         0.000000   
     17. A(C   1,C   0,H   9)          118.5326         0.000000   
     18. A(C   0,C   1,C   2)          120.6602         0.000000   
     19. A(C   2,C   1,O   4)          114.4304         0.000000   
     20. A(C   0,C   1,O   4)          122.4014         0.000000   
     21. L(C   1,C   2,N   3,O   4, 2) 181.3612         0.000000   
     22. L(C   1,C   2,N   3,O   4, 1) 180.9184         0.000000   
     23. A(C   1,O   4,C   5)          117.5567         0.000000   
     24. A(O   4,C   5,C   6)          104.7859         0.000000   
     25. A(C   6,C   5,H  10)          114.4733         0.000000   
     26. A(O   4,C   5,H  10)          107.3525         0.000000   
     27. A(O   4,C   5,H  11)          102.3525         0.000000   
     28. A(C   6,C   5,H  11)          116.2215         0.000000   
     29. A(H  10,C   5,H  11)          110.3499         0.000000   
     30. A(C   7,C   6,H  12)          119.1128         0.000000   
     31. A(C   5,C   6,H  12)          115.7535         0.000000   
     32. A(C   5,C   6,C   7)          116.5888         0.000000   
     33. A(H  13,C   7,H  14)          114.7562         0.000000   
     34. A(C   6,C   7,H  14)          120.1708         0.000000   
     35. A(C   6,C   7,H  13)          119.7589         0.000000   
     36. D(C   2,C   1,C   0,H   9)   -164.0730         0.000000   
     37. D(O   4,C   1,C   0,H   9)     34.8966         0.000000   
     38. D(C   2,C   1,C   0,H   8)    -12.8281         0.000000   
     39. D(O   4,C   1,C   0,H   8)   -173.8585         0.000000   
     40. D(C   5,O   4,C   1,C   2)   -131.3607         0.000000   
     41. D(C   5,O   4,C   1,C   0)     30.7534         0.000000   
     42. D(C   6,C   5,O   4,C   1)     39.8142         0.000000   
     43. D(H  11,C   5,O   4,C   1)    161.5235         0.000000   
     44. D(H  10,C   5,O   4,C   1)    -82.2834         0.000000   
     45. D(H  12,C   6,C   5,H  10)   -171.6405         0.000000   
     46. D(H  12,C   6,C   5,O   4)     71.0334         0.000000   
     47. D(C   7,C   6,C   5,H  11)    171.1792         0.000000   
     48. D(C   7,C   6,C   5,H  10)     40.6307         0.000000   
     49. D(C   7,C   6,C   5,O   4)    -76.6954         0.000000   
     50. D(H  13,C   7,C   6,C   5)    160.6893         0.000000   
     51. D(H  14,C   7,C   6,H  12)    167.0013         0.000000   
     52. D(H  14,C   7,C   6,C   5)    -46.3953         0.000000   
     53. D(H  13,C   7,C   6,H  12)     14.0859         0.000000   
    -----------------------------------------------------------------

Number of atoms                         .... 15
Number of degrees of freedom            .... 53


         *************************************************************
         *                GEOMETRY OPTIMIZATION CYCLE   1            *
         *************************************************************
---------------------------------
CARTESIAN COORDINATES (ANGSTROEM)
---------------------------------
  C     -0.927287   -0.933386   -0.352535
  C     -1.238552    0.294583    0.111534
  C     -1.865323    1.264308   -0.744209
  N     -2.383428    2.024799   -1.433643
  O     -0.683255    0.803496    1.202204
  C      0.728014    0.383110    1.527729
  C      1.410669    0.344876    0.241287
  C      1.152739   -0.722151   -0.549694
  H     -1.338690   -1.250717   -1.300296
  H     -0.705971   -1.709103    0.356838
  H      0.671409   -0.577232    2.036867
  H      1.047162    1.156239    2.216155
  H      1.603946    1.307398   -0.218095
  H      1.363291   -0.668067   -1.611752
  H      1.165275   -1.718151   -0.137082

----------------------------
CARTESIAN COORDINATES (A.U.)
----------------------------
  NO LB      ZA    FRAG     MASS         X           Y           Z
   0 C     4.0000*   0    12.011   -1.752319   -1.763845   -0.666194
   1 C     4.0000*   0    12.011   -2.340524    0.556681    0.210769
   2 C     4.0000*   0    12.011   -3.524949    2.389195   -1.406351
   3 N     5.0000*   0    14.007   -4.504026    3.826315   -2.709192
   4 O     6.0000*   0    15.999   -1.291164    1.518386    2.271836
   5 C     4.0000*   0    12.011    1.375748    0.723973    2.886990
   6 C     4.0000*   0    12.011    2.665778    0.651722    0.455966
   7 C     4.0000*   0    12.011    2.178361   -1.364668   -1.038771
   8 H     1.0000    0     1.008   -2.529757   -2.363513   -2.457204
   9 H     1.0000    0     1.008   -1.334091   -3.229736    0.674327
  10 H     1.0000    0     1.008    1.268780   -1.090811    3.849120
  11 H     1.0000    0     1.008    1.978850    2.184975    4.187926
  12 H     1.0000    0     1.008    3.031019    2.470624   -0.412141
  13 H     1.0000    0     1.008    2.576247   -1.262464   -3.045769
  14 H     1.0000    0     1.008    2.202050   -3.246835   -0.259047
* core charge reduced due to ECP

--------------------------------
INTERNAL COORDINATES (ANGSTROEM)
--------------------------------
 C      0   0   0     0.000000000000     0.00000000     0.00000000
 C      1   0   0     1.349130904408     0.00000000     0.00000000
 C      2   1   0     1.437185955134   120.66022100     0.00000000
 N      3   2   1     1.149825685253   178.84666946    54.18331379
 O      2   1   3     1.325483892127   122.40141570   198.96956283
 C      5   2   1     1.508101662639   117.55674893    30.75336882
 C      6   5   2     1.456850440876   104.78592703    39.81424941
 C      7   6   5     1.353043036123   116.58882090   283.30457089
 H      1   2   3     1.080834583397   118.75323647   347.17191818
 H      1   2   3     1.074209622631   118.53256306   195.92700931
 H      6   5   2     1.088431298194   107.35250765   277.71659328
 H      6   5   2     1.083288636666   102.35248209   161.52346565
 H      7   6   5     1.083898607198   115.75348023    71.03342652
 H      8   7   6     1.084077645264   119.75889875   160.68925375
 H      8   7   6     1.078156705295   120.17075322   313.60467050

---------------------------
INTERNAL COORDINATES (A.U.)
---------------------------
 C      0   0   0     0.000000000000     0.00000000     0.00000000
 C      1   0   0     2.549487928141     0.00000000     0.00000000
 C      2   1   0     2.715887858721   120.66022100     0.00000000
 N      3   2   1     2.172855646877   178.84666946    54.18331379
 O      2   1   3     2.504801551044   122.40141570   198.96956283
 C      5   2   1     2.849899124500   117.55674893    30.75336882
 C      6   5   2     2.753048351339   104.78592703    39.81424941
 C      7   6   5     2.556880785682   116.58882090   283.30457089
 H      1   2   3     2.042481358691   118.75323647   347.17191818
 H      1   2   3     2.029961997195   118.53256306   195.92700931
 H      6   5   2     2.056837069176   107.35250765   277.71659328
 H      6   5   2     2.047118847287   102.35248209   161.52346565
 H      7   6   5     2.048271524543   115.75348023    71.03342652
 H      8   7   6     2.048609857456   119.75889875   160.68925375
 H      8   7   6     2.037420902459   120.17075322   313.60467050

---------------------
BASIS SET INFORMATION
---------------------
There are 4 groups of distinct atoms

 Group   1 Type C   : 6s6p2d contracted to 2s2p1d pattern {42/42/2}
 Group   2 Type N   : 6s6p2d contracted to 2s2p1d pattern {42/42/2}
 Group   3 Type O   : 6s6p2d contracted to 2s2p1d pattern {42/42/2}
 Group   4 Type H   : 8s2p contracted to 2s1p pattern {53/2}

Atom   0C    basis set group =>   1
Atom   1C    basis set group =>   1
Atom   2C    basis set group =>   1
Atom   3N    basis set group =>   2
Atom   4O    basis set group =>   3
Atom   5C    basis set group =>   1
Atom   6C    basis set group =>   1
Atom   7C    basis set group =>   1
Atom   8H    basis set group =>   4
Atom   9H    basis set group =>   4
Atom  10H    basis set group =>   4
Atom  11H    basis set group =>   4
Atom  12H    basis set group =>   4
Atom  13H    basis set group =>   4
Atom  14H    basis set group =>   4
---------------------------------
AUXILIARY/J BASIS SET INFORMATION
---------------------------------
There are 4 groups of distinct atoms

 Group   1 Type C   : 12s5p4d2f1g contracted to 6s4p3d1f1g pattern {711111/2111/211/2/1}
 Group   2 Type N   : 12s5p4d2f1g contracted to 6s4p3d1f1g pattern {711111/2111/211/2/1}
 Group   3 Type O   : 12s5p4d2f1g contracted to 6s4p3d1f1g pattern {711111/2111/211/2/1}
 Group   4 Type H   : 5s2p1d contracted to 3s1p1d pattern {311/2/1}

Atom   0C    basis set group =>   1
Atom   1C    basis set group =>   1
Atom   2C    basis set group =>   1
Atom   3N    basis set group =>   2
Atom   4O    basis set group =>   3
Atom   5C    basis set group =>   1
Atom   6C    basis set group =>   1
Atom   7C    basis set group =>   1
Atom   8H    basis set group =>   4
Atom   9H    basis set group =>   4
Atom  10H    basis set group =>   4
Atom  11H    basis set group =>   4
Atom  12H    basis set group =>   4
Atom  13H    basis set group =>   4
Atom  14H    basis set group =>   4
-------------------------
ECP PARAMETER INFORMATION
-------------------------

 Group 1, Type C  ECP vDZP-ECP (replacing 2 core electrons, lmax=3)
 Group 2, Type N  ECP vDZP-ECP (replacing 2 core electrons, lmax=3)
 Group 3, Type O  ECP vDZP-ECP (replacing 2 core electrons, lmax=3)

Atom   0C    ECP group =>   1
Atom   1C    ECP group =>   1
Atom   2C    ECP group =>   1
Atom   3N    ECP group =>   2
Atom   4O    ECP group =>   3
Atom   5C    ECP group =>   1
Atom   6C    ECP group =>   1
Atom   7C    ECP group =>   1



           ************************************************************
           *        Program running with 8 parallel MPI-processes     *
           *              working on a common directory               *
           ************************************************************
------------------------------------------------------------------------------
                             ORCA STARTUP CALCULATIONS
                           -- RI-GTO INTEGRALS CHOSEN --
------------------------------------------------------------------------------
------------------------------------------------------------------------------
                   ___                                                        
                  /   \      - P O W E R E D   B Y -                         
                 /     \                                                     
                 |  |  |   _    _      __       _____    __    __             
                 |  |  |  | |  | |    /  \     |  _  \  |  |  /  |          
                  \  \/   | |  | |   /    \    | | | |  |  | /  /          
                 / \  \   | |__| |  /  /\  \   | |_| |  |  |/  /          
                |  |  |   |  __  | /  /__\  \  |    /   |      \           
                |  |  |   | |  | | |   __   |  |    \   |  |\   \          
                \     /   | |  | | |  |  |  |  | |\  \  |  | \   \       
                 \___/    |_|  |_| |__|  |__|  |_| \__\ |__|  \__/        
                                                                              
                      - O R C A' S   B I G   F R I E N D -                    
                                      &                                       
                       - I N T E G R A L  F E E D E R -                       
                                                                              
 v1 FN, 2020, v2 2021, v3 2022-2024                                           
------------------------------------------------------------------------------


----------------------
SHARK INTEGRAL PACKAGE
----------------------

Number of atoms                             ...     15
Number of basis functions                   ...    139
Number of shells                            ...     61
Maximum angular momentum                    ...      2
Integral batch strategy                     ... SHARK/LIBINT Hybrid
RI-J (if used) integral strategy            ... SPLIT-RIJ (Revised 2003 algorithm where possible)
Printlevel                                  ...      1
Contraction scheme used                     ... SEGMENTED contraction
Prescreening option                         ... SCHWARTZ
   Thresh                                   ... 2.500e-11
   Tcut                                     ... 2.500e-12
   Tpresel                                  ... 2.500e-12 
Coulomb Range Separation                    ... NOT USED
Exchange Range Separation                   ... Long Range
   Mu parameter                             ... 3.000e-01
   Scaling (regular/separated)              ... 1.670e-01 8.330e-01
Robust (split-)RI terms used:
  metric    (central integrals)             ... YES
  density   (r.h.s.  integrals)             ... YES
  potential (l.h.s.  integrals)             ... YES
Multipole approximations                    ... NOT USED
Finite Nucleus Model                        ... NOT USED
CABS basis                                  ... NOT available
Auxiliary Coulomb fitting basis             ... AVAILABLE
   # of basis functions in Aux-J            ...    469
   # of shells in Aux-J                     ...    155
   Maximum angular momentum in Aux-J        ...      4
Auxiliary J/K fitting basis                 ... NOT available
Auxiliary Correlation fitting basis         ... NOT available
Auxiliary 'external' fitting basis          ... NOT available

Checking pre-screening integrals            ... done (  0.0 sec) Dimension = 61
   => SHARK Basis and OBASIS are compatible. Storing Pre-screening
Shell pair information
Shell pair cut-off parameter TPreSel        ...   2.5e-12
Total number of shell pairs                 ...      1891
Shell pairs after pre-screening             ...      1891
Total number of primitive shell pairs       ...     16871
Primitive shell pairs kept                  ...     15014
          la=0 lb=0:    465 shell pairs
          la=1 lb=0:    690 shell pairs
          la=1 lb=1:    276 shell pairs
          la=2 lb=0:    240 shell pairs
          la=2 lb=1:    184 shell pairs
          la=2 lb=2:     36 shell pairs

Checking whether 4 symmetric matrices of dimension 139 fit in memory
:Max Core in MB      =   4000.00
 MB in use           =      7.46
 MB left             =   3992.54
 MB needed           =      0.30
 Data fit in memory  = YES
Calculating RI/J V-Matrix + Cholesky decomp.... done (  0.0 sec)
Calculating Nuclear repulsion               ... done (  0.0 sec) ENN=    181.197317274484 Eh

Diagonalization of the overlap matrix:
Smallest eigenvalue                        ... 1.405e-03
Time for diagonalization                   ...    0.002 sec
Threshold for overlap eigenvalues          ... 1.000e-07
Number of eigenvalues below threshold      ... 0
Time for construction of square roots      ...    0.001 sec
Total time needed                          ...    0.004 sec

-------------------
DFT GRID GENERATION
-------------------

General Integration Accuracy     IntAcc      ... 4.388
Radial Grid Type                 RadialGrid  ... OptM3 with GC (2021)
Angular Grid (max. ang.)         AngularGrid ... 4 (Lebedev-302)
Angular grid pruning method      GridPruning ... 4 (adaptive)
Weight generation scheme         WeightScheme... mBecke (2022)
Basis function cutoff            BFCut       ... 1.0000e-11
Integration weight cutoff        WCut        ... 1.0000e-14
Partially contracted basis set               ... off
Rotationally invariant grid construction     ... off
Angular grids for H and He will be reduced by one unit

Total number of grid points                  ...    70693
Total number of batches                      ...     1113
Average number of points per batch           ...       63
Average number of grid points per atom       ...     4713

--------------------
COSX GRID GENERATION
--------------------

GRIDX 1
-------
General Integration Accuracy     IntAcc      ... 3.816
Radial Grid Type                 RadialGrid  ... OptM3 with GC (2021)
Angular Grid (max. ang.)         AngularGrid ... 1 (Lebedev-50)
Angular grid pruning method      GridPruning ... 4 (adaptive)
Weight generation scheme         WeightScheme... mBecke (2022)
Basis function cutoff            BFCut       ... 1.0000e-11
Integration weight cutoff        WCut        ... 1.0000e-14
Partially contracted basis set               ... on
Rotationally invariant grid construction     ... off
Angular grids for H and He will be reduced by one unit

Total number of grid points                  ...     9018
Total number of batches                      ...       81
Average number of points per batch           ...      111
Average number of grid points per atom       ...      601
UseSFitting                                  ... on

GRIDX 2
-------
General Integration Accuracy     IntAcc      ... 4.020
Radial Grid Type                 RadialGrid  ... OptM3 with GC (2021)
Angular Grid (max. ang.)         AngularGrid ... 2 (Lebedev-110)
Angular grid pruning method      GridPruning ... 4 (adaptive)
Weight generation scheme         WeightScheme... mBecke (2022)
Basis function cutoff            BFCut       ... 1.0000e-11
Integration weight cutoff        WCut        ... 1.0000e-14
Partially contracted basis set               ... on
Rotationally invariant grid construction     ... off
Angular grids for H and He will be reduced by one unit

Total number of grid points                  ...    19718
Total number of batches                      ...      163
Average number of points per batch           ...      120
Average number of grid points per atom       ...     1315
UseSFitting                                  ... on

GRIDX 3
-------
General Integration Accuracy     IntAcc      ... 4.338
Radial Grid Type                 RadialGrid  ... OptM3 with GC (2021)
Angular Grid (max. ang.)         AngularGrid ... 3 (Lebedev-194)
Angular grid pruning method      GridPruning ... 4 (adaptive)
Weight generation scheme         WeightScheme... mBecke (2022)
Basis function cutoff            BFCut       ... 1.0000e-11
Integration weight cutoff        WCut        ... 1.0000e-14
Partially contracted basis set               ... on
Rotationally invariant grid construction     ... off
Angular grids for H and He will be reduced by one unit

Total number of grid points                  ...    43336
Total number of batches                      ...      345
Average number of points per batch           ...      125
Average number of grid points per atom       ...     2889
UseSFitting                                  ... on
Grids setup in   0.6 sec
Initializing property integral containers    ... done (  0.0 sec)

SHARK setup successfully completed in   0.8 seconds

Maximum memory used throughout the entire STARTUP-calculation: 21.0 MB


           ************************************************************
           *        Program running with 8 parallel MPI-processes     *
           *              working on a common directory               *
           ************************************************************
-------------------------------------------------------------------------------
                                 ORCA GUESS
                   Start orbitals & Density for SCF / CASSCF
-------------------------------------------------------------------------------

------------
SCF SETTINGS
------------
Hamiltonian:
 Density Functional     Method          .... DFT(GTOs)
 Exchange Functional    Exchange        .... WB97X-V
 Correlation Functional Correlation     .... WB97X-V
 Gradients option       PostSCFGGA      .... off
 Hybrid DFT is turned on
   Fraction HF Exchange ScalHFX         ....  0.167000
   Scaling of DF-GGA-X  ScalDFX         ....  0.000000
   Scaling of DF-GGA-C  ScalDFC         ....  1.000000
   Scaling of DF-LDA-C  ScalLDAC        ....  1.000000
   Perturbative correction              ....  0.000000
 Long-range corrected/Screened/Range-Separated Hybrid DFT is turned on
   Amount of maximum screened exact exchange              ....  0.833000
   Range separation parameter mu (erf(mu*r12)/r12)        ....  0.300000
   NL short-range parameter             ....  6.000000
   NL long-range parameter              ....  0.010000
 RI-approximation to the Coulomb term is turned on
   Number of AuxJ basis functions       .... 469
   RIJ-COSX (HFX calculated with COS-X)).... on


General Settings:
 Integral files         IntName         .... ts
 Hartree-Fock type      HFTyp           .... RHF
 Total Charge           Charge          ....    0
 Multiplicity           Mult            ....    1
 Number of Electrons    NEL             ....   42
 Basis Dimension        Dim             ....  139
 Nuclear Repulsion      ENuc            ....    181.1973172745 Eh

Convergence Acceleration:
 AO-DIIS                CNVDIIS         .... on
   Start iteration      DIISMaxIt       ....    12
   Startup error        DIISStart       ....  0.200000
   # of expansion vecs  DIISMaxEq       ....     5
   Bias factor          DIISBfac        ....   1.050
   Max. coefficient     DIISMaxC        ....  10.000
 MO-DIIS                CNVKDIIS        .... off
 Trust-Rad. Augm. Hess. CNVTRAH         .... auto
   Auto Start mean grad. ratio tolernc. ....  1.125000
   Auto Start start iteration           ....    50
   Auto Start num. interpolation iter.  ....    10
   Max. Number of Micro iterations      ....    24
   Max. Number of Macro iterations      .... Maxiter - #DIIS iter
   Number of Davidson start vectors     ....     2
   Converg. threshold    (grad. norm)   ....   1.000e-05
   Grad. Scal. Fac. for Micro threshold ....   0.100
   Minimum threshold for Micro iter.    ....   1.000e-02
   NR start threshold (gradient norm)   ....   1.000e-04
   Initial trust radius                 ....   0.400
   Minimum AH scaling param. (alpha)    ....   1.000
   Maximum AH scaling param. (alpha)    .... 1000.000
   Quad. conv. algorithm                .... NR
   White noise on init. David. guess    .... on
   Maximum white noise                  ....   0.010
   Pseudo random numbers                .... off
   Inactive MOs                         .... canonical
   Orbital update algorithm             .... Taylor
   Preconditioner                       .... Diag
   Full preconditioner red. dimension   ....   250
 SOSCF                 CNVSOSCF           .... on
   Start iteration     SOSCFMaxIt         ....   150
   Startup grad/error  SOSCFStart         ....  0.003300
   Hessian update      SOSCFHessUp        .... L-BFGS
   Autom. constraints  SOSCFAutoConstrain .... off
 Level Shifting         CNVShift        .... on
   Level shift para.    LevelShift      ....    0.2500
   Turn off err/grad.   ShiftErr        ....    0.0010
 Zerner damping         CNVZerner       .... off
 Static damping         CNVDamp         .... on
   Fraction old density DampFac         ....    0.7000
   Max. Damping (<1)    DampMax         ....    0.9800
   Min. Damping (>=0)   DampMin         ....    0.0000
   Turn off err/grad.   DampErr         ....    0.1000

SCF Procedure:
 Maximum # iterations   MaxIter         ....   125
 SCF integral mode      SCFMode         .... Direct
   Integral package                     .... SHARK and LIBINT hybrid scheme
 Reset frequency        DirectResetFreq ....    20
 Integral Threshold     Thresh          ....  2.500e-11 Eh
 Primitive CutOff       TCut            ....  2.500e-12 Eh

Convergence Tolerance:
 Convergence Check Mode ConvCheckMode   .... Total+1el-Energy
 Convergence forced     ConvForced      .... 0
 Energy Change          TolE            ....  1.000e-08 Eh
 1-El. energy change                    ....  1.000e-05 Eh
 Orbital Gradient       TolG            ....  1.000e-05
 Orbital Rotation angle TolX            ....  1.000e-05
 DIIS Error             TolErr          ....  5.000e-07

------------------------------
INITIAL GUESS: MODEL POTENTIAL
------------------------------
Loading Hartree-Fock densities                     ... done
Atomic calculation to generate a density for atom 0 (C  with ECP)
  Multiplicity assumed   :    1
  Atomic configuration   : 1s2 2s2 2p2 
  Number of open shells  : 1
  Command: /home1/yeseo1ee/orca6/orca_6_1_1/orca ts_atom6.inp "" > ts_atom6.out
Returned from the atomic calculation with res=0
Atomic calculation to generate a density for atom 3 (N  with ECP)
  Multiplicity assumed   :    4
  Atomic configuration   : 1s2 2s2 2p3 
  Number of open shells  : 1
  Command: /home1/yeseo1ee/orca6/orca_6_1_1/orca ts_atom7.inp "" > ts_atom7.out
Returned from the atomic calculation with res=0
Atomic calculation to generate a density for atom 4 (O  with ECP)
  Multiplicity assumed   :    3
  Atomic configuration   : 1s2 2s2 2p4 
  Number of open shells  : 1
  Command: /home1/yeseo1ee/orca6/orca_6_1_1/orca ts_atom8.inp "" > ts_atom8.out
Returned from the atomic calculation with res=0
Calculating cut-offs                               ... done
Initializing the effective Hamiltonian             ... done
Setting up the integral package (SHARK)            ... done
Starting the Coulomb interaction                   ... done (   0.0 sec)
Making the grid                                    ... done (   0.1 sec)
Mapping shells                                     ... done
Starting the XC term evaluation                    ... done (   0.0 sec)
  promolecular density results
     # of electrons  =     57.997672970
     EX              =    -32.016447150
     EC              =     -2.388575560
     EX+EC           =    -34.405022710
Transforming the Hamiltonian                       ... done (   0.0 sec)
Diagonalizing the Hamiltonian                      ... done (   0.0 sec)
Back transforming the eigenvectors                 ... done (   0.0 sec)
Now organizing SCF variables                       ... done
                      ------------------
                      INITIAL GUESS DONE (   1.3 sec)
                      ------------------
             **** ENERGY FILE WAS UPDATED (ts.en.tmp) ****
Finished Guess after   1.5 sec
Maximum memory used throughout the entire GUESS-calculation: 10.5 MB


           ************************************************************
           *        Program running with 8 parallel MPI-processes     *
           *              working on a common directory               *
           ************************************************************

-------------------------------------------------------------------------------------------
                                      ORCA LEAN-SCF
                              memory conserving SCF solver
-------------------------------------------------------------------------------------------

----------------------------------------D-I-I-S--------------------------------------------
Iteration    Energy (Eh)           Delta-E    RMSDP     MaxDP     DIISErr   Damp  Time(sec)
-------------------------------------------------------------------------------------------
               ***  Starting incremental Fock matrix formation  ***
    1    -64.0431994327911127     0.00e+00  1.06e-02  6.18e-02  1.57e-01  0.700   2.2
    2    -64.1207651957263920    -7.76e-02  7.95e-03  4.52e-02  9.56e-02  0.700   1.2
                               ***Turning on AO-DIIS***
    3    -64.1618281846140235    -4.11e-02  4.43e-03  2.09e-02  5.03e-02  0.700   1.1
    4    -64.1864729594722974    -2.46e-02  9.84e-03  4.57e-02  3.20e-02  0.000   1.1
    5    -64.2392658214713492    -5.28e-02  8.71e-04  7.65e-03  3.77e-03  0.000   1.2
                              *** Initializing SOSCF ***
---------------------------------------S-O-S-C-F--------------------------------------
Iteration    Energy (Eh)           Delta-E    RMSDP     MaxDP     MaxGrad    Time(sec)
--------------------------------------------------------------------------------------
    6    -64.2394765880488308    -2.11e-04  5.38e-04  5.79e-03  1.81e-03     1.1
               *** Restarting incremental Fock matrix formation ***
    7    -64.2395078680665961    -3.13e-05  4.08e-04  2.84e-03  1.11e-03     2.2
    8    -64.2395330356770842    -2.52e-05  3.68e-04  1.83e-03  6.77e-04     1.9
    9    -64.2395521122134596    -1.91e-05  8.23e-05  6.72e-04  1.97e-04     1.9
   10    -64.2395527733045526    -6.61e-07  4.36e-05  4.18e-04  1.25e-04     1.8
   11    -64.2395530504789178    -2.77e-07  1.23e-05  8.36e-05  1.84e-05     1.7
   12    -64.2395530656595213    -1.52e-08  5.31e-06  4.55e-05  1.23e-05     1.6
   13    -64.2395530792385898    -1.36e-08  1.56e-06  1.50e-05  4.53e-06     1.5
   14    -64.2395530769002505     2.34e-09  6.96e-07  5.18e-06  1.35e-06     1.3
                 **** Energy Check signals convergence ****

               *****************************************************
               *                     SUCCESS                       *
               *           SCF CONVERGED AFTER  14 CYCLES          *
               *****************************************************

Recomputing exchange energy using gridx3       ... done (    4.069 sec)
Old exchange energy                            :     -8.200114453 Eh
New exchange energy                            :     -8.200119140 Eh
Exchange energy change after final integration :     -0.000004687 Eh
Total energy after final integration           :    -64.239557766 Eh
             **** ENERGY FILE WAS UPDATED (ts.en.tmp) ****

----------------
TOTAL SCF ENERGY
----------------

Total Energy       :        -64.23955776605624 Eh           -1748.04724 eV

Components:
Nuclear Repulsion  :        181.19731727448408 Eh            4930.62967 eV
Electronic Energy  :       -245.43687035355083 Eh           -6678.67678 eV
One Electron Energy:       -456.94638949454531 Eh          -12434.14340 eV
Two Electron Energy:        211.50951914099448 Eh            5755.46662 eV

Virial components:
Potential Energy   :       -113.67636753769912 Eh           -3093.29122 eV
Kinetic Energy     :         49.43680977164288 Eh            1345.24398 eV
Virial Ratio       :          2.29942765447022

DFT components:
N(Alpha)           :       20.999923746025 electrons
N(Beta)            :       20.999923746025 electrons
N(Total)           :       41.999847492050 electrons
E(X)               :       -9.214014245932 Eh       
E(C)               :       -1.608915955508 Eh       
E(XC)              :      -10.822930201440 Eh       

---------------
SCF CONVERGENCE
---------------

  Last Energy change         ...   -2.3383e-09  Tolerance :   1.0000e-08
  Last MAX-Density change    ...    5.1811e-06  Tolerance :   1.0000e-07
  Last RMS-Density change    ...    6.9575e-07  Tolerance :   5.0000e-09
  Last DIIS Error            ...    1.8134e-03  Tolerance :   5.0000e-07
  Last Orbital Gradient      ...    1.3534e-06  Tolerance :   1.0000e-05
  Last Orbital Rotation      ...    2.6467e-06  Tolerance :   1.0000e-05


----------------
ORBITAL ENERGIES
----------------

  NO   OCC          E(Eh)            E(eV) 
   0   2.0000      -1.222315       -33.2609 
   1   2.0000      -1.048728       -28.5373 
   2   2.0000      -0.965942       -26.2846 
   3   2.0000      -0.951047       -25.8793 
   4   2.0000      -0.842723       -22.9317 
   5   2.0000      -0.798248       -21.7214 
   6   2.0000      -0.716883       -19.5074 
   7   2.0000      -0.678604       -18.4657 
   8   2.0000      -0.639663       -17.4061 
   9   2.0000      -0.613311       -16.6890 
  10   2.0000      -0.596475       -16.2309 
  11   2.0000      -0.563476       -15.3329 
  12   2.0000      -0.550420       -14.9777 
  13   2.0000      -0.523780       -14.2528 
  14   2.0000      -0.493445       -13.4273 
  15   2.0000      -0.486422       -13.2362 
  16   2.0000      -0.468183       -12.7399 
  17   2.0000      -0.459467       -12.5027 
  18   2.0000      -0.443881       -12.0786 
  19   2.0000      -0.426094       -11.5946 
  20   2.0000      -0.320465        -8.7203 
  21   0.0000      -0.003501        -0.0953 
  22   0.0000       0.073143         1.9903 
  23   0.0000       0.081965         2.2304 
  24   0.0000       0.087523         2.3816 
  25   0.0000       0.098917         2.6917 
  26   0.0000       0.114021         3.1027 
  27   0.0000       0.129359         3.5200 
  28   0.0000       0.142791         3.8856 
  29   0.0000       0.148747         4.0476 
  30   0.0000       0.163625         4.4524 
  31   0.0000       0.190475         5.1831 
*Only the first 10 virtual orbitals were printed.

                    ********************************
                    * MULLIKEN POPULATION ANALYSIS *
                    ********************************

-----------------------
MULLIKEN ATOMIC CHARGES
-----------------------
   0 C :   -0.077457
   1 C :    0.069065
   2 C :    0.112687
   3 N :   -0.174085
   4 O :   -0.313905
   5 C :    0.119006
   6 C :   -0.054646
   7 C :   -0.048553
   8 H :    0.060027
   9 H :    0.063459
  10 H :    0.036807
  11 H :    0.064892
  12 H :    0.034547
  13 H :    0.053938
  14 H :    0.054218
Sum of atomic charges:   -0.0000000

--------------------------------
MULLIKEN REDUCED ORBITAL CHARGES
--------------------------------
  0 C s       :     1.005956  s :     1.005956
      pz      :     1.047424  p :     2.994427
      px      :     0.959223
      py      :     0.987781
      dz2     :     0.011695  d :     0.077074
      dxz     :     0.008479
      dyz     :     0.022056
      dx2y2   :     0.021144
      dxy     :     0.013699

  1 C s       :     1.022436  s :     1.022436
      pz      :     0.765603  p :     2.716866
      px      :     0.990222
      py      :     0.961041
      dz2     :     0.045655  d :     0.191633
      dxz     :     0.029631
      dyz     :     0.053711
      dx2y2   :     0.025490
      dxy     :     0.037145

  2 C s       :     1.063769  s :     1.063769
      pz      :     0.917461  p :     2.721049
      px      :     0.899268
      py      :     0.904320
      dz2     :     0.024641  d :     0.102495
      dxz     :     0.014950
      dyz     :     0.018656
      dx2y2   :     0.023983
      dxy     :     0.020265

  3 N s       :     1.720563  s :     1.720563
      pz      :     1.134310  p :     3.396387
      px      :     1.115858
      py      :     1.146219
      dz2     :     0.015193  d :     0.057135
      dxz     :     0.008787
      dyz     :     0.009876
      dx2y2   :     0.013549
      dxy     :     0.009731

  4 O s       :     1.731566  s :     1.731566
      pz      :     1.465621  p :     4.540958
      px      :     1.329641
      py      :     1.745697
      dz2     :     0.011510  d :     0.041381
      dxz     :     0.007432
      dyz     :     0.007984
      dx2y2   :     0.006681
      dxy     :     0.007773

  5 C s       :     1.019114  s :     1.019114
      pz      :     0.999521  p :     2.724914
      px      :     0.677900
      py      :     1.047493
      dz2     :     0.022551  d :     0.136966
      dxz     :     0.027746
      dyz     :     0.030678
      dx2y2   :     0.035435
      dxy     :     0.020556

  6 C s       :     1.048495  s :     1.048495
      pz      :     0.929264  p :     2.915734
      px      :     0.993625
      py      :     0.992844
      dz2     :     0.021414  d :     0.090417
      dxz     :     0.014995
      dyz     :     0.027109
      dx2y2   :     0.014594
      dxy     :     0.012305

  7 C s       :     1.027694  s :     1.027694
      pz      :     1.021534  p :     2.935595
      px      :     0.898058
      py      :     1.016003
      dz2     :     0.025495  d :     0.085264
      dxz     :     0.009370
      dyz     :     0.015073
      dx2y2   :     0.024759
      dxy     :     0.010566

  8 H s       :     0.891053  s :     0.891053
      pz      :     0.022850  p :     0.048921
      px      :     0.015395
      py      :     0.010675

  9 H s       :     0.885003  s :     0.885003
      pz      :     0.018119  p :     0.051539
      px      :     0.015146
      py      :     0.018273

 10 H s       :     0.921181  s :     0.921181
      pz      :     0.012996  p :     0.042011
      px      :     0.007253
      py      :     0.021762

 11 H s       :     0.893115  s :     0.893115
      pz      :     0.016089  p :     0.041993
      px      :     0.008030
      py      :     0.017874

 12 H s       :     0.917579  s :     0.917579
      pz      :     0.012081  p :     0.047874
      px      :     0.014140
      py      :     0.021652

 13 H s       :     0.899968  s :     0.899968
      pz      :     0.025155  p :     0.046094
      px      :     0.011325
      py      :     0.009613

 14 H s       :     0.895104  s :     0.895104
      pz      :     0.012762  p :     0.050678
      px      :     0.014338
      py      :     0.023579



                     *******************************
                     * LOEWDIN POPULATION ANALYSIS *
                     *******************************

----------------------
LOEWDIN ATOMIC CHARGES
----------------------
   0 C :   -0.032524
   1 C :   -0.103377
   2 C :   -0.015529
   3 N :   -0.063659
   4 O :   -0.016265
   5 C :   -0.015646
   6 C :   -0.083165
   7 C :   -0.027773
   8 H :    0.056401
   9 H :    0.049631
  10 H :    0.051346
  11 H :    0.065874
  12 H :    0.039795
  13 H :    0.049122
  14 H :    0.045769

-------------------------------
LOEWDIN REDUCED ORBITAL CHARGES
-------------------------------
  0 C s       :     0.807604  s :     0.807604
      pz      :     1.056405  p :     2.977067
      px      :     0.888178
      py      :     1.032484
      dz2     :     0.039014  d :     0.247853
      dxz     :     0.023699
      dyz     :     0.078958
      dx2y2   :     0.065227
      dxy     :     0.040954

  1 C s       :     0.757580  s :     0.757580
      pz      :     0.863755  p :     2.795161
      px      :     0.917494
      py      :     1.013912
      dz2     :     0.128338  d :     0.550636
      dxz     :     0.081203
      dyz     :     0.164058
      dx2y2   :     0.073436
      dxy     :     0.103601

  2 C s       :     0.869849  s :     0.869849
      pz      :     0.950215  p :     2.823728
      px      :     0.907920
      py      :     0.965592
      dz2     :     0.065046  d :     0.321952
      dxz     :     0.052071
      dyz     :     0.073759
      dx2y2   :     0.065804
      dxy     :     0.065273

  3 N s       :     1.408890  s :     1.408890
      pz      :     1.192580  p :     3.551676
      px      :     1.135715
      py      :     1.223381
      dz2     :     0.023030  d :     0.103092
      dxz     :     0.017037
      dyz     :     0.022686
      dx2y2   :     0.020889
      dxy     :     0.019450

  4 O s       :     1.408456  s :     1.408456
      pz      :     1.493695  p :     4.501321
      px      :     1.325752
      py      :     1.681875
      dz2     :     0.027159  d :     0.106488
      dxz     :     0.023896
      dyz     :     0.017880
      dx2y2   :     0.020155
      dxy     :     0.017398

  5 C s       :     0.774445  s :     0.774445
      pz      :     1.025231  p :     2.831608
      px      :     0.738285
      py      :     1.068092
      dz2     :     0.065597  d :     0.409594
      dxz     :     0.076493
      dyz     :     0.100431
      dx2y2   :     0.105353
      dxy     :     0.061720

  6 C s       :     0.806060  s :     0.806060
      pz      :     0.990149  p :     2.975334
      px      :     0.934025
      py      :     1.051160
      dz2     :     0.077016  d :     0.301770
      dxz     :     0.044265
      dyz     :     0.094231
      dx2y2   :     0.049520
      dxy     :     0.036737

  7 C s       :     0.815024  s :     0.815024
      pz      :     1.073501  p :     2.940893
      px      :     0.808686
      py      :     1.058706
      dz2     :     0.087512  d :     0.271856
      dxz     :     0.023395
      dyz     :     0.052651
      dx2y2   :     0.079008
      dxy     :     0.029290

  8 H s       :     0.790185  s :     0.790185
      pz      :     0.063415  p :     0.153414
      px      :     0.051527
      py      :     0.038472

  9 H s       :     0.790410  s :     0.790410
      pz      :     0.055313  p :     0.159959
      px      :     0.051629
      py      :     0.053016

 10 H s       :     0.807538  s :     0.807538
      pz      :     0.045528  p :     0.141116
      px      :     0.029186
      py      :     0.066402

 11 H s       :     0.794877  s :     0.794877
      pz      :     0.051691  p :     0.139249
      px      :     0.031287
      py      :     0.056271

 12 H s       :     0.803036  s :     0.803036
      pz      :     0.044475  p :     0.157169
      px      :     0.047602
      py      :     0.065092

 13 H s       :     0.801213  s :     0.801213
      pz      :     0.070201  p :     0.149665
      px      :     0.041505
      py      :     0.037958

 14 H s       :     0.794659  s :     0.794659
      pz      :     0.045262  p :     0.159572
      px      :     0.048134
      py      :     0.066177



                      *****************************
                      * MAYER POPULATION ANALYSIS *
                      *****************************

  NA   - Mulliken gross atomic population
  ZA   - Total nuclear charge
  QA   - Mulliken gross atomic charge
  VA   - Mayer's total valence
  BVA  - Mayer's bonded valence
  FA   - Mayer's free valence

  ATOM       NA         ZA         QA         VA         BVA        FA
  0 C      4.0775     4.0000    -0.0775     3.9851     3.9851     0.0000
  1 C      3.9309     4.0000     0.0691     4.2335     4.2335    -0.0000
  2 C      3.8873     4.0000     0.1127     3.9776     3.9776    -0.0000
  3 N      5.1741     5.0000    -0.1741     2.9145     2.9145    -0.0000
  4 O      6.3139     6.0000    -0.3139     2.0600     2.0600    -0.0000
  5 C      3.8810     4.0000     0.1190     3.9557     3.9557     0.0000
  6 C      4.0546     4.0000    -0.0546     3.9422     3.9422    -0.0000
  7 C      4.0486     4.0000    -0.0486     3.9921     3.9921     0.0000
  8 H      0.9400     1.0000     0.0600     1.0450     1.0450     0.0000
  9 H      0.9365     1.0000     0.0635     1.0134     1.0134     0.0000
 10 H      0.9632     1.0000     0.0368     1.0287     1.0287     0.0000
 11 H      0.9351     1.0000     0.0649     1.0251     1.0251    -0.0000
 12 H      0.9655     1.0000     0.0345     1.0404     1.0404    -0.0000
 13 H      0.9461     1.0000     0.0539     1.0306     1.0306     0.0000
 14 H      0.9458     1.0000     0.0542     1.0206     1.0206    -0.0000

  Mayer bond orders larger than 0.100000
B(  0-C ,  1-C ) :   1.6473 B(  0-C ,  7-C ) :   0.2328 B(  0-C ,  8-H ) :   0.9846 
B(  0-C ,  9-H ) :   0.9889 B(  1-C ,  2-C ) :   1.1916 B(  1-C ,  4-O ) :   1.1648 
B(  2-C ,  3-N ) :   2.7528 B(  4-O ,  5-C ) :   0.7731 B(  5-C ,  6-C ) :   1.0967 
B(  5-C , 10-H ) :   0.9998 B(  5-C , 11-H ) :   1.0059 B(  6-C ,  7-C ) :   1.6778 
B(  6-C , 12-H ) :   0.9994 B(  7-C , 13-H ) :   0.9943 B(  7-C , 14-H ) :   0.9912 


-------
TIMINGS
-------

Total SCF time: 0 days 0 hours 0 min 27 sec 

Total time                  ....      27.543 sec
Sum of individual times     ....      26.294 sec  ( 95.5%)

SCF preparation             ....       0.268 sec  (  1.0%)
Fock matrix formation       ....      25.735 sec  ( 93.4%)
  Startup                   ....       0.023 sec  (  0.1% of F)
  Split-RI-J                ....       1.122 sec  (  4.4% of F)
  Chain of spheres X        ....      23.668 sec  ( 92.0% of F)
  XC integration            ....       1.951 sec  (  7.6% of F)
    Basis function eval.    ....       0.705 sec  ( 36.1% of XC)
    Density eval.           ....       0.284 sec  ( 14.5% of XC)
    XC-Functional eval.     ....       0.358 sec  ( 18.4% of XC)
    XC-Potential eval.      ....       0.360 sec  ( 18.4% of XC)
Diagonalization             ....       0.000 sec  (  0.0%)
Density matrix formation    ....       0.043 sec  (  0.2%)
Total Energy calculation    ....       0.024 sec  (  0.1%)
Population analysis         ....       0.012 sec  (  0.0%)
Orbital Transformation      ....       0.016 sec  (  0.1%)
Orbital Orthonormalization  ....       0.000 sec  (  0.0%)
DIIS solution               ....       0.098 sec  (  0.4%)
SOSCF solution              ....       0.098 sec  (  0.4%)
Finished LeanSCF after  27.6 sec

Maximum memory used throughout the entire LEANSCF-calculation: 17.0 MB


           ************************************************************
           *        Program running with 8 parallel MPI-processes     *
           *              working on a common directory               *
           ************************************************************

------------------------------------------------------------------------------
                         ORCA PROPERTY INTEGRAL CALCULATIONS
------------------------------------------------------------------------------

GBWName                                   ... ts.gbw
Number of atoms                           ...     15
Number of basis functions                 ...    139
Max core memory                           ...   4000 MB

Dipole integrals                          ... YES
Quadrupole integrals                      ...  NO
Linear momentum integrals                 ...  NO
Angular momentum integrals                ...  NO
Higher moments length integrals           ...  NO
Higher moments velocity integrals         ...  NO
Kinetic energy integrals                  ...  NO
GIAO right hand sides                     ...  NO
GIAO dipole derivative integrals          ...  NO
SOC integrals                             ...  NO
EPR diamagnetic integrals (GIAO)          ...  NO
EPR gauge integrals                       ...  NO
Field gradient integrals                  ...  NO (   0 nuclei)
Spin-dipole/Fermi contact integrals       ...  NO (   0 nuclei)
Contact density integrals                 ...  NO (   0 nuclei)
Nucleus-orbit integrals                   ...  NO (   0 nuclei)
Geometric perturbations                   ...  NO (  15 nuclei)

Choice of electric origin   ... Center of mass
Position of electric origin ... ( -0.8548,  0.7847,  0.0575) 
Choice of magnetic origin   ... GIAO
Position of magnetic origin ... (  0.0000,  0.0000,  0.0000) 

Calculating integrals                     ... Electric Dipole (Length)     done (  0.0 sec)

Property integrals calculated in   0.0 sec

Maximum memory used throughout the entire PROPINT-calculation: 10.7 MB


-------------------------------------------------------------------------------
                          DFT DISPERSION CORRECTION                            
                                                                               
                                DFTD4 V3.4.0                                   
-------------------------------------------------------------------------------
The wB97X-3c composite method is recognized
Using three-body term ABC
Active option DFTDOPT                   ...         5   

-------------------------   ----------------
Dispersion correction           -0.017241258
-------------------------   ----------------


-------------------------   --------------------
FINAL SINGLE POINT ENERGY       -64.256799024284
-------------------------   --------------------



           ************************************************************
           *        Program running with 8 parallel MPI-processes     *
           *              working on a common directory               *
           ************************************************************
------------------------------------------------------------------------------
                         ORCA SCF GRADIENT CALCULATION
------------------------------------------------------------------------------

Nuc. rep. gradient        (SHARK) ... done (  0.0 sec)
HCore & Overlap gradient  (SHARK) ... done (  0.0 sec)
ECP gradient              (SHARK) ... done (  0.2 sec)
Split-RIJ-J gradient      (SHARK) ... done (  0.4 sec)
COSX-gradient                     ... done (  8.5 sec)
XC gradient                       ... done (  0.5 sec)
Dispersion correction             ... done (  0.0 sec)

-------------------
DISPERSION GRADIENT
-------------------

   1   C   :    0.000050238   -0.000486046   -0.000208142
   2   C   :   -0.000436674    0.000035851    0.000056728
   3   C   :   -0.000479338    0.000335496   -0.000229456
   4   N   :   -0.000302853    0.000356434   -0.000285947
   5   O   :   -0.000139624    0.000182131    0.000451979
   6   C   :    0.000268888    0.000112907    0.000434263
   7   C   :    0.000606899    0.000112706    0.000035641
   8   C   :    0.000116903   -0.000354539   -0.000235436
   9   H   :   -0.000103822   -0.000131217   -0.000095152
  10   H   :   -0.000104828   -0.000171160   -0.000004592
  11   H   :    0.000056113    0.000004150    0.000179868
  12   H   :    0.000047893    0.000067165    0.000121297
  13   H   :    0.000164747    0.000101490   -0.000033990
  14   H   :    0.000133791   -0.000044524   -0.000126415
  15   H   :    0.000121669   -0.000120844   -0.000060645

Difference to translation invariance:
           :    0.0000000000    0.0000000000    0.0000000000

Difference to rotation invariance:
           :    0.0000000000    0.0000000000    0.0000000000

Norm of the Dispersion gradient    ...    0.0015882045
RMS gradient                       ...    0.0002367556
MAX gradient                       ...    0.0006068988

------------------
CARTESIAN GRADIENT
------------------

   1   C   :    0.039402292    0.003962517   -0.003766968
   2   C   :    0.000085721    0.000075582    0.000046917
   3   C   :   -0.000158498   -0.000025479    0.000098589
   4   N   :    0.000080295    0.000002288   -0.000054454
   5   O   :   -0.000035476   -0.000000789   -0.000094416
   6   C   :    0.000107429   -0.000042762    0.000044259
   7   C   :   -0.000008971    0.000060687    0.000010525
   8   C   :   -0.039412093   -0.004081470    0.003683344
   9   H   :    0.000003591   -0.000003200    0.000001913
  10   H   :   -0.000008785    0.000007719    0.000009312
  11   H   :   -0.000026220    0.000004942   -0.000009924
  12   H   :   -0.000024610    0.000006329    0.000003165
  13   H   :   -0.000004269   -0.000005638   -0.000006813
  14   H   :   -0.000001699    0.000022958    0.000002564
  15   H   :    0.000001292    0.000016315    0.000031987

Difference to translation invariance:
           :   -0.0000000000   -0.0000000000    0.0000000000

Difference to rotation invariance:
           :   -0.0001087859    0.0000711627    0.0000052940

Norm of the Cartesian gradient     ...    0.0562677869
RMS gradient                       ...    0.0083879064
MAX gradient                       ...    0.0394120927

-------
TIMINGS
-------

Total SCF gradient time     ....        9.650 sec

Densities                   ....       0.000 sec  (  0.0%)
One electron gradient       ....       0.045 sec  (  0.5%)
RI-J Coulomb gradient       ....       0.409 sec  (  4.2%)
COSX gradient               ....       8.480 sec  ( 87.9%)
XC gradient                 ....       0.508 sec  (  5.3%)

Maximum memory used throughout the entire SCFGRAD-calculation: 30.6 MB


           ************************************************************
           *        Program running with 8 parallel MPI-processes     *
           *              working on a common directory               *
           ************************************************************

------------------------------------------------------------------------------
                         ORCA PROPERTY INTEGRAL CALCULATIONS
------------------------------------------------------------------------------

GBWName                                   ... ts.gbw
Number of atoms                           ...     15
Number of basis functions                 ...    139
Max core memory                           ...   4000 MB

Dipole integrals                          ...  NO
Quadrupole integrals                      ...  NO
Linear momentum integrals                 ...  NO
Angular momentum integrals                ...  NO
Higher moments length integrals           ...  NO
Higher moments velocity integrals         ...  NO
Kinetic energy integrals                  ...  NO
GIAO right hand sides                     ...  NO
GIAO dipole derivative integrals          ...  NO
SOC integrals                             ...  NO
EPR diamagnetic integrals (GIAO)          ...  NO
EPR gauge integrals                       ...  NO
Field gradient integrals                  ...  NO (   0 nuclei)
Spin-dipole/Fermi contact integrals       ...  NO (   0 nuclei)
Contact density integrals                 ...  NO (   0 nuclei)
Nucleus-orbit integrals                   ...  NO (   0 nuclei)
Geometric perturbations                   ... YES (  15 nuclei)

Choice of electric origin   ... Center of mass
Position of electric origin ... ( -0.8548,  0.7847,  0.0575) 
Choice of magnetic origin   ... GIAO
Position of magnetic origin ... (  0.0000,  0.0000,  0.0000) 

Calculating integrals                     ... Geometrical perturbation right hand sides

-----------------------
GEOMETRIC PERTURBATIONS (15 nuclei)
-----------------------

MaxCore                            ...   4000 MB
Number of batches                  ...      1

BATCH   0: Atoms    0 -   14 ( 45 perturbations)
   => H(core) and overlap derivative integrals     ... done (     0.1 sec)
   => Making and storing internal U-coefficients   ... done (     0.0 sec)
   => RI-J derivative integrals                    ... done (     0.8 sec)
   => RI-J response operators                      ... done (     0.2 sec)
   => Chain of spheres derivative integrals        ... done (     4.4 sec)
   => Chain of spheres response operator           ... done (     3.1 sec)
   => ECP derivative integrals                     ... done (     2.9 sec)
   => XC derivative integrals                      ... done (     7.7 sec)
   => XC response operators                        ... done (     2.0 sec)
   => Completing and storing right hand sides      ... done (     0.0 sec)
   => Total time for right hand sides =  21.6 sec

  geometrical perturbations done ( 21.6 sec)

Property integrals calculated in  21.6 sec

Maximum memory used throughout the entire PROPINT-calculation: 95.6 MB


           ************************************************************
           *        Program running with 8 parallel MPI-processes     *
           *              working on a common directory               *
           ************************************************************
------------------------------------------------------------------------------
                            ORCA SCF RESPONSE CALCULATION
------------------------------------------------------------------------------

GBWName                                 ... ts.gbw
Number of atoms                         ...     15
Number of basis functions               ...    139
Max core memory                         ...   4000 MB

Electric field perturbation             ...  NO
Quadrupolar field perturbation          ...  NO
Magnetic field perturbation (no GIAO)   ...  NO
Magnetic field perturbation (with GIAO) ...  NO
Linear momentum (velocity) perturbation ...  NO
Spin-orbit coupling perturbation        ...  NO
Choice of electric origin               ... Center of mass
Position of electric origin             ...    -0.854820     0.784653     0.057462
Choice of magnetic origin               ... GIAO
Position of magnetic origin             ...     0.000000     0.000000     0.000000
Nuclear geometric perturbations         ... YES (  45 perturbations)
Nucleus-orbit perturbations             ...  NO (   0 perturbations)
Spin-dipole/Fermi contact perturbations ...  NO (   0 perturbations)

Total number of real perturbations      ...     45
Total number of imaginary perturbations ...      0
Total number of triplet perturbations   ...      0
Total number of SOC perturbations       ...      0

Using XC Grid                  ... (ts.grid_cpscf.tmp) 
Recalculating density on grid  ... (ts.grho_cpscf0.tmp) done
Calculating the xc-kernel      ... (ts.fxc_cpscf0.tmp) done

                                **********************
                                * REAL PERTURBATIONS *
                                **********************



-------------------
SHARK CP-SCF DRIVER
-------------------

Dimension of the orbital basis          ...    139
Dimension of the CPSCF-problem          ...   2478
Number of operators                     ...      1
Max. number of iterations               ...    128
Convergence Tolerance                   ... 1.0e-04
Number of perturbations                 ...     45
Perturbation type                       ... REAL

----------------------------
POPLE LINEAR EQUATION SOLVER
----------------------------

  ITERATION   0:   ||err||_max =   2.4075e-01 (   1.8 sec   0/ 45 done)
  ITERATION   1:   ||err||_max =   7.1048e-02 (   1.8 sec   0/ 45 done)
  ITERATION   2:   ||err||_max =   3.7850e-02 (   1.8 sec   0/ 45 done)
  ITERATION   3:   ||err||_max =   1.7490e-02 (   1.8 sec   0/ 45 done)
  ITERATION   4:   ||err||_max =   6.0166e-03 (   1.8 sec   0/ 45 done)
  ITERATION   5:   ||err||_max =   2.5176e-03 (   1.8 sec   0/ 45 done)
  ITERATION   6:   ||err||_max =   7.9828e-04 (   1.8 sec   4/ 45 done)
  ITERATION   7:   ||err||_max =   2.8826e-04 (   1.7 sec  20/ 45 done)
  ITERATION   8:   ||err||_max =   9.4794e-05 (   1.4 sec  45/ 45 done)

CP-SCF equations solved in  15.7 sec
Response densities calculated in   0.0 sec

Maximum memory used throughout the entire SCFRESP-calculation: 95.7 MB


           ************************************************************
           *        Program running with 8 parallel MPI-processes     *
           *              working on a common directory               *
           ************************************************************

------------------------------------------------------------------------------
                              ORCA PROPERTY CALCULATIONS
------------------------------------------------------------------------------

GBWName                                 ... ts.gbw
Number of atoms                         ...     15
Number of basis functions               ...    139
Max core memory                         ...   4000 MB

Electric properties:
Dipole moment                           ...  NO
Quadrupole moment                       ...  NO
Static polarizability (Dipole/Dipole)   ...  NO
Static polarizability (Dipole/Quad.)    ...  NO
Static polarizability (Quad./Quad.)     ...  NO
Static polarizability (Velocity)        ...  NO
Static hyperpolarizability              ...  NO

Atomic electric properties:
Dipole moment                           ...  NO
Quadrupole moment                       ...  NO
Static polarizability                   ...  NO

Choice of electric origin               ... Center of mass
Position of electric origin             ...    -0.854820     0.784653     0.057462

General magnetic properties:
Magnetizability                         ...  NO

EPR properties:
g-Tensor (aka g-matrix)                 ...  NO
Zero-Field splitting spin-orbit         ...  NO
Zero-field splitting spin-spin          ...  NO
Hyperfine couplings                     ...  NO (   0 nuclei)
Quadrupole couplings                    ...  NO (   0 nuclei)
Contact density                         ...  NO (   0 nuclei)

NMR properties:
Chemical shifts                         ...  NO (   0 nuclei)
Spin-rotation constants                 ...  NO (   0 nuclei)
Spin-spin couplings                     ...  NO (   0 nuclei,    0 pairs)

Choice of magnetic origin               ... GIAO
Position of magnetic origin             ...     0.000000     0.000000     0.000000

Properties with geometric perturbations:
SCF Hessian                             ... YES
IR spectrum                             ... YES
VCD spectrum                            ...  NO
X-ray spectroscopy properties:
SCF XES/XAS/RIXS spectra                ...  NO

SCF SOC stabilization energy            ...  NO
Diagonal Born-Oppenheimer correction    ...  NO

-----------
SCF HESSIAN
-----------

Occupied/Occupied contributions to the Hessian:
   => Occupied/Occupied contributions              ... done (  0.0 sec)
Perturbed density contributions to the Hessian:
   => Perturbed density contributions              ... done (  0.0 sec)
Explicit contributions to the Hessian:
   => Nuclear repulsion Hessian                    ... done (  0.0 sec)
   => HCore and overlap Hessian                    ... done (  1.1 sec)
   => ECP Hessian                                  ... done ( 15.3 sec)
   => RI-J Hessian                                 ... done (  1.4 sec)
   => COSX Hessian                                 ... done ( 87.5 sec)
   => XC-Hessian                                   ... done (  4.4 sec)
[...]
     41       0.152218   0.000221   0.662800  -0.260095  -0.028628  -0.079249
     42       0.008795   0.000633  -0.019139   0.004960  -0.002394   0.005010
     43      -0.062438   0.001587   0.558186  -0.176520   0.012469  -0.162869
     44      -0.329276   0.001316  -0.303370   0.097080  -0.007997   0.087756
                 42         43         44    
      0      -0.007466  -0.003662   0.023358
      1       0.010193   0.006362  -0.040572
      2      -0.025776  -0.013248   0.082611
      3      -0.000190   0.000077   0.000405
      4       0.000399   0.000247  -0.000397
      5      -0.000390  -0.000012   0.001050
      6       0.000081   0.000009  -0.000049
      7      -0.000156  -0.000074   0.000403
      8       0.000032  -0.000049  -0.000071
      9      -0.000012   0.000006  -0.000013
     10       0.000043   0.000020  -0.000042
     11      -0.000006   0.000012  -0.000036
     12       0.000141  -0.000144  -0.000076
     13      -0.000020   0.000456   0.000029
     14       0.000124   0.000006  -0.000277
     15       0.000169  -0.003651  -0.000754
     16       0.000753  -0.098957  -0.015815
     17      -0.000091  -0.003711  -0.000275
     18      -0.001084  -0.001076  -0.000363
     19      -0.007136  -0.005664  -0.002341
     20       0.004019   0.003802   0.001211
     21      -0.005755   0.000239  -0.000865
     22      -0.048890   0.002838  -0.015546
     23       0.082001  -0.003424   0.022479
     24       0.058428   0.028342  -0.175308
     25       0.032100   0.015610  -0.095790
     26       0.193970   0.093284  -0.573751
     27       0.027382   0.017856  -0.111222
     28      -0.153796  -0.092062   0.579397
     29       0.109316   0.065630  -0.413613
     30       0.001491   0.020226   0.003956
     31      -0.000954   0.548303   0.090246
     32      -0.001019  -0.351898  -0.058170
     33      -0.001129   0.026433   0.003574
     34      -0.007151   0.622018   0.095626
     35      -0.004873   0.383845   0.058799
     36       0.009689   0.008357   0.002512
     37       0.075599   0.061189   0.025570
     38      -0.041093  -0.038154  -0.014412
     39       0.094597  -0.004722   0.024581
     40      -0.017080   0.001149  -0.004367
     41      -0.653780   0.028221  -0.166775
     42      -0.022777   0.001793  -0.005659
     43       0.605265  -0.028782   0.194390
     44      -0.316901   0.017123  -0.102215


-----------
IR SPECTRUM
-----------

 Mode   freq       eps      Int      T**2         TX        TY        TZ
       cm**-1   L/(mol*cm) km/mol    a.u.
----------------------------------------------------------------------------
  7:     79.60   0.000641    3.24  0.002515  (-0.041815  0.011850 -0.025021)
  8:    101.75   0.000307    1.55  0.000942  ( 0.020618  0.002024 -0.022641)
  9:    210.02   0.001479    7.48  0.002198  (-0.015541 -0.043245 -0.009307)
 10:    291.16   0.005160   26.08  0.005531  ( 0.074057 -0.004809 -0.004831)
 11:    317.97   0.000744    3.76  0.000730  ( 0.026291 -0.002730 -0.005610)
 12:    374.55   0.002771   14.00  0.002309  (-0.036501 -0.003708  0.031031)
 13:    412.72   0.001420    7.18  0.001074  ( 0.029996 -0.003332  0.012773)
 14:    451.31   0.001075    5.43  0.000743  (-0.015830  0.018035  0.012935)
 15:    471.54   0.002885   14.58  0.001909  ( 0.037335 -0.022623  0.001843)
 16:    626.96   0.000505    2.55  0.000251  (-0.011645  0.002319  0.010504)
 17:    752.45   0.002616   13.22  0.001085  (-0.030401 -0.006175 -0.011070)
 18:    766.01   0.002657   13.43  0.001083  (-0.024928  0.008608 -0.019674)
 19:    802.82   0.001047    5.29  0.000407  (-0.005868  0.019199 -0.001997)
 20:    832.72   0.003283   16.59  0.001230  (-0.032112 -0.008308  0.011401)
 21:    878.47   0.003578   18.08  0.001271  ( 0.032421 -0.014827 -0.000228)
 22:    903.45   0.014441   72.98  0.004988  (-0.065412  0.016845  0.020631)
 23:    973.44   0.000212    1.07  0.000068  ( 0.006125 -0.005177 -0.001882)
 24:   1036.13   0.000489    2.47  0.000147  (-0.002559  0.007799 -0.008936)
 25:   1049.22   0.006131   30.98  0.001824  ( 0.041138  0.009657  0.006162)
 26:   1072.19   0.002423   12.24  0.000705  (-0.022983  0.004294  0.012592)
 27:   1083.68   0.000199    1.00  0.000057  (-0.000757 -0.006514 -0.003772)
 28:   1114.47   0.000350    1.77  0.000098  ( 0.007831  0.004032  0.004512)
 29:   1294.47   0.002258   11.41  0.000544  ( 0.014311  0.002583  0.018244)
 30:   1318.47   0.000798    4.03  0.000189  (-0.010056 -0.004851  0.008011)
 31:   1359.74   0.010857   54.86  0.002492  (-0.029526  0.021426 -0.034069)
 32:   1447.80   0.002344   11.84  0.000505  (-0.014128 -0.012356 -0.012364)
 33:   1494.72   0.007706   38.95  0.001609  (-0.002938 -0.006567  0.039461)
 34:   1563.15   0.000352    1.78  0.000070  (-0.007120 -0.002741  0.003468)
 35:   1580.33   0.011545   58.34  0.002280  (-0.036361  0.030296 -0.006302)
 36:   1685.19   0.018999   96.01  0.003518  (-0.003532  0.035465  0.047413)
 37:   2422.23   0.000630    3.18  0.000081  (-0.006560  0.006031 -0.001325)
 38:   3223.11   0.000416    2.10  0.000040  ( 0.001743 -0.004967 -0.003543)
 39:   3233.86   0.000484    2.44  0.000047  ( 0.006778 -0.000176  0.000836)
 40:   3235.89   0.000823    4.16  0.000079  (-0.003870  0.001501 -0.007885)
 41:   3246.65   0.000331    1.67  0.000032  (-0.004474 -0.003428 -0.000276)
 42:   3327.40   0.000020    0.10  0.000002  ( 0.001195  0.000208  0.000648)
 43:   3343.32   0.000063    0.32  0.000006  ( 0.001695  0.001080  0.001350)
 44:   3347.62   0.000130    0.65  0.000012  (-0.001960  0.001812 -0.002225)

* The epsilon (eps) is given for a Dirac delta lineshape.
** The dipole moment derivative (T) already includes vibrational overlap.

The first frequency considered to be a vibration is 7
The total number of vibrations considered is 38


--------------------------
THERMOCHEMISTRY AT 298.15K
--------------------------

Temperature         ...   298.15 K
Pressure            ...     1.00 atm
Total Mass          ...   109.13 AMU
Quasi RRHO          ...     True
Cut-Off Frequency   ...     1.00 cm^-1

Throughout the following assumptions are being made:
  (1) The electronic state is orbitally nondegenerate
  (2) There are no thermally accessible electronically excited states
  (3) Hindered rotations indicated by low frequency modes are not
      treated as such but are treated as vibrations and this may
      cause some error
  (4) All equations used are the standard statistical mechanics
      equations for an ideal gas
  (5) All vibrations are strictly harmonic

freq.      79.60  E(vib)   ...       0.49 
freq.     101.75  E(vib)   ...       0.46 
freq.     210.02  E(vib)   ...       0.34 
freq.     291.16  E(vib)   ...       0.27 
freq.     317.97  E(vib)   ...       0.25 
freq.     374.55  E(vib)   ...       0.21 
freq.     412.72  E(vib)   ...       0.19 
freq.     451.31  E(vib)   ...       0.16 
freq.     471.54  E(vib)   ...       0.15 
freq.     626.96  E(vib)   ...       0.09 
freq.     752.45  E(vib)   ...       0.06 
freq.     766.01  E(vib)   ...       0.06 
freq.     802.82  E(vib)   ...       0.05 
freq.     832.72  E(vib)   ...       0.04 
freq.     878.47  E(vib)   ...       0.04 
freq.     903.45  E(vib)   ...       0.03 
freq.     973.44  E(vib)   ...       0.03 
freq.    1036.13  E(vib)   ...       0.02 
freq.    1049.22  E(vib)   ...       0.02 
freq.    1072.19  E(vib)   ...       0.02 
freq.    1083.68  E(vib)   ...       0.02 
freq.    1114.47  E(vib)   ...       0.01 
freq.    1294.47  E(vib)   ...       0.01 
freq.    1318.47  E(vib)   ...       0.01 
freq.    1359.74  E(vib)   ...       0.01 
freq.    1447.80  E(vib)   ...       0.00 
freq.    1494.72  E(vib)   ...       0.00 
freq.    1563.15  E(vib)   ...       0.00 
freq.    1580.33  E(vib)   ...       0.00 
freq.    1685.19  E(vib)   ...       0.00 
freq.    2422.23  E(vib)   ...       0.00 
freq.    3223.11  E(vib)   ...       0.00 
freq.    3233.86  E(vib)   ...       0.00 
freq.    3235.89  E(vib)   ...       0.00 
freq.    3246.65  E(vib)   ...       0.00 
freq.    3327.40  E(vib)   ...       0.00 
freq.    3343.32  E(vib)   ...       0.00 
freq.    3347.62  E(vib)   ...       0.00 

------------
INNER ENERGY
------------

The inner energy is: U= E(el) + E(ZPE) + E(vib) + E(rot) + E(trans)
    E(el)   - is the total energy from the electronic structure calculation
              = E(kin-el) + E(nuc-el) + E(el-el) + E(nuc-nuc)
    E(ZPE)  - the the zero temperature vibrational energy from the frequency calculation
    E(vib)  - the the finite temperature correction to E(ZPE) due to population
              of excited vibrational states
    E(rot)  - is the rotational thermal energy
    E(trans)- is the translational thermal energy

Summary of contributions to the inner energy U:
Electronic energy                ...    -64.25859301 Eh
Zero point energy                ...      0.11784177 Eh      73.95 kcal/mol
Thermal vibrational correction   ...      0.00484084 Eh       3.04 kcal/mol
Thermal rotational correction    ...      0.00141627 Eh       0.89 kcal/mol
Thermal translational correction ...      0.00141627 Eh       0.89 kcal/mol
-----------------------------------------------------------------------
Total thermal energy                    -64.13307786 Eh


Summary of corrections to the electronic energy:
(perhaps to be used in another calculation)
Total thermal correction                  0.00767338 Eh       4.82 kcal/mol
Non-thermal (ZPE) correction              0.11784177 Eh      73.95 kcal/mol
-----------------------------------------------------------------------
Total correction                          0.12551515 Eh      78.76 kcal/mol


--------
ENTHALPY
--------

The enthalpy is H = U + kB*T
                kB is Boltzmann's constant
Total thermal energy              ...    -64.13307786 Eh 
Thermal Enthalpy correction       ...      0.00094421 Eh       0.59 kcal/mol
-----------------------------------------------------------------------
Total Enthalpy                    ...    -64.13213365 Eh


Note: Only C1 symmetry has been detected, increase convergence thresholds 
      if your molecule has a higher symmetry. Symmetry factor of 1.0 is   
      used for the rotational entropy correction. 
 

Note: Rotational entropy computed according to Herzberg 
Infrared and Raman Spectra, Chapter V,1, Van Nostrand Reinhold, 1945 
Point Group:  C1, Symmetry Number:   1  
Rotational constants in cm-1:     0.106679     0.053339     0.050249 

Vibrational entropy computed according to the QRRHO of S. Grimme
Chem.Eur.J. 2012 18 9955 using a reference frequency of 100.0 cm-1


-------
ENTROPY
-------

The entropy contributions are T*S = T*(S(el)+S(vib)+S(rot)+S(trans))
     S(el)   - electronic entropy
     S(vib)  - vibrational entropy
     S(rot)  - rotational entropy
     S(trans)- translational entropy
The entropies will be listed as multiplied by the temperature to get
units of energy

Electronic entropy                ...      0.00000000 Eh      0.00 kcal/mol
Vibrational entropy               ...      0.00805829 Eh      5.06 kcal/mol
Rotational entropy                ...      0.01336297 Eh      8.39 kcal/mol
Translational entropy             ...      0.01899496 Eh     11.92 kcal/mol
-----------------------------------------------------------------------
Final entropy term                ...      0.04041621 Eh     25.36 kcal/mol

In case the symmetry of your molecule has not been determined correctly
or in case you have a reason to use a different symmetry number we print 
out the resulting rotational entropy values for sn=1,12:

 non-linear molecules -----------------------------------
|  sn= 1 | S(rot)=       0.01336297 Eh      8.39 kcal/mol|
|  sn= 2 | S(rot)=       0.01270851 Eh      7.97 kcal/mol|
|  sn= 3 | S(rot)=       0.01232568 Eh      7.73 kcal/mol|
|  sn= 4 | S(rot)=       0.01205406 Eh      7.56 kcal/mol|
|  sn= 5 | S(rot)=       0.01184337 Eh      7.43 kcal/mol|
|  sn= 6 | S(rot)=       0.01167122 Eh      7.32 kcal/mol|
|  sn= 7 | S(rot)=       0.01152568 Eh      7.23 kcal/mol|
|  sn= 8 | S(rot)=       0.01139960 Eh      7.15 kcal/mol|
|  sn= 9 | S(rot)=       0.01128839 Eh      7.08 kcal/mol|
|  sn=10 | S(rot)=       0.01118891 Eh      7.02 kcal/mol|
|  sn=11 | S(rot)=       0.01109892 Eh      6.96 kcal/mol|
|  sn=12 | S(rot)=       0.01101677 Eh      6.91 kcal/mol|
 linear molecules ---------------------------------------
|  Dinfh | S(rot)=       0.00814963 Eh      5.11 kcal/mol|
|  Cinfv | S(rot)=       0.00880408 Eh      5.52 kcal/mol|
 --------------------------------------------------------


-------------------
GIBBS FREE ENERGY
-------------------

The Gibbs free energy is G = H - T*S

Total enthalpy                    ...    -64.13213365 Eh 
Total entropy correction          ...     -0.04041621 Eh    -25.36 kcal/mol
-----------------------------------------------------------------------
Final Gibbs free energy         ...    -64.17254986 Eh

For completeness - the Gibbs free energy minus the electronic energy
G-E(el)                           ...      0.08604315 Eh     53.99 kcal/mol


Maximum memory used throughout the entire PROP-calculation: 60.0 MB

--------------------------------
SUGGESTED CITATIONS FOR THIS RUN
--------------------------------

Below you find a list of papers that are relevant to this ORCA run
We neither can nor want to force you to cite these papers, but we appreciate if you do
You receive ORCA, which is the product of decades of hard work by many enthusiastic individuals, for free
The only thing we kindly ask in return is that you cite our papers,
We deeply appreciate it, if you show your appreciation for ORCA by not just citing the generic ORCA reference.

Please note that relegating all ORCA citations to the supporting information does *not* help us.
SI sections are not indexed - citations you put there will not count into any citation statistics
But we need these citations in order to attract the funding resources that allow us to do what we are doing

Therefore, if you are a happy ORCA user, please consider citing a few of the papers listed below in the main body of your paper

In addition to the list printed below, the program has created the file ts.bibtex that contains the list in bibtex format
You can import this file easily into all common literature databanks and citation aid programs

It goes without saying that in many instances, there are alternative algorithms to achieve similar
results as the ones you have gotten from ORCA. It is, of course, also the case that in some instances
ORCA just re-implements algorithms worked out by others. We are fully aware of that and we are also
fully appreciative of our colleagues work. Hence this citation list should not be read as indicating
that the listed papers, which are focused on our own work, are the only ones worth citing. It simply
meant to make it easier for users to cite ORCA specific papers. It is not a substitute for doing your
own literature research and citing the relevant literature in a scientifically appropriate manner.

List of essential papers. We consider these as the minimum necessary citations

  1. Mueller, M.; Hansen, A.; Grimme, S.
     wB97X-3c: A composite range-separated hybrid DFT method with a molecule-optimized polarized valence double-zeta basis set
     J. Chem. Phys. 2023 158 , 014103
     doi.org/10.1063/5.0133026
  2. Neese, F.
     Software update: the ORCA program system, version 6.0
     WIRES Comput. Molec. Sci. 2025 15(1), e70019
     doi.org/10.1002/wcms.70019

List of papers to cite with high priority. The work reported in these papers was absolutely
necessary for this run to complete.
Our perspective: the developers of density functionals and basis sets usually get cited in chemistry papers
Good! But without the algorithms to do something with them, the functionals or basis sets would not do anything.
Hence, in our opinion, the algorithm design and method developments papers are equally worthy of getting cited

  1. Neese, F.
     An improvement of the resolution of the identity approximation for the formation of the Coulomb matrix
     J. Comp. Chem. 2003 24(14), 1740-1747
     doi.org/10.1002/jcc.10318
  2. Neese, F.; Wennmohs, F.; Hansen, A.; Becker, U.
     Efficient, approximate and parallel Hartree-Fock and hybrid DFT calculations. A 'chain-of-spheres' algorithm for the Hartree-Fock exchange
     Chem. Phys. 2009 356(1-3), 98-109
     doi.org/10.1016/j.chemphys.2008.10.036
  3. Bykov, D.; Petrenko, T.; Izsak, R.; Kossmann, S.; Becker, U.; Valeev, E.; Neese, F.
     Efficient implementation of the analytic second derivatives of Hartree-Fock and hybrid DFT energies: a detailed analysis of different approximations
     Molec. Phys. 2015 113 , 1961-1977
     doi.org/10.1080/00268976.2015.1025114
  4. Caldeweyher, E.; Bannwarth, C.; Grimme, S.
     Extension of the D3 dispersion coefficient model
     J. Chem. Phys. 2017 147 , 034112
     doi.org/10.1063/1.4993215
  5. Caldeweyher, E.; Ehlert, S.; Hansen, A.; Neugebauer, H.; Spicher, S.; Bannwarth, C.; Grimme, S.
     A generally applicable atomic-charge dependent London dispersion correction
     J. Chem. Phys. 2019 150 , 154122
     doi.org/10.1063/1.5090222
  6. Helmich-Paris, B.; de Souza, B.; Neese, F.; Izsák, R.
     An improved chain of spheres for exchange algorithm
     J. Chem. Phys. 2021 155(10), 104109
     doi.org/10.1063/5.0058766
  7. Neese, F.
     The SHARK Integral Generation and Digestion System
     J. Comp. Chem. 2022 44(3), 381
     doi.org/10.1002/jcc.26942

List of suggested additional citations. These are papers that are important in the 'surrounding' of 
of this run, or papers that preceded the highly important papers. If you like your results we are grateful for a citation.

  1. Izsak, R.; Neese, F.
     An overlap fitted chain of spheres exchange method
     J. Chem. Phys. 2011 135 , 144105
     doi.org/10.1063/1.3646921
  2. Izsak, R.; Hansen, A.; Neese, F.
     The resolution of identity and chain of spheres approximations for the LPNO-CCSD singles Fock term
     Molec. Phys. 2012 110 , 2413-2417
     doi.org/10.1080/00268976.2012.687466
  3. Neese, F.
     The ORCA program system
     WIRES Comput. Molec. Sci. 2012 2(1), 73-78
     doi.org/10.1002/wcms.81
  4. Izsak, R.; Neese, F.; Klopper, W.
     Robust fitting techniques in the chain of spheres approximation to the Fock exchange: The role of the complementary space
     J. Chem. Phys. 2013 139 , 
     doi.org/10.1063/1.4819264
  5. Neese, F.
     Software update: the ORCA program system, version 4.0
     WIRES Comput. Molec. Sci. 2018 8(1), 1-6
     doi.org/10.1002/wcms.1327
  6. Neese, F.; Wennmohs, F.; Becker, U.; Riplinger, C.
     The ORCA quantum chemistry program package
     J. Chem. Phys. 2020 152(22), 224108
     doi.org/10.1063/5.0004608
  7. Neese, F.
     Software update: The ORCA program system—Version 5.0
     WIRES Comput. Molec. Sci. 2022 12(1), e1606
     doi.org/10.1002/wcms.1606

List of optional additional citations

  1. Neese, F.
     Approximate second-order SCF convergence for spin unrestricted wavefunctions
     Chem. Phys. Lett. 2000 325(1-3), 93-98
     doi.org/10.1016/s0009-2614(00)00662-x

Timings for individual modules:

Sum of individual times          ...      663.797 sec (=  11.063 min)
Startup calculation              ...       17.579 sec (=   0.293 min)   2.6 %
SCF iterations                   ...      347.949 sec (=   5.799 min)  52.4 %
Property integrals               ...       26.966 sec (=   0.449 min)   4.1 %
SCF Response                     ...       17.251 sec (=   0.288 min)   2.6 %
Property calculations            ...      106.367 sec (=   1.773 min)  16.0 %
SCF Gradient evaluation          ...      147.544 sec (=   2.459 min)  22.2 %
Geometry relaxation              ...        0.140 sec (=   0.002 min)   0.0 %
                             ****ORCA TERMINATED NORMALLY****
TOTAL RUN TIME: 0 days 0 hours 18 minutes 34 seconds 97 msec
