15
Coordinates from ORCA-job ts_scan Relaxed Surface Scan Step 1 E -64.308095875519
  C      -1.244477     -0.830189     -0.373165
  C      -1.325153      0.434079      0.023053
  C      -2.281088      1.326267     -0.582626
  N      -3.054626      2.020215     -1.070610
  O      -0.578779      1.060539      0.950704
  C       0.615466      0.397194      1.356641
  C       1.531098      0.267885      0.189208
  C       1.754606     -0.874294     -0.432770
  H      -1.925576     -1.172935     -1.136691
  H      -0.589232     -1.548118      0.075771
  H       0.375313     -0.571210      1.798479
  H       1.030653      1.033300      2.133443
  H       1.925637      1.194628     -0.211127
  H       2.379381     -0.917663     -1.315557
  H       1.386779     -1.819698     -0.059444
>
15
Coordinates from ORCA-job ts_scan Relaxed Surface Scan Step 2 E -64.305308684068
  C      -1.216322     -0.852947     -0.346382
  C      -1.307155      0.413890      0.037717
  C      -2.221027      1.312347     -0.620406
  N      -2.961193      2.011911     -1.150348
  O      -0.588242      1.036680      0.989429
  C       0.624002      0.394309      1.386275
  C       1.516041      0.281805      0.200272
  C       1.680890     -0.841762     -0.473015
  H      -1.863400     -1.198033     -1.137980
  H      -0.606016     -1.576107      0.154334
  H       0.406393     -0.576824      1.833444
  H       1.035117      1.041108      2.155936
  H       1.914278      1.212749     -0.185966
  H       2.268847     -0.865308     -1.381745
  H       1.317789     -1.793818     -0.116257
>
15
Coordinates from ORCA-job ts_scan Relaxed Surface Scan Step 3 E -64.301859817807
  C      -1.185388     -0.872146     -0.326849
  C      -1.290857      0.395182      0.051114
  C      -2.163688      1.299795     -0.651736
  N      -2.871406      2.005264     -1.217211
  O      -0.598758      1.011923      1.026495
  C       0.632097      0.391368      1.412856
  C       1.499239      0.293262      0.208745
  C       1.608306     -0.812895     -0.505071
  H      -1.796650     -1.220088     -1.145384
  H      -0.619236     -1.597717      0.219895
  H       0.436546     -0.581496      1.866009
  H       1.040243      1.049217      2.174271
  H       1.894350      1.227751     -0.171865
  H       2.157062     -0.817723     -1.438626
  H       1.258141     -1.771697     -0.157334
>
15
Coordinates from ORCA-job ts_scan Relaxed Surface Scan Step 4 E -64.297651369709
  C      -1.151755     -0.887289     -0.315374
  C      -1.276554      0.378185      0.062992
  C      -2.110399      1.289520     -0.676441
  N      -2.787454      2.001363     -1.270989
  O      -0.609592      0.986285      1.060969
  C       0.640368      0.388624      1.436574
  C       1.481605      0.302579      0.215100
  C       1.538035     -0.789170     -0.528441
  H      -1.727153     -1.236675     -1.159098
  H      -0.628498     -1.615006      0.269830
  H       0.466820     -0.585077      1.896497
  H       1.044946      1.058694      2.188801
  H       1.864655      1.240980     -0.168026
  H       2.043404     -0.777976     -1.486475
  H       1.211573     -1.755038     -0.180610
>
15
Coordinates from ORCA-job ts_scan Relaxed Surface Scan Step 5 E -64.292614112241
  C      -1.116173     -0.898845     -0.311872
  C      -1.264906      0.362295      0.073655
  C      -2.060910      1.282064     -0.695311
  N      -2.708382      2.001651     -1.313342
  O      -0.621439      0.958358      1.093780
  C       0.649569      0.386245      1.457705
  C       1.463613      0.310731      0.219545
  C       1.470325     -0.770788     -0.543448
  H      -1.655328     -1.247514     -1.179665
  H      -0.635669     -1.629597      0.305470
  H       0.499367     -0.587545      1.925223
  H       1.049187      1.070149      2.199693
  H       1.824537      1.253687     -0.173604
  H       1.927054     -0.747134     -1.525705
  H       1.179155     -1.743757     -0.186816
>
15
Coordinates from ORCA-job ts_scan Relaxed Surface Scan Step 6 E -64.286711744933
  C      -1.079453     -0.908132     -0.314392
  C      -1.255010      0.347047      0.082813
  C      -2.014458      1.276707     -0.709776
  N      -2.633575      2.004987     -1.346757
  O      -0.632976      0.928522      1.123346
  C       0.660375      0.384496      1.476373
  C       1.447250      0.318510      0.223185
  C       1.404612     -0.756328     -0.551837
  H      -1.584145     -1.253318     -1.204235
  H      -0.643244     -1.644276      0.329282
  H       0.533864     -0.588739      1.951589
  H       1.051908      1.083740      2.207891
  H       1.778079      1.266454     -0.184172
  H       1.807789     -0.723810     -1.557283
  H       1.158986     -1.735861     -0.180720
>
15
Coordinates from ORCA-job ts_scan Relaxed Surface Scan Step 7 E -64.279954710877
  C      -1.042013     -0.915715     -0.321792
  C      -1.246900      0.332368      0.090541
  C      -1.971283      1.272976     -0.720751
  N      -2.563353      2.010559     -1.372981
  O      -0.643783      0.897311      1.148829
  C       0.673238      0.383485      1.492698
  C       1.433589      0.325970      0.226688
  C       1.340560     -0.745154     -0.554719
  H      -1.515598     -1.254913     -1.231074
  H      -0.652385     -1.659762      0.343013
  H       0.569752     -0.588308      1.975811
  H       1.052917      1.099532      2.213671
  H       1.728463      1.278749     -0.196801
  H       1.687016     -0.706858     -1.581082
  H       1.149781     -1.730239     -0.166739
>
15
Coordinates from ORCA-job ts_scan Relaxed Surface Scan Step 8 E -64.272503251932
  C      -1.004170     -0.922255     -0.331482
  C      -1.240956      0.318465      0.097467
  C      -1.931337      1.270132     -0.729556
  N      -2.497326      2.016923     -1.394808
  O      -0.654354      0.865639      1.170089
  C       0.688210      0.382856      1.506495
  C       1.422965      0.333036      0.230360
  C       1.277400     -0.735965     -0.554486
  H      -1.451047     -1.254597     -1.256947
  H      -0.664412     -1.675488      0.351030
  H       0.605362     -0.586514      1.997602
  H       1.052155      1.116665      2.217093
  H       1.680062      1.290049     -0.208153
  H       1.568802     -0.693476     -1.597743
  H       1.148647     -1.725469     -0.151652
>
15
Coordinates from ORCA-job ts_scan Relaxed Surface Scan Step 9 E -64.264615182207
  C      -0.965658     -0.927714     -0.341587
  C      -1.237731      0.306144      0.104121
  C      -1.896205      1.267245     -0.737236
  N      -2.437944      2.021623     -1.414541
  O      -0.665610      0.835728      1.186834
  C       0.705353      0.382518      1.517904
  C       1.415574      0.339087      0.234962
  C       1.215078     -0.728252     -0.552787
  H      -1.391913     -1.253387     -1.279418
  H      -0.680511     -1.691056      0.355985
  H       0.638032     -0.583305      2.017148
  H       1.050390      1.134267      2.218421
  H       1.637962      1.299470     -0.215308
  H       1.459681     -0.680879     -1.607823
  H       1.153504     -1.721490     -0.141366
>
15
Coordinates from ORCA-job ts_scan Relaxed Surface Scan Step 10 E -64.256800201096
  C      -0.927287     -0.933386     -0.352535
  C      -1.238552      0.294583      0.111534
  C      -1.865323      1.264308     -0.744209
  N      -2.383428      2.024799     -1.433643
  O      -0.683255      0.803496      1.202204
  C       0.728014      0.383110      1.527729
  C       1.410669      0.344876      0.241287
  C       1.152739     -0.722151     -0.549694
  H      -1.338690     -1.250717     -1.300296
  H      -0.705971     -1.709103      0.356838
  H       0.671409     -0.577232      2.036867
  H       1.047162      1.156239      2.216155
  H       1.603946      1.307398     -0.218095
  H       1.363291     -0.668067     -1.611752
  H       1.165275     -1.718151     -0.137082
>
15
Coordinates from ORCA-job ts_scan Relaxed Surface Scan Step 11 E -64.297161843914
  C      -0.966817     -0.949888     -0.858604
  C      -1.696652     -0.175850      0.147516
  C      -1.762317      1.282506     -0.104444
  N      -1.808333      2.406081     -0.335320
  O      -2.186856     -0.619051      1.151375
  C       1.481138      0.927535      1.313187
  C       1.365878      0.390295      0.106751
  C       0.891889     -0.979280     -0.120805
  H      -0.895008     -0.483691     -1.834068
  H      -1.259507     -1.992835     -0.874640
  H       1.231499      0.367200      2.205978
  H       1.826098      1.943679      1.445065
  H       1.616292      0.978573     -0.768761
  H       1.404199     -1.523820     -0.906225
  H       0.758496     -1.571455      0.778303
>
15
Coordinates from ORCA-job ts_scan Relaxed Surface Scan Step 12 E -64.309431509119
  C      -0.908958     -0.931432     -0.846970
  C      -1.701767     -0.181894      0.141178
  C      -1.796750      1.277182     -0.093662
  N      -1.865101      2.402089     -0.311858
  O      -2.223321     -0.653910      1.113789
  C       1.511661      0.926560      1.298194
  C       1.352832      0.383126      0.100834
  C       0.841863     -0.983072     -0.110791
  H      -0.830258     -0.444806     -1.812952
  H      -1.225234     -1.966746     -0.906656
  H       1.276130      0.378348      2.202378
  H       1.880121      1.936652      1.412357
  H       1.592131      0.961345     -0.784966
  H       1.384346     -1.551166     -0.860176
  H       0.712306     -1.552276      0.804609
