
 *******************************************************************************
 *                                                                             *
 *  --------------------------------                                           *
 *   Amsterdam Modeling Suite (AMS)              2026.103                      *
 *  --------------------------------                                           *
 *                                               r260501 2026-05-01 873454b5   *
 *                                                                             *
 *                                                                             *
 *                              =================                              *
 *                              |               |                              *
 *                              |     A M S     |                              *
 *                              |               |                              *
 *                              =================                              *
 *                                                                             *
 *                                                                             *
 *   Online information and documentation:  https://www.scm.com/support/       *
 *   E-mail:  support@scm.com   info@scm.com                                   *
 *                                                                             *
 *   Scientific publications using AMS results must be properly referenced     *
 *   See the User Manuals (or the web site) for recommended citations          *
 *   The terms and conditions of the End User License Agreement apply to       *
 *   the use of AMS, https://www.scm.com/license-terms/                        *
 *                                                                             *
 **********************  x86_64_linux_intel / intelmpi  ************************
 
 Licensed to: Jong-June Jeon / University of Seoul 2026-06-02 13:44:15
 SCM User ID: u30731
  
 AMS 2026.103  RunTime: Jun04-2026 05:40:41  ShM Nodes: 1  Procs: 1

 AMS jobname: c2_fragB_ts
 AMS jobid  : 2078035772

 Start   directory: /gpfs/home1/yeseo1ee/projects/eda-asm-prediction/ADF_800/adf_outputs/batch_007/qmrxn20_sn2_C_E_D_C_C_C/
 Results directory: /gpfs/home1/yeseo1ee/projects/eda-asm-prediction/ADF_800/adf_outputs/batch_007/qmrxn20_sn2_C_E_D_C_C_C/c2_fragB_ts.results/
 Scratch directory: /tmp/amstmp_c2_fragB_ts_kid0.2078035772/

 RNG seed: 164371431 -1664520287 -507377796 1161593558 1888900679 -732681371 1724537606 -728495917



                      ************************************************************************
                      *  ADF 2026.103  RunTime: Jun04-2026 05:40:42  ShM Nodes: 1  Procs: 1  *
                      ************************************************************************
  

       ****************************
       * SINGLE POINT CALCULATION *
       ****************************

--------
Geometry
--------
Formula: C5H6ClN3
Atoms
  Index Symbol   x (angstrom)   y (angstrom)   z (angstrom)
      1      C     0.69524433    -0.06767356     0.01254393
      2      H     1.61443638     1.84283939    -0.16624700
      3     Cl     3.07152111    -0.04687814     0.06703539
      4      C     0.59616679     1.47232562    -0.03485122
      5      C     0.78806212    -0.78467423    -1.23853942
      6      N     0.88020742    -1.38612774    -2.24917203
      7      N     0.68474461    -0.73604863     1.28172808
      8      H     1.50005206    -1.32883020     1.34739921
      9      H    -0.16411810    -1.27680122     1.36796987
     10      C     0.06959976     2.06868722     1.26880150
     11      H    -0.95360190     1.74580099     1.45277605
     12      H     0.70414307     1.73670326     2.08954678
     13      H     0.10246677     3.15932081     1.19983552
     14      C    -0.13458313     1.97267869    -1.20052123
     15      N    -0.61729437     2.50325381    -2.13156753

Total System Charge              0.00000


----------------
ADF Engine Input
----------------
 
   Basis
     Type TZ2P
     Core None
   End
   XC
     GGA BLYP
     Dispersion GRIMME3 BJDAMP
   End
   Symmetry NOSYM
   NumericalQuality Normal
   Unrestricted No
   SCF
     Iterations 200
     Converge 1.0e-6
   End
   Save TAPE21
 

 Title: *** (NO TITLE) ***

 *** adf ***



 ===========================
 A T T A C H E D   F I L E S
 ===========================
  



 ===============================
 M O D E L   P A R A M E T E R S
 ===============================
  
 DENSITY FUNCTIONAL POTENTIAL (scf)
    LDA:                               Exchange only                           == Not Default ==
    Gradient Corrections:              Becke88 LYP                             == Not Default ==

 SPIN  (restricted / unrestr.)
    Molecule:                          Restricted                               
    Fragments:                         Restricted                               

 OTHER ASPECTS
    Relativistic Corrections:          scalar (ZORA,MAPA)                       

    Nuclear Charge Density Model:      Point Charge Nuclei                      
    Core Treatment:                    Frozen Orbital(s)                        

    Hyperfine or Zeeman Interaction:   ---                                      

 Settings for Grimme D3 dispersion correction

      damping                        BJ
      s6                          1.000
      s8                          2.700
      a1                          0.430
      a2                          4.236

 Other (technical) parameters

      alpha                      14.000
      version                         4
 


 Fragment File(s)
 ----------------
 C:
         file : /gpfs/home1/yeseo1ee/projects/eda-asm-prediction/ADF_800/adf_outputs/batch_007/qmrxn20_sn2_C_E_D_C_C_C/c2_fragB_ts.results/t21.50BA88D5.C
         jobid: 0
         title: Carbon (TZ2P)
 H:
         file : /gpfs/home1/yeseo1ee/projects/eda-asm-prediction/ADF_800/adf_outputs/batch_007/qmrxn20_sn2_C_E_D_C_C_C/c2_fragB_ts.results/t21.6F35CCAB.H
         jobid: 0
         title: Hydrogen (TZ2P)
 Cl:
         file : /gpfs/home1/yeseo1ee/projects/eda-asm-prediction/ADF_800/adf_outputs/batch_007/qmrxn20_sn2_C_E_D_C_C_C/c2_fragB_ts.results/t21.3FD35465.Cl
         jobid: 0
         title: Chlorine (TZ2P)
 N:
         file : /gpfs/home1/yeseo1ee/projects/eda-asm-prediction/ADF_800/adf_outputs/batch_007/qmrxn20_sn2_C_E_D_C_C_C/c2_fragB_ts.results/t21.44EAA48D.N
         jobid: 0
         title: Nitrogen (TZ2P)



 ===============
 G E O M E T R Y  ***  3D  Molecule  ***
 ===============
  

 ATOMS
 =====                            X Y Z                    CHARGE
                                (Angstrom)             Nucl     +Core       At.Mass
                       --------------------------    ----------------       -------
    1  C               0.6952   -0.0677    0.0125      6.00      6.00       12.0000
    2  H               1.6144    1.8428   -0.1662      1.00      1.00        1.0078
    3  Cl              3.0715   -0.0469    0.0670     17.00     17.00       34.9689
    4  C               0.5962    1.4723   -0.0349      6.00      6.00       12.0000
    5  C               0.7881   -0.7847   -1.2385      6.00      6.00       12.0000
    6  N               0.8802   -1.3861   -2.2492      7.00      7.00       14.0031
    7  N               0.6847   -0.7360    1.2817      7.00      7.00       14.0031
    8  H               1.5001   -1.3288    1.3474      1.00      1.00        1.0078
    9  H              -0.1641   -1.2768    1.3680      1.00      1.00        1.0078
   10  C               0.0696    2.0687    1.2688      6.00      6.00       12.0000
   11  H              -0.9536    1.7458    1.4528      1.00      1.00        1.0078
   12  H               0.7041    1.7367    2.0895      1.00      1.00        1.0078
   13  H               0.1025    3.1593    1.1998      1.00      1.00        1.0078
   14  C              -0.1346    1.9727   -1.2005      6.00      6.00       12.0000
   15  N              -0.6173    2.5033   -2.1316      7.00      7.00       14.0031


 FRAGMENTS
 =========                                     Atoms in this Fragment     Cart. coord.s (Angstrom)
                                               -------------------------------------------------------
    1  C                                                 1  C            0.6952   -0.0677    0.0125
    2  C                                                 4  C            0.5962    1.4723   -0.0349
    3  C                                                 5  C            0.7881   -0.7847   -1.2385
    4  C                                                10  C            0.0696    2.0687    1.2688
    5  C                                                14  C           -0.1346    1.9727   -1.2005
    6  H                                                 2  H            1.6144    1.8428   -0.1662
    7  H                                                 8  H            1.5001   -1.3288    1.3474
    8  H                                                 9  H           -0.1641   -1.2768    1.3680
    9  H                                                11  H           -0.9536    1.7458    1.4528
   10  H                                                12  H            0.7041    1.7367    2.0895
   11  H                                                13  H            0.1025    3.1593    1.1998
   12  Cl                                                3  Cl           3.0715   -0.0469    0.0670
   13  N                                                 6  N            0.8802   -1.3861   -2.2492
   14  N                                                 7  N            0.6847   -0.7360    1.2817
   15  N                                                15  N           -0.6173    2.5033   -2.1316


 Interatomic Distance Matrix (Angstrom)
 --------------------------------------

   1)     0.000
   2)     2.128   0.000
   3)     2.377   2.398   0.000
   4)     1.544   1.092   2.906   0.000
   5)     1.445   2.956   2.732   2.565   0.000
   6)     2.624   3.912   3.458   3.627   1.180   0.000
   7)     1.434   3.100   2.765   2.573   2.523   3.596   0.000
   8)     2.005   3.516   2.398   3.252   2.737   3.650   1.010   0.000
   9)     2.009   3.905   3.698   3.179   2.818   3.766   1.010   1.665   0.000
  10)     2.556   2.121   3.864   1.527   3.866   4.997   2.871   3.687   3.355   0.000
  11)     2.843   3.037   4.619   2.166   4.084   5.184   2.979   3.935   3.125   1.089
          0.000
  12)     2.751   2.435   3.588   2.144   4.176   5.349   2.601   3.253   3.218   1.089
          1.776   0.000
  13)     3.489   2.426   4.514   2.148   4.687   5.759   3.939   4.703   4.447   1.093
          1.782   1.783   0.000
  14)     2.515   2.036   3.996   1.464   2.908   3.662   3.764   4.479   4.142   2.480
          2.786   3.403   2.688   0.000
  15)     3.596   3.046   4.994   2.633   3.686   4.169   4.883   5.592   5.171   3.496
          3.679   4.489   3.471   1.175   0.000

 Min. Distance =    1.0102
 Max. Distance =    5.7586



 =====================================
 S Y M M E T R Y ,   E L E C T R O N S
 =====================================
  
 Symmetry: NOSYM

 Irreducible Representations, including subspecies
 -------------------------------------------------
 A


 Configuration of Valence Electrons
 ==================================
 ( determined in the SCF procedure )

 Total:   74

 Net Charge: 0 (Nuclei minus Electrons)

 Aufbau principle for MO occupations will be applied through SCF cycle no.     100
 Thereafter, the program will assign electrons to MOs that are spatially
 similar to the occupied MOs in a "reference" cycle ("KeepOrbitals").
 The reference cycle is always the PREVIOUS cycle: it will evolve with
 the SCF procedure.
 ***************************************************************************************************



                                      ****************************************
                                      *  B U I L D : (Fragments, Functions)  *
                                      ****************************************
  



 =======
 S F O s  ***  (Symmetrized Fragment Orbitals)  ***
 =======
  
 SFOs are linear combinations of (valence) Fragment Orbitals (FOs), such that the SFOs transform as the
 irreducible representations of the (molecular) symmetry group. Each SFO is therefore characterized by
 an irrep of the molecule and by a few (or only one) generating FOs.
 The SFOs constitute a symmetry-adapted basis for the Fock matrix. The MO eigenvector coefficients in
 this basis provide a direct interpretation of the MOs in terms of Frontier Orbital Theory.

 The SFOs are combined with auxiliary Core Functions (CFs) to ensure orthogonalization on the (frozen)
 Core Orbitals (COs). The Core-orthogonalized SFOs (CSFOs) constitute the true Fock basis.

 The FOs, and hence also the (C)SFOs are combinations of the elementary basis functions (BAS). The basis
 functions that participate in the description of the SFOs depend on the irrep. The indices of the
 involved functions are printed below for each irrep.
 (The complete list of primitive basis functions is printed in another section)

 Total nr. of (C)SFOs (summation over all irreps) :   308

 NOTE: a (C)SFO that is defined as a combination of more than one FO is usually NOT normalized.



                                       === A ===
 Nr. of SFOs :  308
 Cartesian basis functions that participate in this irrep (total number =   350) :
      1     2     3     4     5     6     9    12     7    10
     13     8    11    14    15    16    17    18    19    20
     21    22    23    24    25    26    27    28    29    30
     31    32    33    34    35    36    39    42    37    40
     43    38    41    44    45    46    47    48    49    50
     51    52    53    54    55    56    57    58    59    60
     61    62    63    64    65    66    69    72    67    70
     73    68    71    74    75    76    77    78    79    80
     81    82    83    84    85    86    87    88    89    90
     91    92    93    94    95    96    99   102    97   100
    103    98   101   104   105   106   107   108   109   110
    111   112   113   114   115   116   117   118   119   120
    121   122   123   124   125   126   129   132   127   130
    133   128   131   134   135   136   137   138   139   140
    141   142   143   144   145   146   147   148   149   150
    151   152   153   154   155   156   157   158   159   160
    161   162   163   164   165   166   167   168   169   170
    171   172   173   174   175   176   177   178   179   180
    181   182   183   184   185   186   187   188   189   190
    191   192   193   194   195   196   197   198   199   200
    201   202   203   204   205   206   207   208   209   210
    211   212   213   214   215   216   217   218   219   220
    221   222   223   224   225   226   233   234   235   227
    230   236   239   242   228   231   237   240   243   229
    232   238   241   244   245   246   247   248   249   250
    251   252   253   254   255   256   257   258   259   260
    261   262   263   264   265   266   269   272   267   270
    273   268   271   274   275   276   277   278   279   280
    281   282   283   284   285   286   287   288   289   290
    291   292   293   294   295   296   299   302   297   300
    303   298   301   304   305   306   307   308   309   310
    311   312   313   314   315   316   317   318   319   320
    321   322   323   324   325   326   329   332   327   330
    333   328   331   334   335   336   337   338   339   340
    341   342   343   344   345   346   347   348   349   350

    SFO  (index         Fragment          Generating    Expansion in Fragment Orbitals
  indx  incl.CFs)   Occup   Orb.Energy   FragmentType  Coeff.   Orbital     on Fragment
 --------------------------------------------------------------------------------------
     1       1      2.000     -10.066 au  C             1.00      1 S               1
                        (    -273.921 eV)
     2       2      2.000      -0.501 au  C             1.00      2 S               1
                        (     -13.620 eV)
     3       3       --         0.373 au  C             1.00      3 S               1
                        (      10.158 eV)
     4       4       --         5.405 au  C             1.00      4 S               1
                        (     147.073 eV)
     5       5       --        49.848 au  C             1.00      5 S               1
                        (    1356.422 eV)
     6       6      0.667      -0.193 au  C             1.00      1 P:x             1
                        (      -5.239 eV)
     7       7       --         0.169 au  C             1.00      2 P:x             1
                        (       4.589 eV)
     8       8       --         2.013 au  C             1.00      3 P:x             1
                        (      54.789 eV)
     9       9      0.667      -0.193 au  C             1.00      1 P:y             1
                        (      -5.239 eV)
    10      10       --         0.169 au  C             1.00      2 P:y             1
                        (       4.589 eV)
    11      11       --         2.013 au  C             1.00      3 P:y             1
                        (      54.789 eV)
    12      12      0.667      -0.193 au  C             1.00      1 P:z             1
                        (      -5.239 eV)
    13      13       --         0.169 au  C             1.00      2 P:z             1
                        (       4.589 eV)
    14      14       --         2.013 au  C             1.00      3 P:z             1
                        (      54.789 eV)
    15      15       --         1.243 au  C             1.00      1 D:z2            1
                        (      33.824 eV)
    16      16       --         1.243 au  C             1.00      1 D:x2-y2         1
                        (      33.824 eV)
    17      17       --         1.243 au  C             1.00      1 D:xy            1
                        (      33.824 eV)
    18      18       --         1.243 au  C             1.00      1 D:xz            1
                        (      33.824 eV)
    19      19       --         1.243 au  C             1.00      1 D:yz            1
                        (      33.824 eV)
    20      20       --         4.016 au  C             1.00      1 F:z3            1
                        (     109.271 eV)
    21      21       --         4.016 au  C             1.00      1 F:z             1
                        (     109.271 eV)
    22      22       --         4.016 au  C             1.00      1 F:xyz           1
                        (     109.271 eV)
    23      23       --         4.016 au  C             1.00      1 F:z2x           1
                        (     109.271 eV)
    24      24       --         4.016 au  C             1.00      1 F:z2y           1
                        (     109.271 eV)
    25      25       --         4.016 au  C             1.00      1 F:x             1
                        (     109.271 eV)
    26      26       --         4.016 au  C             1.00      1 F:y             1
                        (     109.271 eV)
    27      27      2.000     -10.066 au  C             1.00      1 S               2
                        (    -273.921 eV)
    28      28      2.000      -0.501 au  C             1.00      2 S               2
                        (     -13.620 eV)
    29      29       --         0.373 au  C             1.00      3 S               2
                        (      10.158 eV)
    30      30       --         5.405 au  C             1.00      4 S               2
                        (     147.073 eV)
    31      31       --        49.848 au  C             1.00      5 S               2
                        (    1356.422 eV)
    32      32      0.667      -0.193 au  C             1.00      1 P:x             2
                        (      -5.239 eV)
    33      33       --         0.169 au  C             1.00      2 P:x             2
                        (       4.589 eV)
    34      34       --         2.013 au  C             1.00      3 P:x             2
                        (      54.789 eV)
    35      35      0.667      -0.193 au  C             1.00      1 P:y             2
                        (      -5.239 eV)
    36      36       --         0.169 au  C             1.00      2 P:y             2
                        (       4.589 eV)
    37      37       --         2.013 au  C             1.00      3 P:y             2
                        (      54.789 eV)
    38      38      0.667      -0.193 au  C             1.00      1 P:z             2
                        (      -5.239 eV)
    39      39       --         0.169 au  C             1.00      2 P:z             2
                        (       4.589 eV)
    40      40       --         2.013 au  C             1.00      3 P:z             2
                        (      54.789 eV)
    41      41       --         1.243 au  C             1.00      1 D:z2            2
                        (      33.824 eV)
    42      42       --         1.243 au  C             1.00      1 D:x2-y2         2
                        (      33.824 eV)
    43      43       --         1.243 au  C             1.00      1 D:xy            2
                        (      33.824 eV)
    44      44       --         1.243 au  C             1.00      1 D:xz            2
                        (      33.824 eV)
    45      45       --         1.243 au  C             1.00      1 D:yz            2
                        (      33.824 eV)
    46      46       --         4.016 au  C             1.00      1 F:z3            2
                        (     109.271 eV)
    47      47       --         4.016 au  C             1.00      1 F:z             2
                        (     109.271 eV)
    48      48       --         4.016 au  C             1.00      1 F:xyz           2
                        (     109.271 eV)
    49      49       --         4.016 au  C             1.00      1 F:z2x           2
                        (     109.271 eV)
    50      50       --         4.016 au  C             1.00      1 F:z2y           2
                        (     109.271 eV)
    51      51       --         4.016 au  C             1.00      1 F:x             2
                        (     109.271 eV)
    52      52       --         4.016 au  C             1.00      1 F:y             2
                        (     109.271 eV)
    53      53      2.000     -10.066 au  C             1.00      1 S               3
                        (    -273.921 eV)
    54      54      2.000      -0.501 au  C             1.00      2 S               3
                        (     -13.620 eV)
    55      55       --         0.373 au  C             1.00      3 S               3
                        (      10.158 eV)
    56      56       --         5.405 au  C             1.00      4 S               3
                        (     147.073 eV)
    57      57       --        49.848 au  C             1.00      5 S               3
                        (    1356.422 eV)
    58      58      0.667      -0.193 au  C             1.00      1 P:x             3
                        (      -5.239 eV)
    59      59       --         0.169 au  C             1.00      2 P:x             3
                        (       4.589 eV)
    60      60       --         2.013 au  C             1.00      3 P:x             3
                        (      54.789 eV)
    61      61      0.667      -0.193 au  C             1.00      1 P:y             3
                        (      -5.239 eV)
    62      62       --         0.169 au  C             1.00      2 P:y             3
                        (       4.589 eV)
    63      63       --         2.013 au  C             1.00      3 P:y             3
                        (      54.789 eV)
    64      64      0.667      -0.193 au  C             1.00      1 P:z             3
                        (      -5.239 eV)
    65      65       --         0.169 au  C             1.00      2 P:z             3
                        (       4.589 eV)
    66      66       --         2.013 au  C             1.00      3 P:z             3
                        (      54.789 eV)
    67      67       --         1.243 au  C             1.00      1 D:z2            3
                        (      33.824 eV)
    68      68       --         1.243 au  C             1.00      1 D:x2-y2         3
                        (      33.824 eV)
    69      69       --         1.243 au  C             1.00      1 D:xy            3
                        (      33.824 eV)
    70      70       --         1.243 au  C             1.00      1 D:xz            3
                        (      33.824 eV)
    71      71       --         1.243 au  C             1.00      1 D:yz            3
                        (      33.824 eV)
    72      72       --         4.016 au  C             1.00      1 F:z3            3
                        (     109.271 eV)
    73      73       --         4.016 au  C             1.00      1 F:z             3
                        (     109.271 eV)
    74      74       --         4.016 au  C             1.00      1 F:xyz           3
                        (     109.271 eV)
    75      75       --         4.016 au  C             1.00      1 F:z2x           3
                        (     109.271 eV)
    76      76       --         4.016 au  C             1.00      1 F:z2y           3
                        (     109.271 eV)
    77      77       --         4.016 au  C             1.00      1 F:x             3
                        (     109.271 eV)
    78      78       --         4.016 au  C             1.00      1 F:y             3
                        (     109.271 eV)
    79      79      2.000     -10.066 au  C             1.00      1 S               4
                        (    -273.921 eV)
    80      80      2.000      -0.501 au  C             1.00      2 S               4
                        (     -13.620 eV)
    81      81       --         0.373 au  C             1.00      3 S               4
                        (      10.158 eV)
    82      82       --         5.405 au  C             1.00      4 S               4
                        (     147.073 eV)
    83      83       --        49.848 au  C             1.00      5 S               4
                        (    1356.422 eV)
    84      84      0.667      -0.193 au  C             1.00      1 P:x             4
                        (      -5.239 eV)
    85      85       --         0.169 au  C             1.00      2 P:x             4
                        (       4.589 eV)
    86      86       --         2.013 au  C             1.00      3 P:x             4
                        (      54.789 eV)
    87      87      0.667      -0.193 au  C             1.00      1 P:y             4
                        (      -5.239 eV)
    88      88       --         0.169 au  C             1.00      2 P:y             4
                        (       4.589 eV)
    89      89       --         2.013 au  C             1.00      3 P:y             4
                        (      54.789 eV)
    90      90      0.667      -0.193 au  C             1.00      1 P:z             4
                        (      -5.239 eV)
    91      91       --         0.169 au  C             1.00      2 P:z             4
                        (       4.589 eV)
    92      92       --         2.013 au  C             1.00      3 P:z             4
                        (      54.789 eV)
    93      93       --         1.243 au  C             1.00      1 D:z2            4
                        (      33.824 eV)
    94      94       --         1.243 au  C             1.00      1 D:x2-y2         4
                        (      33.824 eV)
    95      95       --         1.243 au  C             1.00      1 D:xy            4
                        (      33.824 eV)
    96      96       --         1.243 au  C             1.00      1 D:xz            4
                        (      33.824 eV)
    97      97       --         1.243 au  C             1.00      1 D:yz            4
                        (      33.824 eV)
    98      98       --         4.016 au  C             1.00      1 F:z3            4
                        (     109.271 eV)
    99      99       --         4.016 au  C             1.00      1 F:z             4
                        (     109.271 eV)
   100     100       --         4.016 au  C             1.00      1 F:xyz           4
                        (     109.271 eV)
   101     101       --         4.016 au  C             1.00      1 F:z2x           4
                        (     109.271 eV)
   102     102       --         4.016 au  C             1.00      1 F:z2y           4
                        (     109.271 eV)
   103     103       --         4.016 au  C             1.00      1 F:x             4
                        (     109.271 eV)
   104     104       --         4.016 au  C             1.00      1 F:y             4
                        (     109.271 eV)
   105     105      2.000     -10.066 au  C             1.00      1 S               5
                        (    -273.921 eV)
   106     106      2.000      -0.501 au  C             1.00      2 S               5
                        (     -13.620 eV)
   107     107       --         0.373 au  C             1.00      3 S               5
                        (      10.158 eV)
   108     108       --         5.405 au  C             1.00      4 S               5
                        (     147.073 eV)
   109     109       --        49.848 au  C             1.00      5 S               5
                        (    1356.422 eV)
   110     110      0.667      -0.193 au  C             1.00      1 P:x             5
                        (      -5.239 eV)
   111     111       --         0.169 au  C             1.00      2 P:x             5
                        (       4.589 eV)
   112     112       --         2.013 au  C             1.00      3 P:x             5
                        (      54.789 eV)
   113     113      0.667      -0.193 au  C             1.00      1 P:y             5
                        (      -5.239 eV)
   114     114       --         0.169 au  C             1.00      2 P:y             5
                        (       4.589 eV)
   115     115       --         2.013 au  C             1.00      3 P:y             5
                        (      54.789 eV)
   116     116      0.667      -0.193 au  C             1.00      1 P:z             5
                        (      -5.239 eV)
   117     117       --         0.169 au  C             1.00      2 P:z             5
                        (       4.589 eV)
   118     118       --         2.013 au  C             1.00      3 P:z             5
                        (      54.789 eV)
   119     119       --         1.243 au  C             1.00      1 D:z2            5
                        (      33.824 eV)
   120     120       --         1.243 au  C             1.00      1 D:x2-y2         5
                        (      33.824 eV)
   121     121       --         1.243 au  C             1.00      1 D:xy            5
                        (      33.824 eV)
   122     122       --         1.243 au  C             1.00      1 D:xz            5
                        (      33.824 eV)
   123     123       --         1.243 au  C             1.00      1 D:yz            5
                        (      33.824 eV)
   124     124       --         4.016 au  C             1.00      1 F:z3            5
                        (     109.271 eV)
   125     125       --         4.016 au  C             1.00      1 F:z             5
                        (     109.271 eV)
   126     126       --         4.016 au  C             1.00      1 F:xyz           5
                        (     109.271 eV)
   127     127       --         4.016 au  C             1.00      1 F:z2x           5
                        (     109.271 eV)
   128     128       --         4.016 au  C             1.00      1 F:z2y           5
                        (     109.271 eV)
   129     129       --         4.016 au  C             1.00      1 F:x             5
                        (     109.271 eV)
   130     130       --         4.016 au  C             1.00      1 F:y             5
                        (     109.271 eV)
   131     131      1.000      -0.240 au  H             1.00      1 S               6
                        (      -6.532 eV)
   132     132       --         0.088 au  H             1.00      2 S               6
                        (       2.394 eV)
   133     133       --         1.502 au  H             1.00      3 S               6
                        (      40.869 eV)
   134     134       --         0.406 au  H             1.00      1 P:x             6
                        (      11.051 eV)
   135     135       --         0.406 au  H             1.00      1 P:y             6
                        (      11.051 eV)
   136     136       --         0.406 au  H             1.00      1 P:z             6
                        (      11.051 eV)
   137     137       --         2.569 au  H             1.00      1 D:z2            6
                        (      69.917 eV)
   138     138       --         2.569 au  H             1.00      1 D:x2-y2         6
                        (      69.917 eV)
   139     139       --         2.569 au  H             1.00      1 D:xy            6
                        (      69.917 eV)
   140     140       --         2.569 au  H             1.00      1 D:xz            6
                        (      69.917 eV)
   141     141       --         2.569 au  H             1.00      1 D:yz            6
                        (      69.917 eV)
   142     142      1.000      -0.240 au  H             1.00      1 S               7
                        (      -6.532 eV)
   143     143       --         0.088 au  H             1.00      2 S               7
                        (       2.394 eV)
   144     144       --         1.502 au  H             1.00      3 S               7
                        (      40.869 eV)
   145     145       --         0.406 au  H             1.00      1 P:x             7
                        (      11.051 eV)
   146     146       --         0.406 au  H             1.00      1 P:y             7
                        (      11.051 eV)
   147     147       --         0.406 au  H             1.00      1 P:z             7
                        (      11.051 eV)
   148     148       --         2.569 au  H             1.00      1 D:z2            7
                        (      69.917 eV)
   149     149       --         2.569 au  H             1.00      1 D:x2-y2         7
                        (      69.917 eV)
   150     150       --         2.569 au  H             1.00      1 D:xy            7
                        (      69.917 eV)
   151     151       --         2.569 au  H             1.00      1 D:xz            7
                        (      69.917 eV)
   152     152       --         2.569 au  H             1.00      1 D:yz            7
                        (      69.917 eV)
   153     153      1.000      -0.240 au  H             1.00      1 S               8
                        (      -6.532 eV)
   154     154       --         0.088 au  H             1.00      2 S               8
                        (       2.394 eV)
   155     155       --         1.502 au  H             1.00      3 S               8
                        (      40.869 eV)
   156     156       --         0.406 au  H             1.00      1 P:x             8
                        (      11.051 eV)
   157     157       --         0.406 au  H             1.00      1 P:y             8
                        (      11.051 eV)
   158     158       --         0.406 au  H             1.00      1 P:z             8
                        (      11.051 eV)
   159     159       --         2.569 au  H             1.00      1 D:z2            8
                        (      69.917 eV)
   160     160       --         2.569 au  H             1.00      1 D:x2-y2         8
                        (      69.917 eV)
   161     161       --         2.569 au  H             1.00      1 D:xy            8
                        (      69.917 eV)
   162     162       --         2.569 au  H             1.00      1 D:xz            8
                        (      69.917 eV)
   163     163       --         2.569 au  H             1.00      1 D:yz            8
                        (      69.917 eV)
   164     164      1.000      -0.240 au  H             1.00      1 S               9
                        (      -6.532 eV)
   165     165       --         0.088 au  H             1.00      2 S               9
                        (       2.394 eV)
   166     166       --         1.502 au  H             1.00      3 S               9
                        (      40.869 eV)
   167     167       --         0.406 au  H             1.00      1 P:x             9
                        (      11.051 eV)
   168     168       --         0.406 au  H             1.00      1 P:y             9
                        (      11.051 eV)
   169     169       --         0.406 au  H             1.00      1 P:z             9
                        (      11.051 eV)
   170     170       --         2.569 au  H             1.00      1 D:z2            9
                        (      69.917 eV)
   171     171       --         2.569 au  H             1.00      1 D:x2-y2         9
                        (      69.917 eV)
   172     172       --         2.569 au  H             1.00      1 D:xy            9
                        (      69.917 eV)
   173     173       --         2.569 au  H             1.00      1 D:xz            9
                        (      69.917 eV)
   174     174       --         2.569 au  H             1.00      1 D:yz            9
                        (      69.917 eV)
   175     175      1.000      -0.240 au  H             1.00      1 S              10
                        (      -6.532 eV)
   176     176       --         0.088 au  H             1.00      2 S              10
                        (       2.394 eV)
   177     177       --         1.502 au  H             1.00      3 S              10
                        (      40.869 eV)
   178     178       --         0.406 au  H             1.00      1 P:x            10
                        (      11.051 eV)
   179     179       --         0.406 au  H             1.00      1 P:y            10
                        (      11.051 eV)
   180     180       --         0.406 au  H             1.00      1 P:z            10
                        (      11.051 eV)
   181     181       --         2.569 au  H             1.00      1 D:z2           10
                        (      69.917 eV)
   182     182       --         2.569 au  H             1.00      1 D:x2-y2        10
                        (      69.917 eV)
   183     183       --         2.569 au  H             1.00      1 D:xy           10
                        (      69.917 eV)
   184     184       --         2.569 au  H             1.00      1 D:xz           10
                        (      69.917 eV)
   185     185       --         2.569 au  H             1.00      1 D:yz           10
                        (      69.917 eV)
   186     186      1.000      -0.240 au  H             1.00      1 S              11
                        (      -6.532 eV)
   187     187       --         0.088 au  H             1.00      2 S              11
                        (       2.394 eV)
   188     188       --         1.502 au  H             1.00      3 S              11
                        (      40.869 eV)
   189     189       --         0.406 au  H             1.00      1 P:x            11
                        (      11.051 eV)
   190     190       --         0.406 au  H             1.00      1 P:y            11
                        (      11.051 eV)
   191     191       --         0.406 au  H             1.00      1 P:z            11
                        (      11.051 eV)
   192     192       --         2.569 au  H             1.00      1 D:z2           11
                        (      69.917 eV)
   193     193       --         2.569 au  H             1.00      1 D:x2-y2        11
                        (      69.917 eV)
   194     194       --         2.569 au  H             1.00      1 D:xy           11
                        (      69.917 eV)
   195     195       --         2.569 au  H             1.00      1 D:xz           11
                        (      69.917 eV)
   196     196       --         2.569 au  H             1.00      1 D:yz           11
                        (      69.917 eV)
   197     197      2.000    -101.116 au  Cl            1.00      1 S              12
                        (   -2751.516 eV)
   198     198      2.000      -9.276 au  Cl            1.00      2 S              12
                        (    -252.419 eV)
   199     199      2.000      -0.754 au  Cl            1.00      3 S              12
                        (     -20.523 eV)
   200     200       --         0.194 au  Cl            1.00      4 S              12
                        (       5.292 eV)
   201     201       --         1.998 au  Cl            1.00      5 S              12
                        (      54.377 eV)
   202     202       --        12.618 au  Cl            1.00      6 S              12
                        (     343.355 eV)
   203     203       --       205.328 au  Cl            1.00      7 S              12
                        (    5587.258 eV)
   204     204      2.000      -7.038 au  Cl            1.00      1 P:x            12
                        (    -191.503 eV)
   205     205      1.667      -0.310 au  Cl            1.00      2 P:x            12
                        (      -8.439 eV)
   206     206       --         0.226 au  Cl            1.00      3 P:x            12
                        (       6.147 eV)
   207     207       --         2.102 au  Cl            1.00      4 P:x            12
                        (      57.194 eV)
   208     208       --        18.665 au  Cl            1.00      5 P:x            12
                        (     507.904 eV)
   209     209      2.000      -7.038 au  Cl            1.00      1 P:y            12
                        (    -191.503 eV)
   210     210      1.667      -0.310 au  Cl            1.00      2 P:y            12
                        (      -8.439 eV)
   211     211       --         0.226 au  Cl            1.00      3 P:y            12
                        (       6.147 eV)
   212     212       --         2.102 au  Cl            1.00      4 P:y            12
                        (      57.194 eV)
   213     213       --        18.665 au  Cl            1.00      5 P:y            12
                        (     507.904 eV)
   214     214      2.000      -7.038 au  Cl            1.00      1 P:z            12
                        (    -191.503 eV)
   215     215      1.667      -0.310 au  Cl            1.00      2 P:z            12
                        (      -8.439 eV)
   216     216       --         0.226 au  Cl            1.00      3 P:z            12
                        (       6.147 eV)
   217     217       --         2.102 au  Cl            1.00      4 P:z            12
                        (      57.194 eV)
   218     218       --        18.665 au  Cl            1.00      5 P:z            12
                        (     507.904 eV)
   219     219       --         0.388 au  Cl            1.00      1 D:z2           12
                        (      10.568 eV)
   220     220       --         0.388 au  Cl            1.00      1 D:x2-y2        12
                        (      10.568 eV)
   221     221       --         0.388 au  Cl            1.00      1 D:xy           12
                        (      10.568 eV)
   222     222       --         0.388 au  Cl            1.00      1 D:xz           12
                        (      10.568 eV)
   223     223       --         0.388 au  Cl            1.00      1 D:yz           12
                        (      10.568 eV)
   224     224       --         1.191 au  Cl            1.00      1 F:z3           12
                        (      32.399 eV)
   225     225       --         1.191 au  Cl            1.00      1 F:z            12
                        (      32.399 eV)
   226     226       --         1.191 au  Cl            1.00      1 F:xyz          12
                        (      32.399 eV)
   227     227       --         1.191 au  Cl            1.00      1 F:z2x          12
                        (      32.399 eV)
   228     228       --         1.191 au  Cl            1.00      1 F:z2y          12
                        (      32.399 eV)
   229     229       --         1.191 au  Cl            1.00      1 F:x            12
                        (      32.399 eV)
   230     230       --         1.191 au  Cl            1.00      1 F:y            12
                        (      32.399 eV)
   231     231      2.000     -14.160 au  N             1.00      1 S              13
                        (    -385.319 eV)
   232     232      2.000      -0.678 au  N             1.00      2 S              13
                        (     -18.450 eV)
   233     233       --         0.517 au  N             1.00      3 S              13
                        (      14.073 eV)
   234     234       --         6.872 au  N             1.00      4 S              13
                        (     186.990 eV)
   235     235       --        63.432 au  N             1.00      5 S              13
                        (    1726.082 eV)
   236     236      1.000      -0.260 au  N             1.00      1 P:x            13
                        (      -7.062 eV)
   237     237       --         0.281 au  N             1.00      2 P:x            13
                        (       7.649 eV)
   238     238       --         3.275 au  N             1.00      3 P:x            13
                        (      89.105 eV)
   239     239      1.000      -0.260 au  N             1.00      1 P:y            13
                        (      -7.062 eV)
   240     240       --         0.281 au  N             1.00      2 P:y            13
                        (       7.649 eV)
   241     241       --         3.275 au  N             1.00      3 P:y            13
                        (      89.105 eV)
   242     242      1.000      -0.260 au  N             1.00      1 P:z            13
                        (      -7.062 eV)
   243     243       --         0.281 au  N             1.00      2 P:z            13
                        (       7.649 eV)
   244     244       --         3.275 au  N             1.00      3 P:z            13
                        (      89.105 eV)
   245     245       --         1.250 au  N             1.00      1 D:z2           13
                        (      34.005 eV)
   246     246       --         1.250 au  N             1.00      1 D:x2-y2        13
                        (      34.005 eV)
   247     247       --         1.250 au  N             1.00      1 D:xy           13
                        (      34.005 eV)
   248     248       --         1.250 au  N             1.00      1 D:xz           13
                        (      34.005 eV)
   249     249       --         1.250 au  N             1.00      1 D:yz           13
                        (      34.005 eV)
   250     250       --         4.013 au  N             1.00      1 F:z3           13
                        (     109.190 eV)
   251     251       --         4.013 au  N             1.00      1 F:z            13
                        (     109.190 eV)
   252     252       --         4.013 au  N             1.00      1 F:xyz          13
                        (     109.190 eV)
   253     253       --         4.013 au  N             1.00      1 F:z2x          13
                        (     109.190 eV)
   254     254       --         4.013 au  N             1.00      1 F:z2y          13
                        (     109.190 eV)
   255     255       --         4.013 au  N             1.00      1 F:x            13
                        (     109.190 eV)
   256     256       --         4.013 au  N             1.00      1 F:y            13
                        (     109.190 eV)
   257     257      2.000     -14.160 au  N             1.00      1 S              14
                        (    -385.319 eV)
   258     258      2.000      -0.678 au  N             1.00      2 S              14
                        (     -18.450 eV)
   259     259       --         0.517 au  N             1.00      3 S              14
                        (      14.073 eV)
   260     260       --         6.872 au  N             1.00      4 S              14
                        (     186.990 eV)
   261     261       --        63.432 au  N             1.00      5 S              14
                        (    1726.082 eV)
   262     262      1.000      -0.260 au  N             1.00      1 P:x            14
                        (      -7.062 eV)
   263     263       --         0.281 au  N             1.00      2 P:x            14
                        (       7.649 eV)
   264     264       --         3.275 au  N             1.00      3 P:x            14
                        (      89.105 eV)
   265     265      1.000      -0.260 au  N             1.00      1 P:y            14
                        (      -7.062 eV)
   266     266       --         0.281 au  N             1.00      2 P:y            14
                        (       7.649 eV)
   267     267       --         3.275 au  N             1.00      3 P:y            14
                        (      89.105 eV)
   268     268      1.000      -0.260 au  N             1.00      1 P:z            14
                        (      -7.062 eV)
   269     269       --         0.281 au  N             1.00      2 P:z            14
                        (       7.649 eV)
   270     270       --         3.275 au  N             1.00      3 P:z            14
                        (      89.105 eV)
   271     271       --         1.250 au  N             1.00      1 D:z2           14
                        (      34.005 eV)
   272     272       --         1.250 au  N             1.00      1 D:x2-y2        14
                        (      34.005 eV)
   273     273       --         1.250 au  N             1.00      1 D:xy           14
                        (      34.005 eV)
   274     274       --         1.250 au  N             1.00      1 D:xz           14
                        (      34.005 eV)
   275     275       --         1.250 au  N             1.00      1 D:yz           14
                        (      34.005 eV)
   276     276       --         4.013 au  N             1.00      1 F:z3           14
                        (     109.190 eV)
   277     277       --         4.013 au  N             1.00      1 F:z            14
                        (     109.190 eV)
   278     278       --         4.013 au  N             1.00      1 F:xyz          14
                        (     109.190 eV)
   279     279       --         4.013 au  N             1.00      1 F:z2x          14
                        (     109.190 eV)
   280     280       --         4.013 au  N             1.00      1 F:z2y          14
                        (     109.190 eV)
   281     281       --         4.013 au  N             1.00      1 F:x            14
                        (     109.190 eV)
   282     282       --         4.013 au  N             1.00      1 F:y            14
                        (     109.190 eV)
   283     283      2.000     -14.160 au  N             1.00      1 S              15
                        (    -385.319 eV)
   284     284      2.000      -0.678 au  N             1.00      2 S              15
                        (     -18.450 eV)
   285     285       --         0.517 au  N             1.00      3 S              15
                        (      14.073 eV)
   286     286       --         6.872 au  N             1.00      4 S              15
                        (     186.990 eV)
   287     287       --        63.432 au  N             1.00      5 S              15
                        (    1726.082 eV)
   288     288      1.000      -0.260 au  N             1.00      1 P:x            15
                        (      -7.062 eV)
   289     289       --         0.281 au  N             1.00      2 P:x            15
                        (       7.649 eV)
   290     290       --         3.275 au  N             1.00      3 P:x            15
                        (      89.105 eV)
   291     291      1.000      -0.260 au  N             1.00      1 P:y            15
                        (      -7.062 eV)
   292     292       --         0.281 au  N             1.00      2 P:y            15
                        (       7.649 eV)
   293     293       --         3.275 au  N             1.00      3 P:y            15
                        (      89.105 eV)
   294     294      1.000      -0.260 au  N             1.00      1 P:z            15
                        (      -7.062 eV)
   295     295       --         0.281 au  N             1.00      2 P:z            15
                        (       7.649 eV)
   296     296       --         3.275 au  N             1.00      3 P:z            15
                        (      89.105 eV)
   297     297       --         1.250 au  N             1.00      1 D:z2           15
                        (      34.005 eV)
   298     298       --         1.250 au  N             1.00      1 D:x2-y2        15
                        (      34.005 eV)
   299     299       --         1.250 au  N             1.00      1 D:xy           15
                        (      34.005 eV)
   300     300       --         1.250 au  N             1.00      1 D:xz           15
                        (      34.005 eV)
   301     301       --         1.250 au  N             1.00      1 D:yz           15
                        (      34.005 eV)
   302     302       --         4.013 au  N             1.00      1 F:z3           15
                        (     109.190 eV)
   303     303       --         4.013 au  N             1.00      1 F:z            15
                        (     109.190 eV)
   304     304       --         4.013 au  N             1.00      1 F:xyz          15
                        (     109.190 eV)
   305     305       --         4.013 au  N             1.00      1 F:z2x          15
                        (     109.190 eV)
   306     306       --         4.013 au  N             1.00      1 F:z2y          15
                        (     109.190 eV)
   307     307       --         4.013 au  N             1.00      1 F:x            15
                        (     109.190 eV)
   308     308       --         4.013 au  N             1.00      1 F:y            15
                        (     109.190 eV)



 ================================
 (Slater-type)  F U N C T I O N S  ***  (Basis and Fit)  ***
 ================================
  

 Atom Type    1  (C)
 ==============

 Valence Basis Sets:  10
 -----------------------
   1 S    7.680000
   1 S    5.000000
   2 S    1.280000
   2 S    2.100000
   2 S    4.600000
   2 P    0.820000
   2 P    1.480000
   2 P    2.940000
   3 D    2.200000
   4 F    3.300000

 Atom Type    2  (H)
 ==============

 Valence Basis Sets:   5
 -----------------------
   1 S    0.690000
   1 S    0.920000
   1 S    1.580000
   2 P    1.250000
   3 D    2.500000

 Atom Type    3  (Cl)
 ==============

 Valence Basis Sets:  14
 -----------------------
   1 S   20.300000
   1 S   15.250000
   2 S    6.250000
   2 S    4.450000
   2 P    8.850000
   2 P    5.050000
   3 S    3.450000
   3 S    2.300000
   3 S    1.600000
   3 P    3.350000
   3 P    2.050000
   3 P    1.200000
   3 D    2.000000
   4 F    2.000000

 Atom Type    4  (N)
 ==============

 Valence Basis Sets:  10
 -----------------------
   1 S    8.740000
   1 S    5.900000
   2 S    5.150000
   2 S    2.500000
   2 S    1.500000
   2 P    3.680000
   2 P    1.880000
   2 P    1.000000
   3 D    2.200000
   4 F    3.300000


 BAS: List of all Elementary Cartesian Basis Functions
 =====================================================

 The numbering in the list below (to the right of the function characteristics) is referred
 to in print-outs of MO eigenvectors and Mulliken populations in the BAS representation
 (as contrasted to the SFO representation).

 Notes:
 1. The functions are characterized by a polynomial prefactor (powers of x,y,z and r) and
    an exponential decay factor alpha.
 2. Since the basis sets are specific for an atom TYPE, the individual functions occur on
    all atoms of that type.
 3. The word 'Core' in the left margin signals that it is a Core Function (CF) : not a
    degree of freedom in the valence set, but only used to ensure orthogonalization of
    the other valence basis functions on the frozen Core Orbitals.


 (power of) X  Y  Z  R     Alpha  on Atom
            ==========     =====     ==========

 C                                    1    2    3    4    5
                                  ---------------------------------------------------------------------------
            0  0  0  0     7.680      1   31   61   91  121
            0  0  0  0     5.000      2   32   62   92  122
            0  0  0  1     1.280      3   33   63   93  123
            0  0  0  1     2.100      4   34   64   94  124
            0  0  0  1     4.600      5   35   65   95  125
            1  0  0  0     0.820      6   36   66   96  126
            0  1  0  0     0.820      7   37   67   97  127
            0  0  1  0     0.820      8   38   68   98  128
            1  0  0  0     1.480      9   39   69   99  129
            0  1  0  0     1.480     10   40   70  100  130
            0  0  1  0     1.480     11   41   71  101  131
            1  0  0  0     2.940     12   42   72  102  132
            0  1  0  0     2.940     13   43   73  103  133
            0  0  1  0     2.940     14   44   74  104  134
            2  0  0  0     2.200     15   45   75  105  135
            1  1  0  0     2.200     16   46   76  106  136
            1  0  1  0     2.200     17   47   77  107  137
            0  2  0  0     2.200     18   48   78  108  138
            0  1  1  0     2.200     19   49   79  109  139
            0  0  2  0     2.200     20   50   80  110  140
            3  0  0  0     3.300     21   51   81  111  141
            2  1  0  0     3.300     22   52   82  112  142
            2  0  1  0     3.300     23   53   83  113  143
            1  2  0  0     3.300     24   54   84  114  144
            1  1  1  0     3.300     25   55   85  115  145
            1  0  2  0     3.300     26   56   86  116  146
            0  3  0  0     3.300     27   57   87  117  147
            0  2  1  0     3.300     28   58   88  118  148
            0  1  2  0     3.300     29   59   89  119  149
            0  0  3  0     3.300     30   60   90  120  150

 H                                    6    7    8    9   10   11
                                  ---------------------------------------------------------------------------
            0  0  0  0     0.690    151  163  175  187  199  211
            0  0  0  0     0.920    152  164  176  188  200  212
            0  0  0  0     1.580    153  165  177  189  201  213
            1  0  0  0     1.250    154  166  178  190  202  214
            0  1  0  0     1.250    155  167  179  191  203  215
            0  0  1  0     1.250    156  168  180  192  204  216
            2  0  0  0     2.500    157  169  181  193  205  217
            1  1  0  0     2.500    158  170  182  194  206  218
            1  0  1  0     2.500    159  171  183  195  207  219
            0  2  0  0     2.500    160  172  184  196  208  220
            0  1  1  0     2.500    161  173  185  197  209  221
            0  0  2  0     2.500    162  174  186  198  210  222

 Cl                                  12
                                  ---------------------------------------------------------------------------
            0  0  0  0    20.300    223
            0  0  0  0    15.250    224
            0  0  0  1     6.250    225
            0  0  0  1     4.450    226
            1  0  0  0     8.850    227
            0  1  0  0     8.850    228
            0  0  1  0     8.850    229
            1  0  0  0     5.050    230
            0  1  0  0     5.050    231
            0  0  1  0     5.050    232
            0  0  0  2     3.450    233
            0  0  0  2     2.300    234
            0  0  0  2     1.600    235
            1  0  0  1     3.350    236
            0  1  0  1     3.350    237
            0  0  1  1     3.350    238
            1  0  0  1     2.050    239
            0  1  0  1     2.050    240
            0  0  1  1     2.050    241
            1  0  0  1     1.200    242
            0  1  0  1     1.200    243
            0  0  1  1     1.200    244
            2  0  0  0     2.000    245
            1  1  0  0     2.000    246
            1  0  1  0     2.000    247
            0  2  0  0     2.000    248
            0  1  1  0     2.000    249
            0  0  2  0     2.000    250
            3  0  0  0     2.000    251
            2  1  0  0     2.000    252
            2  0  1  0     2.000    253
            1  2  0  0     2.000    254
            1  1  1  0     2.000    255
            1  0  2  0     2.000    256
            0  3  0  0     2.000    257
            0  2  1  0     2.000    258
            0  1  2  0     2.000    259
            0  0  3  0     2.000    260

 N                                   13   14   15
                                  ---------------------------------------------------------------------------
            0  0  0  0     8.740    261  291  321
            0  0  0  0     5.900    262  292  322
            0  0  0  1     5.150    263  293  323
            0  0  0  1     2.500    264  294  324
            0  0  0  1     1.500    265  295  325
            1  0  0  0     3.680    266  296  326
            0  1  0  0     3.680    267  297  327
            0  0  1  0     3.680    268  298  328
            1  0  0  0     1.880    269  299  329
            0  1  0  0     1.880    270  300  330
            0  0  1  0     1.880    271  301  331
            1  0  0  0     1.000    272  302  332
            0  1  0  0     1.000    273  303  333
            0  0  1  0     1.000    274  304  334
            2  0  0  0     2.200    275  305  335
            1  1  0  0     2.200    276  306  336
            1  0  1  0     2.200    277  307  337
            0  2  0  0     2.200    278  308  338
            0  1  1  0     2.200    279  309  339
            0  0  2  0     2.200    280  310  340
            3  0  0  0     3.300    281  311  341
            2  1  0  0     3.300    282  312  342
            2  0  1  0     3.300    283  313  343
            1  2  0  0     3.300    284  314  344
            1  1  1  0     3.300    285  315  345
            1  0  2  0     3.300    286  316  346
            0  3  0  0     3.300    287  317  347
            0  2  1  0     3.300    288  318  348
            0  1  2  0     3.300    289  319  349
            0  0  3  0     3.300    290  320  350

 Total number of charge fitting functions (nprimf)      1078
 Total number of Cartesian basis functions (naos)        350
 Total number of Cartesian core functions  (ncos)          0

 ***************************************************************************************************



                                              ***********************
                                              *  T E C H N I C A L  *
                                              ***********************
  



 =============================================================
 P A R A L L E L I Z A T I O N  and  V E C T O R I Z A T I O N
 =============================================================
  
 Nr of parallel processes:                                1
 Maximum vector length in NumInt loops:                 128



 =====================
 S C F   U P D A T E S
 =====================
  
 Max. nr. of cycles:                               200
 Convergence criterion:                              0.0000010000
   secondary criterion:                              0.0010000000

 Mix parameter (when DIIS does not apply):           0.2000000000
 Mixed ADIIS+SDIIS will be used                  
    Max number of expansion vectors:                10
    Pure ADIIS when Max([F,P]) is above              0.1000000000
    Pure SDIIS when Max([F,P]) is below              0.0010000000
 Automatic ElectronSmearing (in case of problematic SCF convergence) disabled



 =================
 P R E C I S I O N  ***  (General: NumInt, NeglectFunctionTails, ...)  ***
 =================
  

 NumInt:           Target precision:                 4.0000000000
 -------           Initial precision:                4.0000000000
                   Min. precision (optimization):    4.0000000000

 Neglect Functions:          Basis functions:        0.1000000000E-05
 ------------------          Fit functions:          0.1000000000E-05



 ===========================
 L I N E A R   S C A L I N G
 ===========================
  

 Cut-off radii density fit:                        0.1000000000E-07
 Overlap cut-off criterion AO matrix elements:     0.1000000000E-05
 Cut-offs for Coulomb potential and fitted density:0.1000000000E-07
 Cut-off criterion for Coulomb multipole terms:    0.1000000000E-07
 Progressive Convergence parameter:                 0.000000000    
 ***************************************************************************************************



                                            ***************************
                                            *  C O M P U T A T I O N  *
                                            ***************************
  

 Number of elements of the density matrix on this node (used, total):     61425     61425



 ===========================================
 Numerical Integration : Fuzzy Cells (Becke)
 ===========================================
  
 Becke grid quality: NORMAL         
  
 Lebedev angular grid order:             min:  11 max:  23
 Nr. of radial points:                   min:  46 max:  67

 Total nr. of points:     101332
 Nr. of blocks:              792
 Block length:               128
 Nr. of dummy points:         44


 Test of Precision of the Numerical Integration Grid
 ===================================================

 Integral of the Total Core Density:                   0.00000000000000



 ========================
 Density Fitting (zlmFit)
 ========================
  
 ZlmFit Fit Quality: NORMAL         
  
 Max L-expansion:                        min:   6 max:   7
 Nr. of radial interpolation points:     min:  39 max:  60



 =====
 S C F  ***  ScaSCF  ***
 =====
  
 Initial density matrix is calculated as sum of fragments

 CYCLE    1
 SCF Error: norm([F,P])=      6.689096123837, max([F,P])=      1.434557252053
 orbitals (Q,E):
 ---------------
 A :28...47          ( 2.00    -0.4893)  ( 2.00    -0.4871)  ( 2.00    -0.4658)  ( 2.00    -0.4530)
                     ( 2.00    -0.4492)  ( 2.00    -0.4426)  ( 2.00    -0.4115)  ( 2.00    -0.3531)
                     ( 2.00    -0.3220)  ( 2.00    -0.3205)  ( 0.00    -0.2484)  ( 0.00    -0.1665)
                     ( 0.00    -0.1504)  ( 0.00    -0.1414)  ( 0.00    -0.0997)  ( 0.00    -0.0687)
                     ( 0.00    -0.0379)  ( 0.00    -0.0283)  ( 0.00    -0.0179)  ( 0.00    -0.0129)

 CYCLE    2
   MIX coefficients:  0.8000  0.2000
 SCF Error: norm([F,P])=      1.324753009354, max([F,P])=      0.221290043662
 orbitals (Q,E):
 ---------------
 A :28...38          ( 2.00    -0.4277)  ( 2.00    -0.4214)  ( 2.00    -0.4179)  ( 2.00    -0.4022)
                     ( 2.00    -0.3954)  ( 2.00    -0.3902)  ( 2.00    -0.3538)  ( 2.00    -0.3392)
                     ( 2.00    -0.3197)  ( 2.00    -0.3165)  ( 0.00    -0.2407)

 CYCLE    3
  SDIIS (wt  0.000): -0.3670  1.3670
 A-DIIS (wt  1.000):  0.0000  1.0000
  DIIS coefficients:  0.0000  1.0000
 SCF Error: norm([F,P])=      0.608198358373, max([F,P])=      0.103577684475
 orbitals (Q,E):
 ---------------
 A :28...38          ( 2.00    -0.3104)  ( 2.00    -0.3038)  ( 2.00    -0.2845)  ( 2.00    -0.2721)
                     ( 2.00    -0.2598)  ( 2.00    -0.2542)  ( 2.00    -0.2482)  ( 2.00    -0.2383)
                     ( 2.00    -0.2304)  ( 2.00    -0.2054)  ( 0.00    -0.1757)

 CYCLE    4
  SDIIS (wt  0.000):  0.0388  0.5441  0.4171
 A-DIIS (wt  1.000):  0.0000  0.6550  0.3450
  DIIS coefficients:  0.0000  0.6550  0.3450
 SCF Error: norm([F,P])=      0.884136834450, max([F,P])=      0.186895540122
 orbitals (Q,E):
 ---------------
 A :28...38          ( 2.00    -0.3519)  ( 2.00    -0.3391)  ( 2.00    -0.3203)  ( 2.00    -0.3173)
                     ( 2.00    -0.3051)  ( 2.00    -0.2982)  ( 2.00    -0.2859)  ( 2.00    -0.2768)
                     ( 2.00    -0.2562)  ( 2.00    -0.2522)  ( 0.00    -0.1891)

 CYCLE    5
  SDIIS (wt  0.773):  0.0021  0.3075  0.1742  0.5162
 A-DIIS (wt  0.227):  0.0000  0.0000  0.0000  1.0000
  DIIS coefficients:  0.0016  0.2378  0.1347  0.6258
 SCF Error: norm([F,P])=      0.162729655419, max([F,P])=      0.023427421784
 orbitals (Q,E):
 ---------------
 A :28...38          ( 2.00    -0.3715)  ( 2.00    -0.3626)  ( 2.00    -0.3448)  ( 2.00    -0.3376)
                     ( 2.00    -0.3242)  ( 2.00    -0.3204)  ( 2.00    -0.2999)  ( 2.00    -0.2824)
                     ( 2.00    -0.2791)  ( 2.00    -0.2734)  ( 0.00    -0.2051)

 CYCLE    6
  SDIIS (wt  0.773):  0.0059  0.1240  0.0647  0.4162  0.3892
 A-DIIS (wt  0.227):  0.0000  0.0000  0.0000  0.3774  0.6226
  DIIS coefficients:  0.0045  0.0959  0.0500  0.4074  0.4421
 SCF Error: norm([F,P])=      0.120456823806, max([F,P])=      0.037624718312
 orbitals (Q,E):
 ---------------
 A :28...38          ( 2.00    -0.3685)  ( 2.00    -0.3583)  ( 2.00    -0.3408)  ( 2.00    -0.3357)
                     ( 2.00    -0.3218)  ( 2.00    -0.3164)  ( 2.00    -0.2939)  ( 2.00    -0.2870)
                     ( 2.00    -0.2679)  ( 2.00    -0.2642)  ( 0.00    -0.2041)

 CYCLE    7
  SDIIS (wt  0.773):  0.0034  0.0539  0.0241  0.2844  0.3834  0.2508
 A-DIIS (wt  0.227):  0.0000  0.0000  0.0000  0.0000  0.4252  0.5748
  DIIS coefficients:  0.0026  0.0417  0.0186  0.2200  0.3929  0.3242
 SCF Error: norm([F,P])=      0.090047779587, max([F,P])=      0.047331349570
 orbitals (Q,E):
 ---------------
 A :28...38          ( 2.00    -0.3647)  ( 2.00    -0.3540)  ( 2.00    -0.3354)  ( 2.00    -0.3320)
                     ( 2.00    -0.3177)  ( 2.00    -0.3130)  ( 2.00    -0.2932)  ( 2.00    -0.2855)
                     ( 2.00    -0.2722)  ( 2.00    -0.2683)  ( 0.00    -0.2006)

 CYCLE    8
  SDIIS (wt  0.858):  0.0012  0.0251  0.0119  0.1449  0.2561  0.2632  0.2976
 A-DIIS (wt  0.142):  0.0000  0.0000  0.0000  0.0000  0.0000  0.2197  0.7803
  DIIS coefficients:  0.0010  0.0216  0.0102  0.1244  0.2198  0.2570  0.3660
 SCF Error: norm([F,P])=      0.038531085854, max([F,P])=      0.015031452996
 orbitals (Q,E):
 ---------------
 A :28...38          ( 2.00    -0.3666)  ( 2.00    -0.3568)  ( 2.00    -0.3381)  ( 2.00    -0.3323)
                     ( 2.00    -0.3187)  ( 2.00    -0.3140)  ( 2.00    -0.2930)  ( 2.00    -0.2843)
                     ( 2.00    -0.2706)  ( 2.00    -0.2668)  ( 0.00    -0.2013)

 CYCLE    9
  SDIIS (wt  0.964): -0.0003  0.0114  0.0046  0.0701  0.1462  0.1920  0.3083  0.2676
 A-DIIS (wt  0.036):  0.0000  0.0000  0.0000  0.0000  0.0000  0.0000  0.1599  0.8401
  DIIS coefficients: -0.0003  0.0110  0.0044  0.0676  0.1409  0.1851  0.3030  0.2882
 SCF Error: norm([F,P])=      0.016917792116, max([F,P])=      0.004551553692
 orbitals (Q,E):
 ---------------
 A :28...38          ( 2.00    -0.3663)  ( 2.00    -0.3559)  ( 2.00    -0.3376)  ( 2.00    -0.3331)
                     ( 2.00    -0.3189)  ( 2.00    -0.3142)  ( 2.00    -0.2931)  ( 2.00    -0.2845)
                     ( 2.00    -0.2709)  ( 2.00    -0.2670)  ( 0.00    -0.2013)

 CYCLE   10
  SDIIS (wt  0.996): -0.0009  0.0035  0.0006  0.0181  0.0462  0.0770  0.1554  0.2360  0.4642
 A-DIIS (wt  0.004):  0.0000  0.0000  0.0000  0.0000  0.0000  0.0000  0.0000  0.0819  0.9181
  DIIS coefficients: -0.0009  0.0035  0.0006  0.0181  0.0460  0.0767  0.1548  0.2354  0.4659
 SCF Error: norm([F,P])=      0.004309069427, max([F,P])=      0.001354019363
 orbitals (Q,E):
 ---------------
 A :28...38          ( 2.00    -0.3663)  ( 2.00    -0.3561)  ( 2.00    -0.3377)  ( 2.00    -0.3330)
                     ( 2.00    -0.3189)  ( 2.00    -0.3142)  ( 2.00    -0.2932)  ( 2.00    -0.2847)
                     ( 2.00    -0.2710)  ( 2.00    -0.2671)  ( 0.00    -0.2014)

 CYCLE   11
  SDIIS (wt  1.000): -0.0004  0.0009 -0.0000  0.0029  0.0086  0.0173  0.0408  0.0779  0.1991  0.6529
  DIIS coefficients: -0.0004  0.0009 -0.0000  0.0029  0.0086  0.0173  0.0408  0.0779  0.1991  0.6529
 SCF Error: norm([F,P])=      0.000478935567, max([F,P])=      0.000094717372
 orbitals (Q,E):
 ---------------
 A :28...38          ( 2.00    -0.3663)  ( 2.00    -0.3561)  ( 2.00    -0.3377)  ( 2.00    -0.3330)
                     ( 2.00    -0.3189)  ( 2.00    -0.3142)  ( 2.00    -0.2932)  ( 2.00    -0.2846)
                     ( 2.00    -0.2710)  ( 2.00    -0.2671)  ( 0.00    -0.2014)

 CYCLE   12
  SDIIS (wt  1.000): -0.0000 -0.0000 -0.0002 -0.0001 -0.0005  0.0021  0.0055  0.0299  0.2668  0.6965
  DIIS coefficients: -0.0000 -0.0000 -0.0002 -0.0001 -0.0005  0.0021  0.0055  0.0299  0.2668  0.6965
 SCF Error: norm([F,P])=      0.000196587887, max([F,P])=      0.000062277089
 orbitals (Q,E):
 ---------------
 A :28...38          ( 2.00    -0.3663)  ( 2.00    -0.3561)  ( 2.00    -0.3377)  ( 2.00    -0.3330)
                     ( 2.00    -0.3189)  ( 2.00    -0.3142)  ( 2.00    -0.2932)  ( 2.00    -0.2847)
                     ( 2.00    -0.2710)  ( 2.00    -0.2671)  ( 0.00    -0.2014)

 CYCLE   13
  SDIIS (wt  1.000): -0.0000  0.0000  0.0007  0.0013  0.0053  0.0104  0.0341  0.1837  0.4169  0.3475
  DIIS coefficients: -0.0000  0.0000  0.0007  0.0013  0.0053  0.0104  0.0341  0.1837  0.4169  0.3475
 SCF Error: norm([F,P])=      0.000145566434, max([F,P])=      0.000044037906
 orbitals (Q,E):
 ---------------
 A :28...38          ( 2.00    -0.3663)  ( 2.00    -0.3561)  ( 2.00    -0.3377)  ( 2.00    -0.3330)
                     ( 2.00    -0.3189)  ( 2.00    -0.3142)  ( 2.00    -0.2932)  ( 2.00    -0.2847)
                     ( 2.00    -0.2710)  ( 2.00    -0.2671)  ( 0.00    -0.2014)

 CYCLE   14
  SDIIS (wt  1.000): -0.0000  0.0002  0.0002  0.0014  0.0023  0.0092  0.0557  0.1421  0.1556  0.6334
  DIIS coefficients: -0.0000  0.0002  0.0002  0.0014  0.0023  0.0092  0.0557  0.1421  0.1556  0.6334
 SCF Error: norm([F,P])=      0.000030285503, max([F,P])=      0.000013058198
 orbitals (Q,E):
 ---------------
 A :28...38          ( 2.00    -0.3663)  ( 2.00    -0.3561)  ( 2.00    -0.3377)  ( 2.00    -0.3330)
                     ( 2.00    -0.3189)  ( 2.00    -0.3142)  ( 2.00    -0.2932)  ( 2.00    -0.2847)
                     ( 2.00    -0.2710)  ( 2.00    -0.2671)  ( 0.00    -0.2014)

 CYCLE   15
  SDIIS (wt  1.000):  0.0001 -0.0000  0.0004  0.0005  0.0027  0.0180  0.0509  0.0592  0.3306  0.5377
  DIIS coefficients:  0.0001 -0.0000  0.0004  0.0005  0.0027  0.0180  0.0509  0.0592  0.3306  0.5377
 SCF Error: norm([F,P])=      0.000004467138, max([F,P])=      0.000000880644
 orbitals (Q,E):
 ---------------
 A :28...38          ( 2.00    -0.3663)  ( 2.00    -0.3561)  ( 2.00    -0.3377)  ( 2.00    -0.3330)
                     ( 2.00    -0.3189)  ( 2.00    -0.3142)  ( 2.00    -0.2932)  ( 2.00    -0.2847)
                     ( 2.00    -0.2710)  ( 2.00    -0.2671)  ( 0.00    -0.2014)

 SCF CONVERGED

 CYCLE   16
 ***************************************************************************************************



                                                *******************
                                                *  R E S U L T S  *
                                                *******************
  
 *** Using FIT density in Focky
  SDIIS (wt  1.000): -0.0000 -0.0000 -0.0000  0.0002  0.0011  0.0039  0.0057  0.0673  0.2227  0.6993
  DIIS coefficients: -0.0000 -0.0000 -0.0000  0.0002  0.0011  0.0039  0.0057  0.0673  0.2227  0.6993
 SCF Error: norm([F,P])=      0.000001350651, max([F,P])=      0.000000458540

 Scaled ZORA Orbital Energies, per Irrep and Spin:
 =================================================
                        Occup              E (au)              E (eV)       Diff (eV) with prev. cycle
                        -----      --------------------        ------       --------------------------
 A
              28        2.000     -0.36633887511760E+00        -9.969               1.21E-06
              29        2.000     -0.35608129318778E+00        -9.689               1.90E-06
              30        2.000     -0.33767173209595E+00        -9.189               2.18E-06
              31        2.000     -0.33296797795899E+00        -9.061              -1.26E-06
              32        2.000     -0.31888230470888E+00        -8.677              -7.47E-07
              33        2.000     -0.31416320340959E+00        -8.549              -4.86E-07
              34        2.000     -0.29318985721446E+00        -7.978               1.51E-06
              35        2.000     -0.28465389895556E+00        -7.746               5.89E-07
              36        2.000     -0.27098016828461E+00        -7.374               2.53E-06
              37        2.000     -0.26711358787072E+00        -7.269               2.52E-06
              38        0.000     -0.20142127211667E+00        -5.481
              39        0.000     -0.70170377298875E-01        -1.909
              40        0.000     -0.47091930563396E-01        -1.281
              41        0.000     -0.39258784079083E-01        -1.068
              42        0.000     -0.31545848353529E-01        -0.858
              43        0.000     -0.21347709235593E-01        -0.581
              44        0.000      0.29699035804839E-02         0.081
              45        0.000      0.12307331777088E-01         0.335
              46        0.000      0.29916330870881E-01         0.814
              47        0.000      0.42179141841542E-01         1.148
  
 HOMO :       37 A                -0.26711358787072E+00
 LUMO :       38 A                -0.20142127211667E+00
  


 All Electron Calculation, thus no Orbital Energies of the Core Orbitals are calculated


 Fit test: (difference of exact and fit density, squared integrated, result summed over spins)
         Sum-of-Fragments:                             0.00000000098255
         Orthogonalized Fragments:                     0.00013095367585
         SCF:                                          0.00025167130038



 ==========================
 Electron Density at Nuclei
 ==========================
  
 The electron density is calculated at points on a small sphere around the center of a nucleus.
 The printed electron density is the average electron density on these points.
 The radius of the sphere is the printed approximate finite nuclear radius.
[...]
                                    1.89%     1 P:z            -7.062  1.00    15 N
                                    1.88%     1 P:y            -5.239  0.67     1 C
                                    1.85%     1 P:y            -7.062  1.00    15 N
                                    1.64%     2 P:z             4.589  0.00     2 C
                                   -1.57%     3 S              14.073  0.00    14 N
                                    1.44%     1 P:x            -7.062  1.00    15 N
                                    1.41%     1 P:z            -5.239  0.67     5 C
                                    1.39%     2 P:y             4.589  0.00     1 C
                                   -1.37%     3 S              10.158  0.00     4 C
                                    1.26%     1 P:z            -5.239  0.67     4 C
                                    1.22%     2 S             -13.620  2.00     1 C
                                    1.15%     1 P:y            -5.239  0.67     5 C
                                    1.13%     2 S             -13.620  2.00     4 C
      -1.281  0.00    40 A         20.07%     1 P:y            -7.062  1.00    15 N
                                   17.16%     1 P:y            -5.239  0.67     5 C
                                    8.67%     1 P:x            -7.062  1.00    15 N
                                    8.53%     1 S              -6.532  1.00     6 H
                                    8.16%     1 P:x            -5.239  0.67     5 C
                                    6.79%     2 S               2.394  0.00     8 H
                                    6.39%     1 S              -6.532  1.00     8 H
                                    5.80%     2 S               2.394  0.00     9 H
                                    5.27%     2 S               2.394  0.00     6 H
                                    3.62%     1 S              -6.532  1.00     9 H
                                    3.55%     1 P:y            -5.239  0.67     2 C
                                   -3.33%     3 S              10.158  0.00     1 C
                                   -2.31%     2 P:y             7.649  0.00    15 N
                                    1.97%     2 P:z             4.589  0.00     1 C
                                    1.85%     2 S             -13.620  2.00     5 C
                                    1.63%     2 S             -13.620  2.00     1 C
                                    1.35%     2 P:x             4.589  0.00     2 C
                                   -1.30%     3 S              10.158  0.00     2 C
                                    1.13%     2 S               2.394  0.00    11 H
                                    1.13%     1 P:z            -5.239  0.67     4 C
                                   -1.06%     2 P:x             4.589  0.00     4 C
      -1.068  0.00    41 A         11.26%     1 P:y            -7.062  1.00    15 N
                                   11.06%     1 P:y            -5.239  0.67     5 C
                                    9.51%     1 S              -6.532  1.00     8 H
                                    9.13%     2 S               2.394  0.00     8 H
                                    7.24%     1 P:y            -5.239  0.67     2 C
                                    6.88%     1 P:z            -7.062  1.00    15 N
                                    6.13%     1 P:y            -7.062  1.00    13 N
                                    6.10%     1 P:y            -5.239  0.67     3 C
                                    5.55%     1 P:z            -5.239  0.67     5 C
                                    4.61%     1 P:y            -5.239  0.67     1 C
                                    4.30%     2 S               2.394  0.00     9 H
                                    3.40%     1 S              -6.532  1.00    10 H
                                    3.18%     2 S             -13.620  2.00     1 C
                                    3.15%     1 P:z            -7.062  1.00    13 N
                                    3.00%     1 P:z            -5.239  0.67     3 C
                                   -2.90%     3 S              10.158  0.00     4 C
                                    2.50%     1 S              -6.532  1.00     9 H
                                   -2.11%     2 P:z             4.589  0.00     1 C
                                    2.06%     1 S              -6.532  1.00     7 H
                                    2.05%     2 S               2.394  0.00     7 H
                                    2.00%     2 S               2.394  0.00    10 H
                                    1.95%     1 P:x            -5.239  0.67     5 C
                                   -1.73%     3 S              10.158  0.00     2 C
                                    1.59%     1 P:x            -7.062  1.00    15 N
                                   -1.59%     2 P:y             4.589  0.00     1 C
                                   -1.32%     2 P:z             7.649  0.00    14 N
                                    1.26%     2 S             -13.620  2.00     4 C
                                   -1.18%     1 S              -6.532  1.00    11 H
                                   -1.17%     2 S               2.394  0.00    11 H
                                    1.06%     2 S             -13.620  2.00     2 C
      -0.858  0.00    42 A         24.32%     1 S              -6.532  1.00     8 H
                                   21.36%     2 S               2.394  0.00     8 H
                                   16.37%     1 P:x            -7.062  1.00    15 N
                                   15.86%     1 P:x            -5.239  0.67     5 C
                                    7.99%     1 S              -6.532  1.00     6 H
                                    5.16%     2 S               2.394  0.00     7 H
                                    4.87%     1 P:z            -5.239  0.67     5 C
                                    4.24%     1 P:z            -7.062  1.00    15 N
                                   -4.20%     2 P:y             4.589  0.00     1 C
                                    3.55%     1 S              -6.532  1.00     7 H
                                   -2.32%     2 P:y             7.649  0.00    14 N
                                    2.23%     1 P:x            -5.239  0.67     3 C
                                   -1.86%     2 P:y             4.589  0.00     2 C
                                   -1.77%     2 S               2.394  0.00     6 H
                                    1.72%     1 P:x            -7.062  1.00    13 N
                                   -1.40%     2 P:x             7.649  0.00    15 N
                                   -1.36%     2 P:x             4.589  0.00     5 C
                                   -1.34%     2 P:x             7.649  0.00    14 N
                                    1.19%     2 P:y             4.589  0.00     4 C
                                    1.16%     2 P:y             4.589  0.00     3 C
                                    1.09%     1 P:x            11.051  0.00     8 H
                                    1.08%     1 S              -6.532  1.00    10 H
                                   -1.05%     1 P:y            -5.239  0.67     1 C
      -0.581  0.00    43 A         37.78%     1 P:x            -5.239  0.67     3 C
                                   26.44%     1 P:x            -7.062  1.00    13 N
                                   12.55%     1 S              -6.532  1.00     7 H
                                    6.95%     1 S              -6.532  1.00     6 H
                                    6.44%     2 S               2.394  0.00     6 H
                                    5.61%     2 S               2.394  0.00     7 H
                                   -3.92%     2 P:x             4.589  0.00     2 C
                                   -3.90%     2 P:x             7.649  0.00    13 N
                                    3.30%     1 S              -6.532  1.00    11 H
                                    3.02%     2 S               2.394  0.00    11 H
                                    2.89%     1 P:x            -5.239  0.67     1 C
                                   -2.83%     2 P:x             7.649  0.00    14 N
                                   -2.77%     2 P:x             4.589  0.00     3 C
                                   -2.36%     2 S               2.394  0.00     8 H
                                    2.11%     1 P:x            -5.239  0.67     5 C
                                    1.63%     1 P:x            -7.062  1.00    15 N
                                    1.46%     1 P:z            -5.239  0.67     5 C
                                    1.22%     1 P:x            -7.062  1.00    14 N
                                   -1.15%     4 S               5.292  0.00    12 Cl
                                    1.08%     1 S              -6.532  1.00     8 H
                                    1.06%     1 P:z            -7.062  1.00    15 N



 =======================================================================
 Electrostatic potential at the Nuclei due to electrons and other nuclei
 =======================================================================
  
         Atom                  Potential
         ----                  ---------
     1)   C                  14.59732629
     2)   H                   1.03544658
     3)   Cl                 64.87503760
     4)   C                  14.68776071
     5)   C                  14.71647990
     6)   N                  18.39237366
     7)   N                  18.35743210
     8)   H                   0.98282145
     9)   H                   0.97969002
    10)   C                  14.75177493
    11)   H                   1.08030342
    12)   H                   1.08235988
    13)   H                   1.07783553
    14)   C                  14.74161034
    15)   N                  18.41649379
 Mulliken charges used for AMS results%charges...


    =====================
     CALCULATION RESULTS
    =====================

Energy (hartree)            -3.19985225


--------------
Atomic charges
--------------
  Index   Atom    Charge
      1      C    0.2081
      2      H   -0.0501
      3     Cl   -0.2719
      4      C    0.1846
      5      C    0.1461
      6      N   -0.1886
      7      N    0.0212
      8      H   -0.0097
      9      H   -0.0405
     10      C    0.7267
     11      H   -0.1993
     12      H   -0.1700
     13      H   -0.2073
     14      C    0.0829
     15      N   -0.2321


Dipole moment vector    (Debye):    -1.52413473   -0.67591273    5.39232511
              magnitude (Debye):     5.64420187


-----------------------
Molecular orbitals info
-----------------------
n orbitals:              308
n spin:                    1

Note: only printing virtual orbitals with
      energy smaller than HOMO + 100. eV

HOMO (eV):              -7.2685
LUMO (eV):              -5.4810
HOMO-LUMO gap (eV):      1.7876

   Index   Energy (eV)    Occupation
     198       92.6956         0.000       
     197       92.0860         0.000       
     196       91.2246         0.000       
     195       89.0669         0.000       
     194       88.8812         0.000       
     193       86.9908         0.000       
     192       84.9688         0.000       
     191       84.0784         0.000       
     190       83.6145         0.000       
     189       83.1367         0.000       
     188       82.1807         0.000       
     187       81.8220         0.000       
     186       81.0588         0.000       
     185       80.0588         0.000       
     184       79.4012         0.000       
     183       78.8522         0.000       
     182       77.6800         0.000       
     181       76.8336         0.000       
     180       76.3487         0.000       
     179       74.9775         0.000       
     178       73.6364         0.000       
     177       73.2499         0.000       
     176       72.4142         0.000       
     175       71.6431         0.000       
     174       70.8842         0.000       
     173       70.1815         0.000       
     172       69.4130         0.000       
     171       69.1938         0.000       
     170       67.2365         0.000       
     169       66.6702         0.000       
     168       65.8060         0.000       
     167       64.6769         0.000       
     166       64.1020         0.000       
     165       63.6897         0.000       
     164       62.8810         0.000       
     163       62.3600         0.000       
     162       61.4741         0.000       
     161       61.3246         0.000       
     160       59.9653         0.000       
     159       59.7917         0.000       
     158       59.6558         0.000       
     157       58.6265         0.000       
     156       58.1165         0.000       
     155       56.1387         0.000       
     154       55.7658         0.000       
     153       55.2467         0.000       
     152       54.9168         0.000       
     151       54.6523         0.000       
     150       51.2768         0.000       
     149       50.3656         0.000       
     148       49.6470         0.000       
     147       49.3944         0.000       
     146       48.7521         0.000       
     145       48.2207         0.000       
     144       47.7652         0.000       
     143       46.0496         0.000       
     142       45.7587         0.000       
     141       45.0944         0.000       
     140       44.6804         0.000       
     139       44.2673         0.000       
     138       43.5816         0.000       
     137       42.9375         0.000       
     136       42.6168         0.000       
     135       41.6143         0.000       
     134       40.4177         0.000       
     133       39.8802         0.000       
     132       38.9576         0.000       
     131       38.5544         0.000       
     130       37.7867         0.000       
     129       37.5689         0.000       
     128       37.2799         0.000       
     127       37.0857         0.000       
     126       36.7568         0.000       
     125       36.3556         0.000       
     124       35.7956         0.000       
     123       35.7482         0.000       
     122       35.0842         0.000       
     121       34.5922         0.000       
     120       33.8853         0.000       
     119       33.2858         0.000       
     118       32.9701         0.000       
     117       32.2852         0.000       
     116       32.1309         0.000       
     115       31.7287         0.000       
     114       31.2544         0.000       
     113       30.8473         0.000       
     112       30.1052         0.000       
     111       29.8501         0.000       
     110       29.0972         0.000       
     109       28.8212         0.000       
     108       28.3292         0.000       
     107       28.1610         0.000       
     106       27.9417         0.000       
     105       26.8497         0.000       
     104       26.5876         0.000       
     103       25.9064         0.000       
     102       25.7398         0.000       
     101       25.1834         0.000       
     100       24.3646         0.000       
      99       23.7834         0.000       
      98       22.6980         0.000       
      97       22.5682         0.000       
      96       20.8682         0.000       
      95       20.1071         0.000       
      94       19.8112         0.000       
      93       19.0431         0.000       
      92       18.5588         0.000       
      91       17.9028         0.000       
      90       17.1868         0.000       
      89       16.6110         0.000       
      88       16.4063         0.000       
      87       14.8199         0.000       
      86       14.3751         0.000       
      85       13.1805         0.000       
      84       13.0881         0.000       
      83       12.9837         0.000       
      82       12.3977         0.000       
      81       12.2038         0.000       
      80       12.0126         0.000       
      79       11.5765         0.000       
      78       11.1082         0.000       
      77       10.9542         0.000       
      76       10.6624         0.000       
      75       10.2141         0.000       
      74        9.9780         0.000       
      73        9.8169         0.000       
      72        9.4499         0.000       
      71        9.3338         0.000       
      70        8.4933         0.000       
      69        8.2687         0.000       
      68        8.0686         0.000       
      67        7.7880         0.000       
      66        7.5381         0.000       
      65        7.1948         0.000       
      64        7.0950         0.000       
      63        6.5115         0.000       
      62        6.4224         0.000       
      61        5.9273         0.000       
      60        5.7140         0.000       
      59        5.3976         0.000       
      58        5.0198         0.000       
      57        4.7975         0.000       
      56        4.4152         0.000       
      55        4.1908         0.000       
      54        4.0284         0.000       
      53        3.6039         0.000       
      52        3.2491         0.000       
      51        2.7717         0.000       
      50        2.2268         0.000       
      49        1.5171         0.000       
      48        1.3557         0.000       
      47        1.1478         0.000       
      46        0.8141         0.000       
      45        0.3349         0.000       
      44        0.0808         0.000       
      43       -0.5809         0.000       
      42       -0.8584         0.000       
      41       -1.0683         0.000       
      40       -1.2814         0.000       
      39       -1.9094         0.000       
      38       -5.4810         0.000 < LUMO
      37       -7.2685         2.000 < HOMO
      36       -7.3737         2.000       
      35       -7.7458         2.000       
      34       -7.9781         2.000       
      33       -8.5488         2.000       
      32       -8.6772         2.000       
      31       -9.0605         2.000       
      30       -9.1885         2.000       
      29       -9.6895         2.000       
      28       -9.9686         2.000       
      27      -10.4412         2.000       
      26      -10.5563         2.000       
      25      -11.3272         2.000       
      24      -12.9768         2.000       
      23      -13.4789         2.000       
      22      -14.2152         2.000       
      21      -15.1814         2.000       
      20      -16.9818         2.000       
      19      -18.8159         2.000       
      18      -19.7713         2.000       
      17      -21.3611         2.000       
      16      -22.9172         2.000       
      15      -23.2765         2.000       
      14      -24.6666         2.000       
      13     -189.9472         2.000       
      12     -189.9535         2.000       
      11     -190.2062         2.000       
      10     -250.9795         2.000       
       9     -270.9341         2.000       
       8     -271.6301         2.000       
       7     -272.2839         2.000       
       6     -272.6353         2.000       
       5     -275.2218         2.000       
       4     -382.1436         2.000       
       3     -382.8298         2.000       
       2     -383.1839         2.000       
       1    -2750.2499         2.000       

AMS application finished. Exiting.
NORMAL TERMINATION
     Total cpu time:      56.54
  Total system time:       0.42
 Total elapsed time:      57.13
NORMAL TERMINATION
