
 *******************************************************************************
 *                                                                             *
 *  --------------------------------                                           *
 *   Amsterdam Modeling Suite (AMS)              2026.103                      *
 *  --------------------------------                                           *
 *                                               r260501 2026-05-01 873454b5   *
 *                                                                             *
 *                                                                             *
 *                              =================                              *
 *                              |               |                              *
 *                              |     A M S     |                              *
 *                              |               |                              *
 *                              =================                              *
 *                                                                             *
 *                                                                             *
 *   Online information and documentation:  https://www.scm.com/support/       *
 *   E-mail:  support@scm.com   info@scm.com                                   *
 *                                                                             *
 *   Scientific publications using AMS results must be properly referenced     *
 *   See the User Manuals (or the web site) for recommended citations          *
 *   The terms and conditions of the End User License Agreement apply to       *
 *   the use of AMS, https://www.scm.com/license-terms/                        *
 *                                                                             *
 **********************  x86_64_linux_intel / intelmpi  ************************
 
 Licensed to: Jong-June Jeon / University of Seoul 2026-06-02 13:44:15
 SCM User ID: u30731
  
 AMS 2026.103  RunTime: Jun03-2026 22:24:40  ShM Nodes: 1  Procs: 1

 AMS jobname: c3_eda
 AMS jobid  : 636623893

 Start   directory: /gpfs/home1/yeseo1ee/projects/eda-asm-prediction/ADF_800/adf_outputs/batch_005/qmrxn20_sn2_A_A_C_A_A_D/
 Results directory: /gpfs/home1/yeseo1ee/projects/eda-asm-prediction/ADF_800/adf_outputs/batch_005/qmrxn20_sn2_A_A_C_A_A_D/c3_eda.results/
 Scratch directory: /tmp/amstmp_c3_eda_kid0.636623893/

 RNG seed: 1360462847 -1444755914 -2102790137 -1730874206 -1113114099 989308077 1400793764 -600001347



                      ************************************************************************
                      *  ADF 2026.103  RunTime: Jun03-2026 22:24:40  ShM Nodes: 1  Procs: 1  *
                      ************************************************************************
  

       ****************************
       * SINGLE POINT CALCULATION *
       ****************************

--------
Geometry
--------
Formula: C3H4BrFN
Atoms
  Index Symbol   x (angstrom)   y (angstrom)   z (angstrom)
      1      F    -1.22833386    -0.15026719    -0.76084233 adf.f=fA
      2      C     0.67791252    -0.02066778    -0.03309026 adf.f=fB
      3      H     1.30895224     1.98464293    -0.50852596 adf.f=fB
      4     Br     2.80559356    -0.22911919     0.70965794 adf.f=fB
      5      C     0.49606723     1.47726203     0.01541529 adf.f=fB
      6      H     0.85615986    -0.46539645    -0.99206404 adf.f=fB
      7      H     0.22973701    -0.62468107     0.73108480 adf.f=fB
      8      H    -0.45501073     1.63763776    -0.49574201 adf.f=fB
      9      C     0.42027139     2.02569081     1.36638405 adf.f=fB
     10      N     0.32212077     2.50837814     2.43195251 adf.f=fB

Total System Charge             -1.00000


----------------
ADF Engine Input
----------------
 
   Basis
     Type TZ2P
     Core None
   End
   XC
     GGA BLYP
     Dispersion GRIMME3 BJDAMP
   End
   Symmetry NOSYM
   NumericalQuality Normal
   Unrestricted No
   SCF
     Iterations 200
     Converge 1.0e-6
   End
   fragments
     fA c1_fragA_ts.results/adf.rkf
     fB c2_fragB_ts.results/adf.rkf
   end
   etsnocv
     enocv 0.05
     ekmin 0.5
   end
   print etslowdin
   Save TAPE21
 

 Title: *** (NO TITLE) ***

 *** adf ***



 ===========================
 A T T A C H E D   F I L E S
 ===========================
  



 ===============================
 M O D E L   P A R A M E T E R S
 ===============================
  
 DENSITY FUNCTIONAL POTENTIAL (scf)
    LDA:                               Exchange only                           == Not Default ==
    Gradient Corrections:              Becke88 LYP                             == Not Default ==

 SPIN  (restricted / unrestr.)
    Molecule:                          Restricted                               
    Fragments:                         Restricted                               

 OTHER ASPECTS
    Relativistic Corrections:          scalar (ZORA,MAPA)                       

    Nuclear Charge Density Model:      Point Charge Nuclei                      
    Core Treatment:                    Frozen Orbital(s)                        

    Hyperfine or Zeeman Interaction:   ---                                      

 Settings for Grimme D3 dispersion correction

      damping                        BJ
      s6                          1.000
      s8                          2.700
      a1                          0.430
      a2                          4.236

 Other (technical) parameters

      alpha                      14.000
      version                         4
 


 Fragment File(s)
 ----------------
 fA:
         file : c1_fragA_ts.results/adf.rkf
         jobid: 1558630649
         title: *** adf ***
 fB:
         file : c2_fragB_ts.results/adf.rkf
         jobid: 251063383
         title: *** adf ***



 ===============
 G E O M E T R Y  ***  3D  Molecule  ***
 ===============
  

 ATOMS
 =====                            X Y Z                    CHARGE
                                (Angstrom)             Nucl     +Core       At.Mass
                       --------------------------    ----------------       -------
    1  F              -1.2283   -0.1503   -0.7608      9.00      9.00       18.9984
    2  C               0.6779   -0.0207   -0.0331      6.00      6.00       12.0000
    3  H               1.3090    1.9846   -0.5085      1.00      1.00        1.0078
    4  Br              2.8056   -0.2291    0.7097     35.00     35.00       78.9183
    5  C               0.4961    1.4773    0.0154      6.00      6.00       12.0000
    6  H               0.8562   -0.4654   -0.9921      1.00      1.00        1.0078
    7  H               0.2297   -0.6247    0.7311      1.00      1.00        1.0078
    8  H              -0.4550    1.6376   -0.4957      1.00      1.00        1.0078
    9  C               0.4203    2.0257    1.3664      6.00      6.00       12.0000
   10  N               0.3221    2.5084    2.4320      7.00      7.00       14.0031


 FRAGMENTS
 =========                                     Atoms in this Fragment     Cart. coord.s (Angstrom)
                                               -------------------------------------------------------
    1  fA                                                1  F           -1.2283   -0.1503   -0.7608
    2  fB                                                2  C            0.6779   -0.0207   -0.0331
                                                         5  C            0.4961    1.4773    0.0154
                                                         9  C            0.4203    2.0257    1.3664
                                                         3  H            1.3090    1.9846   -0.5085
                                                         6  H            0.8562   -0.4654   -0.9921
                                                         7  H            0.2297   -0.6247    0.7311
                                                         8  H           -0.4550    1.6376   -0.4957
                                                         4  Br           2.8056   -0.2291    0.7097
                                                        10  N            0.3221    2.5084    2.4320


 Interatomic Distance Matrix (Angstrom)
 --------------------------------------

   1)     0.000
   2)     2.045   0.000
   3)     3.326   2.155   0.000
   4)     4.294   2.263   2.937   0.000
   5)     2.495   1.510   1.092   2.954   0.000
   6)     2.121   1.072   2.538   2.598   2.218   0.000
   7)     2.139   1.072   3.084   2.606   2.236   1.840   0.000
   8)     1.966   2.061   1.798   3.946   1.092   2.528   2.663   0.000
   9)     3.461   2.492   2.075   3.347   1.460   3.458   2.732   2.094   0.000
  10)     4.435   3.550   3.146   4.078   2.633   4.566   3.566   3.152   1.174   0.000

 Min. Distance =    1.0720
 Max. Distance =    4.5664



 =====================================
 S Y M M E T R Y ,   E L E C T R O N S
 =====================================
  
 Symmetry: NOSYM

 Irreducible Representations, including subspecies
 -------------------------------------------------
 A


 Configuration of Valence Electrons
 ==================================
 ( determined in the SCF procedure )

 Total:   74

 Net Charge: -1 (Nuclei minus Electrons)

 Aufbau principle for MO occupations will be applied through SCF cycle no.     100
 Thereafter, the program will assign electrons to MOs that are spatially
 similar to the occupied MOs in a "reference" cycle ("KeepOrbitals").
 The reference cycle is always the PREVIOUS cycle: it will evolve with
 the SCF procedure.
 ***************************************************************************************************



                                      ****************************************
                                      *  B U I L D : (Fragments, Functions)  *
                                      ****************************************
  

 The individual fragments are copies of the corresponding 'Master' fragments defined on the fragment files.
 However, they may have been rotated (and translated) with respect to the Master. The local coordinate axes
 of each fragment (which define for instance the spatial orientation in the current molecule of a fragment
 P:x orbital) are not necessarily those of the molecule.
 The local frame (if different from the molecular one) is printed to enable an interpretation of the expan-
 sion of an MO in Fragment Orbitals.



                                              ************************
                                              *  Fragment Type : fA  *
                                              ************************
  

 Fragment no.    1   (in the list of all fragments)
 -----------------
 The local coordinate frame is identical to the molecular frame.

 Check Atomic Coordinates:

                  Master (on file)          After Computed Tranformation               As specified on Input
           ----------------------------     ----------------------------     ---------------------------------
     1)    -1.22833  -0.15027  -0.76084     -1.22833  -0.15027  -0.76084       1  -1.22833  -0.15027  -0.76084



                                              ************************
                                              *  Fragment Type : fB  *
                                              ************************
  

 Fragment no.    2   (in the list of all fragments)
 -----------------
 The local coordinate frame is identical to the molecular frame.

 Check Atomic Coordinates:

                  Master (on file)          After Computed Tranformation               As specified on Input
           ----------------------------     ----------------------------     ---------------------------------
     1)     0.67791  -0.02067  -0.03309      0.67791  -0.02067  -0.03309       2   0.67791  -0.02067  -0.03309
     2)     0.49607   1.47726   0.01542      0.49607   1.47726   0.01542       5   0.49607   1.47726   0.01542
     3)     0.42027   2.02569   1.36638      0.42027   2.02569   1.36638       9   0.42027   2.02569   1.36638
     4)     1.30895   1.98464  -0.50853      1.30895   1.98464  -0.50853       3   1.30895   1.98464  -0.50853
     5)     0.85616  -0.46540  -0.99206      0.85616  -0.46540  -0.99206       6   0.85616  -0.46540  -0.99206
     6)     0.22974  -0.62468   0.73108      0.22974  -0.62468   0.73108       7   0.22974  -0.62468   0.73108
     7)    -0.45501   1.63764  -0.49574     -0.45501   1.63764  -0.49574       8  -0.45501   1.63764  -0.49574
     8)     2.80559  -0.22912   0.70966      2.80559  -0.22912   0.70966       4   2.80559  -0.22912   0.70966
     9)     0.32212   2.50838   2.43195      0.32212   2.50838   2.43195      10   0.32212   2.50838   2.43195



 =======
 S F O s  ***  (Symmetrized Fragment Orbitals)  ***
 =======
  
 SFOs are linear combinations of (valence) Fragment Orbitals (FOs), such that the SFOs transform as the
 irreducible representations of the (molecular) symmetry group. Each SFO is therefore characterized by
 an irrep of the molecule and by a few (or only one) generating FOs.
 The SFOs constitute a symmetry-adapted basis for the Fock matrix. The MO eigenvector coefficients in
 this basis provide a direct interpretation of the MOs in terms of Frontier Orbital Theory.

 The SFOs are combined with auxiliary Core Functions (CFs) to ensure orthogonalization on the (frozen)
 Core Orbitals (COs). The Core-orthogonalized SFOs (CSFOs) constitute the true Fock basis.

 The FOs, and hence also the (C)SFOs are combinations of the elementary basis functions (BAS). The basis
 functions that participate in the description of the SFOs depend on the irrep. The indices of the
 involved functions are printed below for each irrep.
 (The complete list of primitive basis functions is printed in another section)

 Total nr. of (C)SFOs (summation over all irreps) :   230

 NOTE: a (C)SFO that is defined as a combination of more than one FO is usually NOT normalized.



                                       === A ===
 Nr. of SFOs :  230
 Cartesian basis functions that participate in this irrep (total number =   261) :
      1     2     3     4     5     6     9    12     7    10
     13     8    11    14    15    16    17    18    19    20
     21    22    23    24    25    26    27    28    29    30
     31    32    33    34    35    36    39    42    37    40
     43    38    41    44    45    46    47    48    49    50
     51    52    53    54    55    56    57    58    59    60
     61    62    63    64    65    66    69    72    67    70
     73    68    71    74    75    76    77    78    79    80
     81    82    83    84    85    86    87    88    89    90
     91    92    93    94    95    96    99   102    97   100
    103    98   101   104   105   106   107   108   109   110
    111   112   113   114   115   116   117   118   119   120
    121   122   123   124   125   126   127   128   129   130
    131   132   133   134   135   136   137   138   139   140
    141   142   143   144   145   146   147   148   149   150
    151   152   153   154   155   156   157   158   159   160
    161   162   163   164   165   166   167   168   169   170
    171   178   179   204   205   206   172   175   180   183
    207   210   213   173   176   181   184   208   211   214
    174   177   182   185   209   212   215   186   192   198
    216   187   193   199   217   188   194   200   218   189
    195   201   219   190   196   202   220   191   197   203
    221   222   223   224   225   226   227   228   229   230
    231   232   233   234   235   236   237   240   243   238
    241   244   239   242   245   246   247   248   249   250
    251   252   253   254   255   256   257   258   259   260
    261

    SFO  (index         Fragment          Generating    Expansion in Fragment Orbitals
  indx  incl.CFs)   Occup   Orb.Energy   FragmentType  Coeff.   Orbital     on Fragment
 --------------------------------------------------------------------------------------
     1       1      2.000     -23.816 au  fA            1.00      1 A               1
                        (    -648.061 eV)
     2       2      2.000      -0.558 au  fA            1.00      2 A               1
                        (     -15.175 eV)
     3       3      2.000       0.108 au  fA            1.00      3 A               1
                        (       2.943 eV)
     4       4      2.000       0.108 au  fA            1.00      4 A               1
                        (       2.943 eV)
     5       5      2.000       0.108 au  fA            1.00      5 A               1
                        (       2.943 eV)
     6       6       --         0.286 au  fA            1.00      6 A               1
                        (       7.775 eV)
     7       7       --         0.812 au  fA            1.00      7 A               1
                        (      22.094 eV)
     8       8       --         0.812 au  fA            1.00      8 A               1
                        (      22.094 eV)
     9       9       --         0.812 au  fA            1.00      9 A               1
                        (      22.094 eV)
    10      10       --         1.565 au  fA            1.00     10 A               1
                        (      42.594 eV)
    11      11       --         1.565 au  fA            1.00     11 A               1
                        (      42.594 eV)
    12      12       --         1.565 au  fA            1.00     12 A               1
                        (      42.594 eV)
    13      13       --         1.565 au  fA            1.00     13 A               1
                        (      42.594 eV)
    14      14       --         1.565 au  fA            1.00     14 A               1
                        (      42.594 eV)
    15      15       --         2.036 au  fA            1.00     15 A               1
                        (      55.390 eV)
    16      16       --         3.895 au  fA            1.00     16 A               1
                        (     106.000 eV)
    17      17       --         3.895 au  fA            1.00     17 A               1
                        (     106.000 eV)
    18      18       --         3.895 au  fA            1.00     18 A               1
                        (     106.000 eV)
    19      19       --         3.895 au  fA            1.00     19 A               1
                        (     106.000 eV)
    20      20       --         3.895 au  fA            1.00     20 A               1
                        (     106.000 eV)
    21      21       --         3.895 au  fA            1.00     21 A               1
                        (     106.000 eV)
    22      22       --         3.895 au  fA            1.00     22 A               1
                        (     106.000 eV)
    23      23       --         5.080 au  fA            1.00     23 A               1
                        (     138.227 eV)
    24      24       --         5.080 au  fA            1.00     24 A               1
                        (     138.227 eV)
    25      25       --         5.080 au  fA            1.00     25 A               1
                        (     138.227 eV)
    26      26       --        48.370 au  fA            1.00     26 A               1
                        (    1316.209 eV)
    27      27      2.000    -488.610 au  fB            1.00      1 A               2
                        (  -13295.762 eV)
    28      28      2.000     -63.549 au  fB            1.00      2 A               2
                        (   -1729.260 eV)
    29      29      2.000     -56.089 au  fB            1.00      3 A               2
                        (   -1526.252 eV)
    30      30      2.000     -56.084 au  fB            1.00      4 A               2
                        (   -1526.135 eV)
    31      31      2.000     -56.084 au  fB            1.00      5 A               2
                        (   -1526.134 eV)
    32      32      2.000     -14.034 au  fB            1.00      6 A               2
                        (    -381.877 eV)
    33      33      2.000     -10.018 au  fB            1.00      7 A               2
                        (    -272.612 eV)
    34      34      2.000     -10.002 au  fB            1.00      8 A               2
                        (    -272.173 eV)
    35      35      2.000      -9.975 au  fB            1.00      9 A               2
                        (    -271.423 eV)
    36      36      2.000      -8.669 au  fB            1.00     10 A               2
                        (    -235.894 eV)
    37      37      2.000      -6.334 au  fB            1.00     11 A               2
                        (    -172.349 eV)
    38      38      2.000      -6.321 au  fB            1.00     12 A               2
                        (    -172.010 eV)
    39      39      2.000      -6.321 au  fB            1.00     13 A               2
                        (    -172.007 eV)
    40      40      2.000      -2.417 au  fB            1.00     14 A               2
                        (     -65.764 eV)
    41      41      2.000      -2.414 au  fB            1.00     15 A               2
                        (     -65.683 eV)
    42      42      2.000      -2.414 au  fB            1.00     16 A               2
                        (     -65.678 eV)
    43      43      2.000      -2.404 au  fB            1.00     17 A               2
                        (     -65.429 eV)
    44      44      2.000      -2.404 au  fB            1.00     18 A               2
                        (     -65.427 eV)
    45      45      2.000      -0.833 au  fB            1.00     19 A               2
                        (     -22.661 eV)
    46      46      2.000      -0.773 au  fB            1.00     20 A               2
                        (     -21.043 eV)
    47      47      2.000      -0.706 au  fB            1.00     21 A               2
                        (     -19.221 eV)
    48      48      2.000      -0.625 au  fB            1.00     22 A               2
                        (     -16.999 eV)
    49      49      2.000      -0.503 au  fB            1.00     23 A               2
                        (     -13.698 eV)
    50      50      2.000      -0.463 au  fB            1.00     24 A               2
                        (     -12.586 eV)
    51      51      2.000      -0.436 au  fB            1.00     25 A               2
                        (     -11.867 eV)
    52      52      2.000      -0.406 au  fB            1.00     26 A               2
                        (     -11.055 eV)
    53      53      2.000      -0.325 au  fB            1.00     27 A               2
                        (      -8.842 eV)
    54      54      2.000      -0.317 au  fB            1.00     28 A               2
                        (      -8.622 eV)
    55      55      2.000      -0.306 au  fB            1.00     29 A               2
                        (      -8.324 eV)
    56      56      2.000      -0.299 au  fB            1.00     30 A               2
                        (      -8.128 eV)
    57      57      2.000      -0.248 au  fB            1.00     31 A               2
                        (      -6.759 eV)
    58      58      2.000      -0.247 au  fB            1.00     32 A               2
                        (      -6.719 eV)
    59      59       --        -0.120 au  fB            1.00     33 A               2
                        (      -3.269 eV)
    60      60       --        -0.043 au  fB            1.00     34 A               2
                        (      -1.163 eV)
    61      61       --        -0.027 au  fB            1.00     35 A               2
                        (      -0.747 eV)
    62      62       --        -0.012 au  fB            1.00     36 A               2
                        (      -0.322 eV)
    63      63       --         0.011 au  fB            1.00     37 A               2
                        (       0.301 eV)
    64      64       --         0.022 au  fB            1.00     38 A               2
                        (       0.597 eV)
    65      65       --         0.033 au  fB            1.00     39 A               2
                        (       0.904 eV)
    66      66       --         0.075 au  fB            1.00     40 A               2
                        (       2.054 eV)
    67      67       --         0.092 au  fB            1.00     41 A               2
                        (       2.515 eV)
    68      68       --         0.120 au  fB            1.00     42 A               2
                        (       3.277 eV)
    69      69       --         0.131 au  fB            1.00     43 A               2
                        (       3.565 eV)
    70      70       --         0.139 au  fB            1.00     44 A               2
                        (       3.795 eV)
    71      71       --         0.156 au  fB            1.00     45 A               2
                        (       4.239 eV)
    72      72       --         0.173 au  fB            1.00     46 A               2
                        (       4.699 eV)
    73      73       --         0.185 au  fB            1.00     47 A               2
                        (       5.039 eV)
    74      74       --         0.202 au  fB            1.00     48 A               2
                        (       5.508 eV)
    75      75       --         0.215 au  fB            1.00     49 A               2
                        (       5.846 eV)
    76      76       --         0.220 au  fB            1.00     50 A               2
                        (       5.978 eV)
    77      77       --         0.257 au  fB            1.00     51 A               2
                        (       6.983 eV)
    78      78       --         0.274 au  fB            1.00     52 A               2
                        (       7.465 eV)
    79      79       --         0.286 au  fB            1.00     53 A               2
                        (       7.781 eV)
    80      80       --         0.295 au  fB            1.00     54 A               2
                        (       8.026 eV)
    81      81       --         0.308 au  fB            1.00     55 A               2
                        (       8.394 eV)
    82      82       --         0.330 au  fB            1.00     56 A               2
                        (       8.984 eV)
    83      83       --         0.342 au  fB            1.00     57 A               2
                        (       9.302 eV)
    84      84       --         0.359 au  fB            1.00     58 A               2
                        (       9.756 eV)
    85      85       --         0.382 au  fB            1.00     59 A               2
                        (      10.382 eV)
    86      86       --         0.412 au  fB            1.00     60 A               2
                        (      11.199 eV)
    87      87       --         0.434 au  fB            1.00     61 A               2
                        (      11.820 eV)
    88      88       --         0.464 au  fB            1.00     62 A               2
                        (      12.626 eV)
    89      89       --         0.470 au  fB            1.00     63 A               2
                        (      12.798 eV)
    90      90       --         0.530 au  fB            1.00     64 A               2
                        (      14.435 eV)
    91      91       --         0.580 au  fB            1.00     65 A               2
                        (      15.778 eV)
    92      92       --         0.608 au  fB            1.00     66 A               2
                        (      16.555 eV)
    93      93       --         0.641 au  fB            1.00     67 A               2
                        (      17.443 eV)
    94      94       --         0.656 au  fB            1.00     68 A               2
                        (      17.848 eV)
    95      95       --         0.698 au  fB            1.00     69 A               2
                        (      18.991 eV)
    96      96       --         0.797 au  fB            1.00     70 A               2
                        (      21.683 eV)
    97      97       --         0.832 au  fB            1.00     71 A               2
                        (      22.645 eV)
    98      98       --         0.838 au  fB            1.00     72 A               2
                        (      22.814 eV)
    99      99       --         0.880 au  fB            1.00     73 A               2
                        (      23.952 eV)
   100     100       --         0.886 au  fB            1.00     74 A               2
                        (      24.119 eV)
   101     101       --         0.895 au  fB            1.00     75 A               2
                        (      24.353 eV)
   102     102       --         0.917 au  fB            1.00     76 A               2
                        (      24.957 eV)
   103     103       --         0.921 au  fB            1.00     77 A               2
                        (      25.067 eV)
   104     104       --         0.949 au  fB            1.00     78 A               2
                        (      25.833 eV)
   105     105       --         0.964 au  fB            1.00     79 A               2
                        (      26.228 eV)
   106     106       --         0.995 au  fB            1.00     80 A               2
                        (      27.067 eV)
   107     107       --         1.010 au  fB            1.00     81 A               2
                        (      27.487 eV)
   108     108       --         1.044 au  fB            1.00     82 A               2
                        (      28.399 eV)
   109     109       --         1.064 au  fB            1.00     83 A               2
                        (      28.964 eV)
   110     110       --         1.084 au  fB            1.00     84 A               2
                        (      29.491 eV)
   111     111       --         1.090 au  fB            1.00     85 A               2
                        (      29.651 eV)
   112     112       --         1.144 au  fB            1.00     86 A               2
                        (      31.123 eV)
   113     113       --         1.179 au  fB            1.00     87 A               2
                        (      32.078 eV)
   114     114       --         1.218 au  fB            1.00     88 A               2
                        (      33.155 eV)
   115     115       --         1.239 au  fB            1.00     89 A               2
                        (      33.725 eV)
   116     116       --         1.269 au  fB            1.00     90 A               2
                        (      34.538 eV)
   117     117       --         1.276 au  fB            1.00     91 A               2
                        (      34.729 eV)
   118     118       --         1.319 au  fB            1.00     92 A               2
                        (      35.884 eV)
   119     119       --         1.339 au  fB            1.00     93 A               2
                        (      36.423 eV)
   120     120       --         1.363 au  fB            1.00     94 A               2
                        (      37.099 eV)
   121     121       --         1.411 au  fB            1.00     95 A               2
                        (      38.384 eV)
   122     122       --         1.454 au  fB            1.00     96 A               2
                        (      39.552 eV)
   123     123       --         1.485 au  fB            1.00     97 A               2
                        (      40.415 eV)
   124     124       --         1.579 au  fB            1.00     98 A               2
                        (      42.968 eV)
   125     125       --         1.589 au  fB            1.00     99 A               2
                        (      43.236 eV)
   126     126       --         1.629 au  fB            1.00    100 A               2
                        (      44.331 eV)
   127     127       --         1.676 au  fB            1.00    101 A               2
                        (      45.612 eV)
   128     128       --         1.713 au  fB            1.00    102 A               2
                        (      46.622 eV)
   129     129       --         1.754 au  fB            1.00    103 A               2
                        (      47.741 eV)
   130     130       --         1.826 au  fB            1.00    104 A               2
                        (      49.686 eV)
   131     131       --         1.904 au  fB            1.00    105 A               2
                        (      51.809 eV)
   132     132       --         2.021 au  fB            1.00    106 A               2
                        (      55.001 eV)
   133     133       --         2.045 au  fB            1.00    107 A               2
                        (      55.648 eV)
   134     134       --         2.076 au  fB            1.00    108 A               2
                        (      56.491 eV)
   135     135       --         2.135 au  fB            1.00    109 A               2
                        (      58.106 eV)
   136     136       --         2.206 au  fB            1.00    110 A               2
                        (      60.038 eV)
   137     137       --         2.227 au  fB            1.00    111 A               2
                        (      60.613 eV)
   138     138       --         2.306 au  fB            1.00    112 A               2
                        (      62.737 eV)
   139     139       --         2.399 au  fB            1.00    113 A               2
                        (      65.280 eV)
   140     140       --         2.413 au  fB            1.00    114 A               2
                        (      65.648 eV)
   141     141       --         2.474 au  fB            1.00    115 A               2
                        (      67.332 eV)
   142     142       --         2.506 au  fB            1.00    116 A               2
                        (      68.184 eV)
   143     143       --         2.563 au  fB            1.00    117 A               2
                        (      69.736 eV)
   144     144       --         2.640 au  fB            1.00    118 A               2
                        (      71.838 eV)
   145     145       --         2.655 au  fB            1.00    119 A               2
                        (      72.251 eV)
   146     146       --         2.720 au  fB            1.00    120 A               2
                        (      74.021 eV)
   147     147       --         2.740 au  fB            1.00    121 A               2
                        (      74.549 eV)
   148     148       --         2.752 au  fB            1.00    122 A               2
                        (      74.889 eV)
   149     149       --         2.796 au  fB            1.00    123 A               2
                        (      76.095 eV)
   150     150       --         2.816 au  fB            1.00    124 A               2
                        (      76.635 eV)
   151     151       --         2.844 au  fB            1.00    125 A               2
                        (      77.395 eV)
   152     152       --         2.896 au  fB            1.00    126 A               2
                        (      78.809 eV)
   153     153       --         2.933 au  fB            1.00    127 A               2
                        (      79.802 eV)
   154     154       --         2.982 au  fB            1.00    128 A               2
                        (      81.151 eV)
   155     155       --         3.002 au  fB            1.00    129 A               2
                        (      81.693 eV)
   156     156       --         3.061 au  fB            1.00    130 A               2
                        (      83.294 eV)
   157     157       --         3.091 au  fB            1.00    131 A               2
                        (      84.100 eV)
   158     158       --         3.154 au  fB            1.00    132 A               2
                        (      85.812 eV)
   159     159       --         3.200 au  fB            1.00    133 A               2
                        (      87.079 eV)
   160     160       --         3.273 au  fB            1.00    134 A               2
                        (      89.071 eV)
   161     161       --         3.366 au  fB            1.00    135 A               2
                        (      91.595 eV)
   162     162       --         3.390 au  fB            1.00    136 A               2
                        (      92.245 eV)
   163     163       --         3.429 au  fB            1.00    137 A               2
                        (      93.299 eV)
   164     164       --         3.494 au  fB            1.00    138 A               2
                        (      95.065 eV)
   165     165       --         3.587 au  fB            1.00    139 A               2
                        (      97.603 eV)
   166     166       --         3.670 au  fB            1.00    140 A               2
                        (      99.873 eV)
   167     167       --         3.742 au  fB            1.00    141 A               2
                        (     101.830 eV)
   168     168       --         3.755 au  fB            1.00    142 A               2
                        (     102.170 eV)
   169     169       --         3.802 au  fB            1.00    143 A               2
                        (     103.458 eV)
   170     170       --         3.823 au  fB            1.00    144 A               2
                        (     104.016 eV)
   171     171       --         3.836 au  fB            1.00    145 A               2
                        (     104.380 eV)
   172     172       --         3.864 au  fB            1.00    146 A               2
                        (     105.151 eV)
   173     173       --         3.875 au  fB            1.00    147 A               2
                        (     105.454 eV)
   174     174       --         3.897 au  fB            1.00    148 A               2
                        (     106.054 eV)
   175     175       --         3.945 au  fB            1.00    149 A               2
                        (     107.341 eV)
   176     176       --         4.037 au  fB            1.00    150 A               2
                        (     109.857 eV)
   177     177       --         4.091 au  fB            1.00    151 A               2
                        (     111.310 eV)
   178     178       --         4.358 au  fB            1.00    152 A               2
                        (     118.597 eV)
   179     179       --         4.390 au  fB            1.00    153 A               2
                        (     119.447 eV)
   180     180       --         4.401 au  fB            1.00    154 A               2
                        (     119.761 eV)
   181     181       --         4.435 au  fB            1.00    155 A               2
                        (     120.695 eV)
   182     182       --         4.570 au  fB            1.00    156 A               2
                        (     124.354 eV)
   183     183       --         4.578 au  fB            1.00    157 A               2
                        (     124.565 eV)
   184     184       --         4.649 au  fB            1.00    158 A               2
                        (     126.497 eV)
   185     185       --         4.823 au  fB            1.00    159 A               2
                        (     131.241 eV)
   186     186       --         4.869 au  fB            1.00    160 A               2
                        (     132.485 eV)
   187     187       --         4.942 au  fB            1.00    161 A               2
                        (     134.485 eV)
   188     188       --         5.028 au  fB            1.00    162 A               2
                        (     136.809 eV)
   189     189       --         5.109 au  fB            1.00    163 A               2
                        (     139.022 eV)
   190     190       --         5.232 au  fB            1.00    164 A               2
                        (     142.358 eV)
   191     191       --         5.387 au  fB            1.00    165 A               2
                        (     146.576 eV)
   192     192       --         5.477 au  fB            1.00    166 A               2
                        (     149.044 eV)
   193     193       --         5.544 au  fB            1.00    167 A               2
                        (     150.856 eV)
   194     194       --         5.686 au  fB            1.00    168 A               2
                        (     154.724 eV)
   195     195       --         5.716 au  fB            1.00    169 A               2
                        (     155.530 eV)
   196     196       --         6.036 au  fB            1.00    170 A               2
                        (     164.236 eV)
   197     197       --         6.090 au  fB            1.00    171 A               2
                        (     165.718 eV)
   198     198       --         6.146 au  fB            1.00    172 A               2
                        (     167.228 eV)
   199     199       --         6.318 au  fB            1.00    173 A               2
                        (     171.910 eV)
   200     200       --         6.447 au  fB            1.00    174 A               2
                        (     175.434 eV)
   201     201       --         6.581 au  fB            1.00    175 A               2
                        (     179.074 eV)
   202     202       --         6.719 au  fB            1.00    176 A               2
                        (     182.829 eV)
   203     203       --         6.802 au  fB            1.00    177 A               2
                        (     185.096 eV)
   204     204       --         6.957 au  fB            1.00    178 A               2
                        (     189.321 eV)
   205     205       --         7.129 au  fB            1.00    179 A               2
                        (     193.994 eV)
   206     206       --         7.276 au  fB            1.00    180 A               2
                        (     197.998 eV)
   207     207       --         7.592 au  fB            1.00    181 A               2
                        (     206.581 eV)
   208     208       --         7.608 au  fB            1.00    182 A               2
                        (     207.028 eV)
   209     209       --         7.732 au  fB            1.00    183 A               2
                        (     210.389 eV)
   210     210       --         7.801 au  fB            1.00    184 A               2
                        (     212.287 eV)
   211     211       --         8.055 au  fB            1.00    185 A               2
                        (     219.177 eV)
   212     212       --         8.872 au  fB            1.00    186 A               2
                        (     241.414 eV)
   213     213       --         8.918 au  fB            1.00    187 A               2
                        (     242.677 eV)
   214     214       --         9.125 au  fB            1.00    188 A               2
                        (     248.312 eV)
   215     215       --         9.300 au  fB            1.00    189 A               2
                        (     253.064 eV)
   216     216       --        11.363 au  fB            1.00    190 A               2
                        (     309.197 eV)
   217     217       --        14.407 au  fB            1.00    191 A               2
                        (     392.037 eV)
   218     218       --        20.647 au  fB            1.00    192 A               2
                        (     561.821 eV)
   219     219       --        20.696 au  fB            1.00    193 A               2
                        (     563.157 eV)
   220     220       --        20.941 au  fB            1.00    194 A               2
                        (     569.844 eV)
   221     221       --        21.041 au  fB            1.00    195 A               2
                        (     572.567 eV)
   222     222       --        21.253 au  fB            1.00    196 A               2
                        (     578.326 eV)
   223     223       --        53.831 au  fB            1.00    197 A               2
                        (    1464.813 eV)
   224     224       --        56.063 au  fB            1.00    198 A               2
                        (    1525.564 eV)
   225     225       --        58.665 au  fB            1.00    199 A               2
                        (    1596.359 eV)
   226     226       --        69.623 au  fB            1.00    200 A               2
                        (    1894.540 eV)
   227     227       --        95.885 au  fB            1.00    201 A               2
                        (    2609.161 eV)
   228     228       --        95.969 au  fB            1.00    202 A               2
                        (    2611.456 eV)
   229     229       --        96.639 au  fB            1.00    203 A               2
                        (    2629.672 eV)
   230     230       --       618.356 au  fB            1.00    204 A               2
                        (   16826.310 eV)



 ================================
 (Slater-type)  F U N C T I O N S  ***  (Basis and Fit)  ***
 ================================
  

 Atom Type    1  (F)
 ==============

 Valence Basis Sets:  10
 -----------------------
   1 S   10.880000
   1 S    7.700000
   2 S    3.240000
   2 S    1.940000
   2 S    0.740000
   2 P    4.540000
   2 P    2.300000
   2 P    1.240000
   3 D    2.000000
   4 F    3.000000

 Atom Type    2  (C)
 ==============

 Valence Basis Sets:  10
 -----------------------
   1 S    7.680000
   1 S    5.000000
   2 S    1.280000
   2 S    2.100000
   2 S    4.600000
   2 P    0.820000
   2 P    1.480000
   2 P    2.940000
   3 D    2.200000
   4 F    3.300000

 Atom Type    3  (H)
 ==============

 Valence Basis Sets:   5
 -----------------------
   1 S    0.690000
   1 S    0.920000
   1 S    1.580000
   2 P    1.250000
   3 D    2.500000

 Atom Type    4  (Br)
 ==============

 Valence Basis Sets:  20
 -----------------------
   1 S   41.300000
   1 S   32.800000
   2 S   13.900000
   2 P   19.450000
   2 P   13.100000
   3 S    7.200000
   3 S    4.950000
   3 P    7.900000
   3 P    5.050000
   3 D   10.900000
   3 D    6.050000
   3 D    3.500000
   4 S    4.500000
   4 S    2.800000
   4 S    1.800000
   4 P    3.250000
   4 P    1.950000
   4 P    1.200000
   4 D    1.800000
   4 F    1.800000

 Atom Type    5  (N)
 ==============

 Valence Basis Sets:  10
 -----------------------
   1 S    8.740000
   1 S    5.900000
   2 S    5.150000
   2 S    2.500000
   2 S    1.500000
   2 P    3.680000
   2 P    1.880000
   2 P    1.000000
   3 D    2.200000
   4 F    3.300000


 BAS: List of all Elementary Cartesian Basis Functions
 =====================================================

 The numbering in the list below (to the right of the function characteristics) is referred
 to in print-outs of MO eigenvectors and Mulliken populations in the BAS representation
 (as contrasted to the SFO representation).

 Notes:
 1. The functions are characterized by a polynomial prefactor (powers of x,y,z and r) and
    an exponential decay factor alpha.
 2. Since the basis sets are specific for an atom TYPE, the individual functions occur on
    all atoms of that type.
 3. The word 'Core' in the left margin signals that it is a Core Function (CF) : not a
    degree of freedom in the valence set, but only used to ensure orthogonalization of
    the other valence basis functions on the frozen Core Orbitals.


 (power of) X  Y  Z  R     Alpha  on Atom
            ==========     =====     ==========

 F                                    1
                                  ---------------------------------------------------------------------------
            0  0  0  0    10.880      1
            0  0  0  0     7.700      2
            0  0  0  1     3.240      3
            0  0  0  1     1.940      4
            0  0  0  1     0.740      5
            1  0  0  0     4.540      6
            0  1  0  0     4.540      7
            0  0  1  0     4.540      8
            1  0  0  0     2.300      9
            0  1  0  0     2.300     10
            0  0  1  0     2.300     11
            1  0  0  0     1.240     12
            0  1  0  0     1.240     13
            0  0  1  0     1.240     14
            2  0  0  0     2.000     15
            1  1  0  0     2.000     16
            1  0  1  0     2.000     17
            0  2  0  0     2.000     18
            0  1  1  0     2.000     19
            0  0  2  0     2.000     20
            3  0  0  0     3.000     21
            2  1  0  0     3.000     22
            2  0  1  0     3.000     23
            1  2  0  0     3.000     24
            1  1  1  0     3.000     25
            1  0  2  0     3.000     26
            0  3  0  0     3.000     27
            0  2  1  0     3.000     28
            0  1  2  0     3.000     29
            0  0  3  0     3.000     30

 C                                    2    3    4
                                  ---------------------------------------------------------------------------
            0  0  0  0     7.680     31   61   91
            0  0  0  0     5.000     32   62   92
            0  0  0  1     1.280     33   63   93
            0  0  0  1     2.100     34   64   94
            0  0  0  1     4.600     35   65   95
            1  0  0  0     0.820     36   66   96
            0  1  0  0     0.820     37   67   97
            0  0  1  0     0.820     38   68   98
            1  0  0  0     1.480     39   69   99
            0  1  0  0     1.480     40   70  100
            0  0  1  0     1.480     41   71  101
            1  0  0  0     2.940     42   72  102
            0  1  0  0     2.940     43   73  103
            0  0  1  0     2.940     44   74  104
            2  0  0  0     2.200     45   75  105
            1  1  0  0     2.200     46   76  106
            1  0  1  0     2.200     47   77  107
            0  2  0  0     2.200     48   78  108
            0  1  1  0     2.200     49   79  109
            0  0  2  0     2.200     50   80  110
            3  0  0  0     3.300     51   81  111
            2  1  0  0     3.300     52   82  112
            2  0  1  0     3.300     53   83  113
            1  2  0  0     3.300     54   84  114
            1  1  1  0     3.300     55   85  115
            1  0  2  0     3.300     56   86  116
            0  3  0  0     3.300     57   87  117
            0  2  1  0     3.300     58   88  118
            0  1  2  0     3.300     59   89  119
            0  0  3  0     3.300     60   90  120

 H                                    5    6    7    8
                                  ---------------------------------------------------------------------------
            0  0  0  0     0.690    121  133  145  157
            0  0  0  0     0.920    122  134  146  158
            0  0  0  0     1.580    123  135  147  159
            1  0  0  0     1.250    124  136  148  160
            0  1  0  0     1.250    125  137  149  161
            0  0  1  0     1.250    126  138  150  162
            2  0  0  0     2.500    127  139  151  163
            1  1  0  0     2.500    128  140  152  164
            1  0  1  0     2.500    129  141  153  165
            0  2  0  0     2.500    130  142  154  166
            0  1  1  0     2.500    131  143  155  167
            0  0  2  0     2.500    132  144  156  168

 Br                                   9
                                  ---------------------------------------------------------------------------
            0  0  0  0    41.300    169
            0  0  0  0    32.800    170
            0  0  0  1    13.900    171
            1  0  0  0    19.450    172
            0  1  0  0    19.450    173
            0  0  1  0    19.450    174
            1  0  0  0    13.100    175
            0  1  0  0    13.100    176
            0  0  1  0    13.100    177
            0  0  0  2     7.200    178
            0  0  0  2     4.950    179
            1  0  0  1     7.900    180
            0  1  0  1     7.900    181
            0  0  1  1     7.900    182
            1  0  0  1     5.050    183
            0  1  0  1     5.050    184
            0  0  1  1     5.050    185
            2  0  0  0    10.900    186
            1  1  0  0    10.900    187
            1  0  1  0    10.900    188
            0  2  0  0    10.900    189
            0  1  1  0    10.900    190
            0  0  2  0    10.900    191
            2  0  0  0     6.050    192
            1  1  0  0     6.050    193
            1  0  1  0     6.050    194
            0  2  0  0     6.050    195
            0  1  1  0     6.050    196
            0  0  2  0     6.050    197
            2  0  0  0     3.500    198
            1  1  0  0     3.500    199
            1  0  1  0     3.500    200
            0  2  0  0     3.500    201
            0  1  1  0     3.500    202
            0  0  2  0     3.500    203
            0  0  0  3     4.500    204
            0  0  0  3     2.800    205
            0  0  0  3     1.800    206
            1  0  0  2     3.250    207
            0  1  0  2     3.250    208
            0  0  1  2     3.250    209
            1  0  0  2     1.950    210
            0  1  0  2     1.950    211
            0  0  1  2     1.950    212
            1  0  0  2     1.200    213
            0  1  0  2     1.200    214
            0  0  1  2     1.200    215
            2  0  0  1     1.800    216
            1  1  0  1     1.800    217
            1  0  1  1     1.800    218
            0  2  0  1     1.800    219
            0  1  1  1     1.800    220
            0  0  2  1     1.800    221
            3  0  0  0     1.800    222
            2  1  0  0     1.800    223
            2  0  1  0     1.800    224
            1  2  0  0     1.800    225
            1  1  1  0     1.800    226
            1  0  2  0     1.800    227
            0  3  0  0     1.800    228
            0  2  1  0     1.800    229
            0  1  2  0     1.800    230
            0  0  3  0     1.800    231

 N                                   10
                                  ---------------------------------------------------------------------------
            0  0  0  0     8.740    232
            0  0  0  0     5.900    233
            0  0  0  1     5.150    234
            0  0  0  1     2.500    235
            0  0  0  1     1.500    236
            1  0  0  0     3.680    237
            0  1  0  0     3.680    238
            0  0  1  0     3.680    239
            1  0  0  0     1.880    240
            0  1  0  0     1.880    241
            0  0  1  0     1.880    242
            1  0  0  0     1.000    243
            0  1  0  0     1.000    244
            0  0  1  0     1.000    245
            2  0  0  0     2.200    246
            1  1  0  0     2.200    247
            1  0  1  0     2.200    248
            0  2  0  0     2.200    249
            0  1  1  0     2.200    250
            0  0  2  0     2.200    251
            3  0  0  0     3.300    252
            2  1  0  0     3.300    253
            2  0  1  0     3.300    254
            1  2  0  0     3.300    255
            1  1  1  0     3.300    256
            1  0  2  0     3.300    257
            0  3  0  0     3.300    258
            0  2  1  0     3.300    259
            0  1  2  0     3.300    260
            0  0  3  0     3.300    261

 Total number of charge fitting functions (nprimf)       791
 Total number of Cartesian basis functions (naos)        261
 Total number of Cartesian core functions  (ncos)          0

 ***************************************************************************************************



                                              ***********************
                                              *  T E C H N I C A L  *
                                              ***********************
  



 =============================================================
 P A R A L L E L I Z A T I O N  and  V E C T O R I Z A T I O N
 =============================================================
  
 Nr of parallel processes:                                1
 Maximum vector length in NumInt loops:                 128



 =====================
 S C F   U P D A T E S
 =====================
  
 Max. nr. of cycles:                               200
 Convergence criterion:                              0.0000010000
   secondary criterion:                              0.0010000000

 Mix parameter (when DIIS does not apply):           0.2000000000
 Mixed ADIIS+SDIIS will be used                  
    Max number of expansion vectors:                10
    Pure ADIIS when Max([F,P]) is above              0.1000000000
    Pure SDIIS when Max([F,P]) is below              0.0010000000
 Automatic ElectronSmearing (in case of problematic SCF convergence) disabled



 =================
 P R E C I S I O N  ***  (General: NumInt, NeglectFunctionTails, ...)  ***
 =================
  

 NumInt:           Target precision:                 4.0000000000
 -------           Initial precision:                4.0000000000
                   Min. precision (optimization):    4.0000000000

 Neglect Functions:          Basis functions:        0.1000000000E-05
 ------------------          Fit functions:          0.1000000000E-05



 ===========================
 L I N E A R   S C A L I N G
 ===========================
  

 Cut-off radii density fit:                        0.1000000000E-07
 Overlap cut-off criterion AO matrix elements:     0.1000000000E-05
 Cut-offs for Coulomb potential and fitted density:0.1000000000E-07
 Cut-off criterion for Coulomb multipole terms:    0.1000000000E-07
 Progressive Convergence parameter:                 0.000000000    
 ***************************************************************************************************



                                            ***************************
                                            *  C O M P U T A T I O N  *
                                            ***************************
  

 Number of elements of the density matrix on this node (used, total):     34191     34191



 ===========================================
 Numerical Integration : Fuzzy Cells (Becke)
 ===========================================
  
 Becke grid quality: NORMAL         
  
 Lebedev angular grid order:             min:  11 max:  23
 Nr. of radial points:                   min:  46 max:  77

 Total nr. of points:      69987
 Nr. of blocks:              547
 Block length:               128
 Nr. of dummy points:         29


 Test of Precision of the Numerical Integration Grid
 ===================================================

 Integral of the Total Core Density:                   0.00000000000000



 ========================
 Density Fitting (zlmFit)
 ========================
  
 ZlmFit Fit Quality: NORMAL         
  
 Max L-expansion:                        min:   6 max:   7
 Nr. of radial interpolation points:     min:  39 max:  72



 =====
 S C F  ***  ScaSCF  ***
 =====
  
 Initial density matrix is calculated as sum of fragments

 CYCLE    1
 SCF Error: norm([F,P])=      0.774318038238, max([F,P])=      0.271473062235
 orbitals (Q,E):
 ---------------
 A :28...47          ( 2.00    -0.2084)  ( 2.00    -0.1841)  ( 2.00    -0.1694)  ( 2.00    -0.1608)
                     ( 2.00    -0.1435)  ( 2.00    -0.1222)  ( 2.00    -0.1207)  ( 2.00     0.0271)
                     ( 2.00     0.0557)  ( 2.00     0.0571)  ( 0.00     0.1087)  ( 0.00     0.1253)
                     ( 0.00     0.1307)  ( 0.00     0.1391)  ( 0.00     0.1750)  ( 0.00     0.1854)
                     ( 0.00     0.2127)  ( 0.00     0.2416)  ( 0.00     0.2432)  ( 0.00     0.2734)

 CYCLE    2
  SDIIS (wt  0.000):  0.6512  0.3488
 A-DIIS (wt  1.000):  0.9720  0.0280
  DIIS coefficients:  0.9720  0.0280
 SCF Error: norm([F,P])=      1.105874137847, max([F,P])=      0.380038622833
 orbitals (Q,E):
 ---------------
 A :28...38          ( 2.00    -0.2065)  ( 2.00    -0.1850)  ( 2.00    -0.1676)  ( 2.00    -0.1596)
                     ( 2.00    -0.1412)  ( 2.00    -0.1177)  ( 2.00    -0.1163)  ( 2.00     0.0160)
                     ( 2.00     0.0396)  ( 2.00     0.0406)  ( 0.00     0.1088)

 CYCLE    3
  SDIIS (wt  0.000):  0.2342 -1.9088  2.6745
 A-DIIS (wt  1.000):  0.9634  0.0000  0.0366
  DIIS coefficients:  0.9634  0.0000  0.0366
 SCF Error: norm([F,P])=      0.839580798922, max([F,P])=      0.274044263678
 orbitals (Q,E):
 ---------------
 A :28...38          ( 2.00    -0.2066)  ( 2.00    -0.1856)  ( 2.00    -0.1675)  ( 2.00    -0.1598)
                     ( 2.00    -0.1411)  ( 2.00    -0.1171)  ( 2.00    -0.1157)  ( 2.00     0.0152)
                     ( 2.00     0.0386)  ( 2.00     0.0397)  ( 0.00     0.1086)

 CYCLE    4
  SDIIS (wt  0.000): -2.0000  0.0000  3.0000
 A-DIIS (wt  1.000):  0.0000  0.0000  1.0000
  DIIS coefficients:  0.0000  0.0000  1.0000
 SCF Error: norm([F,P])=      0.831883903219, max([F,P])=      0.272987120055
 orbitals (Q,E):
 ---------------
 A :28...38          ( 2.00    -0.3674)  ( 2.00    -0.3203)  ( 2.00    -0.3061)  ( 2.00    -0.2687)
                     ( 2.00    -0.1284)  ( 2.00    -0.1248)  ( 2.00    -0.1145)  ( 2.00    -0.0846)
                     ( 2.00     0.0283)  ( 2.00     0.0302)  ( 0.00     0.0836)

 CYCLE    5
  SDIIS (wt  0.000): -1.6191 -0.5123  3.0000  0.1315
 A-DIIS (wt  1.000):  0.0000  0.0000  0.7845  0.2155
  DIIS coefficients:  0.0000  0.0000  0.7845  0.2155
 SCF Error: norm([F,P])=      2.242640276095, max([F,P])=      0.644945485296
 orbitals (Q,E):
 ---------------
 A :28...38          ( 2.00    -0.2259)  ( 2.00    -0.2152)  ( 2.00    -0.1968)  ( 2.00    -0.1916)
                     ( 2.00    -0.1704)  ( 2.00    -0.1422)  ( 2.00    -0.1391)  ( 2.00    -0.0871)
                     ( 2.00    -0.0507)  ( 2.00    -0.0494)  ( 0.00     0.1081)

 CYCLE    6
  SDIIS (wt  0.000): -1.0576 -1.2251  3.0000  0.0804  0.2023
 A-DIIS (wt  1.000):  0.0000  0.0000  0.4023  0.0000  0.5977
  DIIS coefficients:  0.0000  0.0000  0.4023  0.0000  0.5977
 SCF Error: norm([F,P])=      0.736152974453, max([F,P])=      0.250369925659
 orbitals (Q,E):
 ---------------
 A :28...38          ( 2.00    -0.2567)  ( 2.00    -0.1641)  ( 2.00    -0.1587)  ( 2.00    -0.1552)
                     ( 2.00    -0.1415)  ( 2.00    -0.0745)  ( 2.00    -0.0732)  ( 2.00    -0.0521)
                     ( 2.00    -0.0493)  ( 2.00    -0.0476)  ( 0.00     0.0758)

 CYCLE    7
  SDIIS (wt  0.000): -0.4912 -2.0000  2.8045 -0.0594  0.4352  0.3109
 A-DIIS (wt  1.000):  0.0000  0.0000  0.2383  0.0000  0.4518  0.3099
  DIIS coefficients:  0.0000  0.0000  0.2383  0.0000  0.4518  0.3099
 SCF Error: norm([F,P])=      0.700414194434, max([F,P])=      0.157481911879
 orbitals (Q,E):
 ---------------
 A :28...38          ( 2.00    -0.2206)  ( 2.00    -0.1966)  ( 2.00    -0.1664)  ( 2.00    -0.1625)
                     ( 2.00    -0.1347)  ( 2.00    -0.0827)  ( 2.00    -0.0820)  ( 2.00    -0.0567)
                     ( 2.00    -0.0545)  ( 2.00    -0.0525)  ( 0.00     0.0989)

 CYCLE    8
  SDIIS (wt  0.175): -0.4039  1.6045 -1.0575 -0.0107  0.2263  0.2891  0.3521
 A-DIIS (wt  0.825):  0.0000  0.0000  0.0000  0.0000  0.0459  0.1993  0.7548
  DIIS coefficients: -0.0707  0.2809 -0.1852 -0.0019  0.0775  0.2150  0.6843
 SCF Error: norm([F,P])=      0.289345529712, max([F,P])=      0.082666229391
 orbitals (Q,E):
 ---------------
 A :28...38          ( 2.00    -0.2305)  ( 2.00    -0.1658)  ( 2.00    -0.1590)  ( 2.00    -0.1510)
                     ( 2.00    -0.1401)  ( 2.00    -0.0931)  ( 2.00    -0.0894)  ( 2.00    -0.0816)
                     ( 2.00    -0.0756)  ( 2.00    -0.0740)  ( 0.00     0.0902)

 CYCLE    9
  SDIIS (wt  0.000):  0.0190 -2.0000  1.9910  0.0041 -0.0057  0.0737  0.5824  0.3355
 A-DIIS (wt  1.000): -0.0000  0.0000  0.0000  0.0000  0.0000  0.0000  0.5970  0.4030
  DIIS coefficients: -0.0000  0.0000  0.0000  0.0000  0.0000  0.0000  0.5970  0.4030
 SCF Error: norm([F,P])=      0.402923813947, max([F,P])=      0.101482139051
 orbitals (Q,E):
 ---------------
 A :28...38          ( 2.00    -0.2373)  ( 2.00    -0.1793)  ( 2.00    -0.1613)  ( 2.00    -0.1577)
                     ( 2.00    -0.1382)  ( 2.00    -0.0794)  ( 2.00    -0.0783)  ( 2.00    -0.0514)
                     ( 2.00    -0.0486)  ( 2.00    -0.0468)  ( 0.00     0.0877)

 CYCLE   10
  SDIIS (wt  0.343): -0.0029  1.0568 -1.0887 -0.0002  0.0003 -0.1210  0.3413  0.2631  0.5513
 A-DIIS (wt  0.657):  0.0000  0.0000  0.0000  0.0000 -0.0000  0.0000  0.4398  0.2474  0.3128
  DIIS coefficients: -0.0010  0.3630 -0.3739 -0.0001  0.0001 -0.0415  0.4060  0.2528  0.3947
 SCF Error: norm([F,P])=      0.249901249793, max([F,P])=      0.065998250731
 orbitals (Q,E):
 ---------------
 A :28...38          ( 2.00    -0.2267)  ( 2.00    -0.1842)  ( 2.00    -0.1620)  ( 2.00    -0.1576)
                     ( 2.00    -0.1371)  ( 2.00    -0.0801)  ( 2.00    -0.0787)  ( 2.00    -0.0688)
                     ( 2.00    -0.0679)  ( 2.00    -0.0644)  ( 0.00     0.0940)

 CYCLE   11
  SDIIS (wt  0.742): -0.0166  0.7225 -0.7156 -0.0040  0.0049 -0.0547  0.2109  0.1387  0.3658  0.3480
 A-DIIS (wt  0.258):  0.0000  0.0000  0.0000  0.0000  0.0000  0.0000  0.0000  0.0000  0.1051  0.8949
  DIIS coefficients: -0.0123  0.5362 -0.5311 -0.0029  0.0036 -0.0406  0.1565  0.1029  0.2986  0.4890
 SCF Error: norm([F,P])=      0.076094450786, max([F,P])=      0.026522493314
 orbitals (Q,E):
 ---------------
 A :28...38          ( 2.00    -0.2271)  ( 2.00    -0.1853)  ( 2.00    -0.1623)  ( 2.00    -0.1583)
                     ( 2.00    -0.1366)  ( 2.00    -0.0812)  ( 2.00    -0.0804)  ( 2.00    -0.0589)
                     ( 2.00    -0.0577)  ( 2.00    -0.0556)  ( 0.00     0.0939)

 CYCLE   12
  SDIIS (wt  0.853):  0.1970 -0.2034 -0.0006 -0.0047 -0.0189  0.0573  0.0448  0.1240  0.3852  0.4193
 A-DIIS (wt  0.147):  0.0000  0.0000  0.0000  0.0000  0.0000  0.0000  0.0000  0.0000  0.3451  0.6549
  DIIS coefficients:  0.1681 -0.1736 -0.0005 -0.0040 -0.0161  0.0489  0.0382  0.1059  0.3793  0.4538
 SCF Error: norm([F,P])=      0.046483674840, max([F,P])=      0.015507780291
 orbitals (Q,E):
 ---------------
 A :28...38          ( 2.00    -0.2276)  ( 2.00    -0.1841)  ( 2.00    -0.1618)  ( 2.00    -0.1577)
                     ( 2.00    -0.1369)  ( 2.00    -0.0805)  ( 2.00    -0.0797)  ( 2.00    -0.0628)
                     ( 2.00    -0.0622)  ( 2.00    -0.0596)  ( 0.00     0.0934)

 CYCLE   13
  SDIIS (wt  0.996): -0.0004 -0.0001 -0.0016 -0.0004  0.0066  0.0009  0.0096  0.1494  0.2146  0.6214
 A-DIIS (wt  0.004):  0.0000  0.0000  0.0000  0.0000  0.0000  0.0000  0.0000  0.0000  0.0000  1.0000
  DIIS coefficients: -0.0004 -0.0001 -0.0016 -0.0004  0.0066  0.0009  0.0095  0.1488  0.2137  0.6229
 SCF Error: norm([F,P])=      0.005234380326, max([F,P])=      0.001410939018
 orbitals (Q,E):
 ---------------
 A :28...38          ( 2.00    -0.2274)  ( 2.00    -0.1843)  ( 2.00    -0.1619)  ( 2.00    -0.1578)
                     ( 2.00    -0.1368)  ( 2.00    -0.0805)  ( 2.00    -0.0797)  ( 2.00    -0.0625)
                     ( 2.00    -0.0619)  ( 2.00    -0.0593)  ( 0.00     0.0936)

 CYCLE   14
  SDIIS (wt  1.000): -0.0000 -0.0007  0.0006  0.0009 -0.0019  0.0006  0.0725  0.1074  0.3607  0.4598
  DIIS coefficients: -0.0000 -0.0007  0.0006  0.0009 -0.0019  0.0006  0.0725  0.1074  0.3607  0.4598
 SCF Error: norm([F,P])=      0.000385124687, max([F,P])=      0.000057985853
 orbitals (Q,E):
 ---------------
 A :28...38          ( 2.00    -0.2274)  ( 2.00    -0.1844)  ( 2.00    -0.1620)  ( 2.00    -0.1578)
                     ( 2.00    -0.1368)  ( 2.00    -0.0805)  ( 2.00    -0.0797)  ( 2.00    -0.0625)
                     ( 2.00    -0.0619)  ( 2.00    -0.0593)  ( 0.00     0.0935)

 CYCLE   15
  SDIIS (wt  1.000): -0.0002  0.0002  0.0002 -0.0005 -0.0003  0.0152  0.0231  0.0849  0.1467  0.7307
  DIIS coefficients: -0.0002  0.0002  0.0002 -0.0005 -0.0003  0.0152  0.0231  0.0849  0.1467  0.7307
 SCF Error: norm([F,P])=      0.000056306246, max([F,P])=      0.000011955939
 orbitals (Q,E):
 ---------------
 A :28...38          ( 2.00    -0.2274)  ( 2.00    -0.1844)  ( 2.00    -0.1619)  ( 2.00    -0.1578)
                     ( 2.00    -0.1368)  ( 2.00    -0.0805)  ( 2.00    -0.0797)  ( 2.00    -0.0625)
                     ( 2.00    -0.0619)  ( 2.00    -0.0593)  ( 0.00     0.0935)

 CYCLE   16
  SDIIS (wt  1.000):  0.0000  0.0000 -0.0001 -0.0002  0.0014  0.0027  0.0129  0.0306  0.3505  0.6022
  DIIS coefficients:  0.0000  0.0000 -0.0001 -0.0002  0.0014  0.0027  0.0129  0.0306  0.3505  0.6022
 SCF Error: norm([F,P])=      0.000018100259, max([F,P])=      0.000002284371
 orbitals (Q,E):
 ---------------
 A :28...38          ( 2.00    -0.2274)  ( 2.00    -0.1844)  ( 2.00    -0.1619)  ( 2.00    -0.1578)
                     ( 2.00    -0.1368)  ( 2.00    -0.0805)  ( 2.00    -0.0797)  ( 2.00    -0.0625)
                     ( 2.00    -0.0619)  ( 2.00    -0.0593)  ( 0.00     0.0935)

 CYCLE   17
  SDIIS (wt  1.000):  0.0000 -0.0000 -0.0000  0.0004  0.0009  0.0048  0.0105  0.1165  0.2513  0.6156
  DIIS coefficients:  0.0000 -0.0000 -0.0000  0.0004  0.0009  0.0048  0.0105  0.1165  0.2513  0.6156
 SCF Error: norm([F,P])=      0.000005404191, max([F,P])=      0.000001099931
 orbitals (Q,E):
 ---------------
 A :28...38          ( 2.00    -0.2274)  ( 2.00    -0.1844)  ( 2.00    -0.1619)  ( 2.00    -0.1578)
                     ( 2.00    -0.1368)  ( 2.00    -0.0805)  ( 2.00    -0.0797)  ( 2.00    -0.0625)
                     ( 2.00    -0.0619)  ( 2.00    -0.0593)  ( 0.00     0.0935)

 CYCLE   18
  SDIIS (wt  1.000): -0.0000 -0.0000  0.0001  0.0003  0.0019  0.0041  0.0434  0.1006  0.3249  0.5248
  DIIS coefficients: -0.0000 -0.0000  0.0001  0.0003  0.0019  0.0041  0.0434  0.1006  0.3249  0.5248
 SCF Error: norm([F,P])=      0.000001780966, max([F,P])=      0.000000369051
 orbitals (Q,E):
 ---------------
 A :28...38          ( 2.00    -0.2274)  ( 2.00    -0.1844)  ( 2.00    -0.1619)  ( 2.00    -0.1578)
                     ( 2.00    -0.1368)  ( 2.00    -0.0805)  ( 2.00    -0.0797)  ( 2.00    -0.0625)
                     ( 2.00    -0.0619)  ( 2.00    -0.0593)  ( 0.00     0.0935)

 SCF CONVERGED

 CYCLE   19
 ***************************************************************************************************



                                                *******************
                                                *  R E S U L T S  *
                                                *******************
  
 *** Using FIT density in Focky
  SDIIS (wt  1.000): -0.0000 -0.0000 -0.0000  0.0001  0.0003  0.0037  0.0129  0.0623  0.1590  0.7616
  DIIS coefficients: -0.0000 -0.0000 -0.0000  0.0001  0.0003  0.0037  0.0129  0.0623  0.1590  0.7616
 SCF Error: norm([F,P])=      0.000000266600, max([F,P])=      0.000000042662

 Scaled ZORA Orbital Energies, per Irrep and Spin:
 =================================================
                        Occup              E (au)              E (eV)       Diff (eV) with prev. cycle
                        -----      --------------------        ------       --------------------------
 A
              28        2.000     -0.22737592293318E+00        -6.187              -1.51E-07
              29        2.000     -0.18436314465501E+00        -5.017              -3.60E-07
              30        2.000     -0.16194952102980E+00        -4.407              -2.30E-07
              31        2.000     -0.15782583289850E+00        -4.295              -3.11E-07
              32        2.000     -0.13683758597090E+00        -3.724               9.18E-08
              33        2.000     -0.80503760654007E-01        -2.191               3.68E-07
              34        2.000     -0.79666802702074E-01        -2.168               3.39E-07
              35        2.000     -0.62528589025598E-01        -1.701              -9.12E-08
              36        2.000     -0.61901301363682E-01        -1.684              -1.25E-07
              37        2.000     -0.59325239036290E-01        -1.614              -4.30E-08
              38        0.000      0.93548690130788E-01         2.546
              39        0.000      0.11267764834122E+00         3.066
              40        0.000      0.12678572127277E+00         3.450
              41        0.000      0.13469916894072E+00         3.665
              42        0.000      0.16490155631954E+00         4.487
              43        0.000      0.17704236192136E+00         4.818
              44        0.000      0.19252132278810E+00         5.239
              45        0.000      0.23135589115845E+00         6.296
              46        0.000      0.23907166489958E+00         6.505
              47        0.000      0.26367314732319E+00         7.175
  
 HOMO :       37 A                -0.59325239036290E-01
 LUMO :       38 A                 0.93548690130788E-01
  


 All Electron Calculation, thus no Orbital Energies of the Core Orbitals are calculated


 Fit test: (difference of exact and fit density, squared integrated, result summed over spins)
         Sum-of-Fragments:                             0.00109930803256
         Orthogonalized Fragments:                     0.00110177821556
         SCF:                                          0.00110179719215



 ==========================
 Electron Density at Nuclei
 ==========================
  
 The electron density is calculated at points on a small sphere around the center of a nucleus.
 The printed electron density is the average electron density on these points.
 The radius of the sphere is the printed approximate finite nuclear radius.
 Note: ZORA-4 density is used, which includes small component density

         Atom        Nuclear Radius (Angstrom)             Electron Density (a.u.)
         ----        -------------------------             -----------------------
     1)   F                 0.0000361580                              450.62791
     2)   C                 0.0000320678                              127.35268
     3)   H                 0.0000181514                                0.50930
     4)   Br                0.0000536685                            33512.38082
     5)   C                 0.0000320678                              127.00660
     6)   H                 0.0000181514                                0.51812
     7)   H                 0.0000181514                                0.51814
     8)   H                 0.0000181514                                0.49327
     9)   C                 0.0000320678                              127.44461
    10)   N                 0.0000333706                              206.84211



 =======================================
 M U L L I K E N   P O P U L A T I O N S
 =======================================
  
 The survey below gives for each atom:
 a) the total charge (Z minus electrons)
 b) the net spin polarization (nr of electrons spin-A minus spin-B)
 c) for each spin the atomic electron valence density (integrated) per L-value.

 Atom              Charge    Spin density          S         P         D         F
 ----              ------    ------------       ------    ------    ------    ------
 1 F              -0.6751                       4.0180    5.6506    0.0062    0.0003
 2 C               0.6752                       3.0111    2.2540    0.0565    0.0032
 3 H              -0.1618                       1.0755    0.0801    0.0062    0.0000
 4 Br             -0.5746                       7.9837   17.5432   10.0372    0.0105
 5 C               0.4151                       2.9209    2.5995    0.0611    0.0034
 6 H              -0.1720                       1.0772    0.0881    0.0068    0.0000
 7 H              -0.1491                       1.0544    0.0880    0.0067    0.0000
 8 H              -0.1144                       1.0107    0.0967    0.0069    0.0000
 9 C               0.0894                       3.1116    2.7226    0.0677    0.0087
 10 N             -0.3327                       3.6937    3.5815    0.0532    0.0044

 Populations of individual BAS functions
 ----------------------------------------
 1 F            0.5911  1.3856  1.0837  0.9114  0.0461  0.3666  0.4025  0.4001  0.8751  0.9171
                0.8946  0.5296  0.6214  0.6436  0.0058  0.0011  0.0015 -0.0007  0.0002 -0.0017
                0.0029  0.0018  0.0020 -0.0013  0.0000 -0.0014 -0.0013 -0.0004 -0.0005 -0.0016
 2 C            0.5070  1.4834  0.0943  0.9726 -0.0462 -0.0567 -0.1832 -0.1955  0.5615  0.7906
                0.8207  0.1132  0.1955  0.2080 -0.0023  0.0094  0.0090  0.0201  0.0108  0.0094
               -0.0011 -0.0032 -0.0015  0.0015  0.0003  0.0006  0.0053  0.0024 -0.0010 -0.0001
 5 C            0.5073  1.4821  0.0645  0.9072 -0.0402 -0.1449 -0.1137 -0.0741  0.8472  0.7787
                0.7370  0.2065  0.1822  0.1806  0.0020  0.0110  0.0090  0.0136  0.0151  0.0103
               -0.0021 -0.0023 -0.0012  0.0010  0.0002  0.0018  0.0037  0.0003 -0.0002  0.0023
 9 C            0.5047  1.4820  0.2965  0.8607 -0.0322  0.0829  0.0839  0.0056  0.6397  0.6498
                0.7012  0.1542  0.1704  0.2350 -0.0194  0.0042  0.0219 -0.0037  0.0172  0.0476
               -0.0061 -0.0029 -0.0065 -0.0002  0.0010  0.0083 -0.0035 -0.0024  0.0085  0.0124
 3 H            0.1290  0.6300  0.3164  0.0345  0.0226  0.0231  0.0050  0.0013  0.0013 -0.0013
                0.0007 -0.0008
 6 H            0.1828  0.5665  0.3280  0.0302  0.0228  0.0350 -0.0067  0.0004  0.0013 -0.0015
                0.0017  0.0115
 7 H            0.1412  0.5816  0.3315  0.0317  0.0243  0.0319 -0.0034  0.0009  0.0017  0.0018
                0.0012  0.0045
 8 H            0.1346  0.5516  0.3246  0.0431  0.0290  0.0247  0.0093  0.0017  0.0015 -0.0055
                0.0007 -0.0008
 4 Br           0.7968  1.1334  2.0967  0.8033  0.8036  0.8035  1.1702  1.1698  1.1699  1.6441
                0.2368  1.1644  1.1713  1.1706  0.8706  0.8635  0.8642  0.2684  0.4023  0.4023
                0.2682  0.4024  0.2681  0.7645  1.1479  1.1479  0.7660  1.1487  0.7659  0.3017
                0.4497  0.4498  0.2985  0.4487  0.2988  0.4388  1.2271  0.4099  0.5229  0.6359
                0.6251  0.8403  0.9673  0.9541  0.2430  0.3718  0.3579  0.0234  0.0073  0.0108
               -0.0028  0.0018 -0.0030  0.0213  0.0111  0.0131 -0.0093  0.0008 -0.0074 -0.0073
               -0.0023 -0.0020 -0.0075
 10 N           0.5468  1.4323 -0.0260  1.0165  0.7241  0.1572  0.1638  0.2119  0.6797  0.6956
                0.8195  0.2984  0.2864  0.2690 -0.0043  0.0030  0.0151  0.0027  0.0151  0.0216
               -0.0054 -0.0025 -0.0053 -0.0002  0.0006  0.0067 -0.0028 -0.0024  0.0063  0.0095

 Gross Charges per Atom (Z minus electrons)
 ==========================================
            -0.6751    0.6752   -0.1618   -0.5746    0.4151   -0.1720   -0.1491   -0.1144    0.0894   -0.3327
 Net Total: -1.00000000


 Atom-Atom Population Matrix (off-diagonal elements not doubled)
 ===============================================================

     1 :     9.6392
     2 :     0.0494    4.1066
     3 :     0.0034   -0.0412    1.0349
     4 :     0.0067    0.1242   -0.0272   35.6611
     5 :    -0.0231    0.3818    0.3417   -0.0461    4.2439
     6 :    -0.0100    0.3714   -0.0322   -0.0760   -0.0107    1.0057
[...]
                                    4.84%    24 A             -12.586  2.00     2 fB
                                    4.35%    40 A               2.054  0.00     2 fB
                                    3.03%    51 A               6.983  0.00     2 fB
                                    2.69%    30 A              -8.128  2.00     2 fB
                                    2.43%     8 A              22.094  0.00     1 fA
                                    2.30%    44 A               3.795  0.00     2 fB
                                    2.22%    65 A              15.778  0.00     2 fB
                                    2.12%    47 A               5.039  0.00     2 fB
                                    2.00%    11 A              42.594  0.00     1 fA
                                    2.00%    35 A              -0.747  0.00     2 fB
                                    1.97%     6 A               7.775  0.00     1 fA
                                    1.61%    22 A             -16.999  2.00     2 fB
                                    1.44%    36 A              -0.322  0.00     2 fB
                                    1.37%    43 A               3.565  0.00     2 fB
                                    1.34%    20 A             -21.043  2.00     2 fB
                                    1.29%    31 A              -6.759  2.00     2 fB
                                    1.09%    27 A              -8.842  2.00     2 fB
      -0.06785         5 A         29.03%    31 A              -6.759  2.00     2 fB
                                   18.53%    32 A              -6.719  2.00     2 fB
                                   15.14%    46 A               4.699  0.00     2 fB
                                   10.78%    47 A               5.039  0.00     2 fB
                                    4.60%    38 A               0.597  0.00     2 fB
                                    3.14%    42 A               3.277  0.00     2 fB
                                    2.73%    37 A               0.301  0.00     2 fB
                                    2.52%    44 A               3.795  0.00     2 fB
                                    1.60%    36 A              -0.322  0.00     2 fB
                                    1.42%    35 A              -0.747  0.00     2 fB
                                    1.23%     9 A              22.094  0.00     1 fA
                                    1.14%    49 A               5.846  0.00     2 fB
       0.06785       226 A         26.87%    31 A              -6.759  2.00     2 fB
                                   17.47%    32 A              -6.719  2.00     2 fB
                                   16.08%    46 A               4.699  0.00     2 fB
                                   11.88%    47 A               5.039  0.00     2 fB
                                    4.80%    38 A               0.597  0.00     2 fB
                                    3.32%    42 A               3.277  0.00     2 fB
                                    3.07%    37 A               0.301  0.00     2 fB
                                    2.56%    44 A               3.795  0.00     2 fB
                                    1.72%    36 A              -0.322  0.00     2 fB
                                    1.55%    35 A              -0.747  0.00     2 fB
                                    1.26%    49 A               5.846  0.00     2 fB
                                    1.09%    28 A              -8.622  2.00     2 fB
      -0.06580         6 A         28.52%    32 A              -6.719  2.00     2 fB
                                   14.90%    31 A              -6.759  2.00     2 fB
                                   10.02%    46 A               4.699  0.00     2 fB
                                    9.00%    47 A               5.039  0.00     2 fB
                                    4.92%    44 A               3.795  0.00     2 fB
                                    4.88%    43 A               3.565  0.00     2 fB
                                    4.24%    45 A               4.239  0.00     2 fB
                                    3.64%    30 A              -8.128  2.00     2 fB
                                    2.47%    40 A               2.054  0.00     2 fB
                                    1.87%    36 A              -0.322  0.00     2 fB
                                    1.77%    42 A               3.277  0.00     2 fB
                                    1.27%     8 A              22.094  0.00     1 fA
                                    1.25%     5 A               2.943  2.00     1 fA
                                    1.22%    38 A               0.597  0.00     2 fB
                                    1.20%    27 A              -8.842  2.00     2 fB
                                    1.08%    50 A               5.978  0.00     2 fB
       0.06580       225 A         27.08%    32 A              -6.719  2.00     2 fB
                                   14.03%    31 A              -6.759  2.00     2 fB
                                   11.33%    46 A               4.699  0.00     2 fB
                                    9.90%    47 A               5.039  0.00     2 fB
                                    5.55%    43 A               3.565  0.00     2 fB
                                    5.06%    44 A               3.795  0.00     2 fB
                                    3.83%    45 A               4.239  0.00     2 fB
                                    3.81%    30 A              -8.128  2.00     2 fB
                                    3.06%    40 A               2.054  0.00     2 fB
                                    1.97%    36 A              -0.322  0.00     2 fB
                                    1.64%    42 A               3.277  0.00     2 fB
                                    1.14%    50 A               5.978  0.00     2 fB
                                    1.12%    27 A              -8.842  2.00     2 fB
                                    1.08%    38 A               0.597  0.00     2 fB
                                    1.03%     8 A              22.094  0.00     1 fA
      -0.05568         7 A         25.03%    29 A              -8.324  2.00     2 fB
                                   20.35%    36 A              -0.322  0.00     2 fB
                                    7.84%    25 A             -11.867  2.00     2 fB
                                    4.36%    30 A              -8.128  2.00     2 fB
                                    3.74%    34 A              -1.163  0.00     2 fB
                                    3.43%     7 A              22.094  0.00     1 fA
                                    3.35%    31 A              -6.759  2.00     2 fB
                                    2.98%    47 A               5.039  0.00     2 fB
                                    2.84%     5 A               2.943  2.00     1 fA
                                    2.79%     6 A               7.775  0.00     1 fA
                                    2.67%    49 A               5.846  0.00     2 fB
                                    2.65%    44 A               3.795  0.00     2 fB
                                    1.91%    41 A               2.515  0.00     2 fB
                                    1.67%     3 A               2.943  2.00     1 fA
                                    1.59%    37 A               0.301  0.00     2 fB
                                    1.54%    26 A             -11.055  2.00     2 fB
                                    1.07%    39 A               0.904  0.00     2 fB
                                    1.02%    22 A             -16.999  2.00     2 fB
       0.05568       224 A         25.57%    29 A              -8.324  2.00     2 fB
                                   22.21%    36 A              -0.322  0.00     2 fB
                                   10.75%    25 A             -11.867  2.00     2 fB
                                    4.79%    30 A              -8.128  2.00     2 fB
                                    3.82%    34 A              -1.163  0.00     2 fB
                                    3.09%    49 A               5.846  0.00     2 fB
                                    2.95%    47 A               5.039  0.00     2 fB
                                    2.82%    44 A               3.795  0.00     2 fB
                                   -2.69%     6 A               7.775  0.00     1 fA
                                    2.60%    31 A              -6.759  2.00     2 fB
                                    2.14%    41 A               2.515  0.00     2 fB
                                    1.82%     5 A               2.943  2.00     1 fA
                                    1.71%     7 A              22.094  0.00     1 fA
                                    1.40%    26 A             -11.055  2.00     2 fB
                                    1.40%    39 A               0.904  0.00     2 fB
                                    1.36%    24 A             -12.586  2.00     2 fB
                                    1.14%    37 A               0.301  0.00     2 fB
      -0.05183         8 A         32.63%     7 A              22.094  0.00     1 fA
                                   10.49%    30 A              -8.128  2.00     2 fB
                                    9.06%    24 A             -12.586  2.00     2 fB
                                    7.60%    29 A              -8.324  2.00     2 fB
                                    5.18%     3 A               2.943  2.00     1 fA
                                    3.79%     6 A               7.775  0.00     1 fA
                                    3.78%     4 A               2.943  2.00     1 fA
                                    3.06%     5 A               2.943  2.00     1 fA
                                    3.04%    38 A               0.597  0.00     2 fB
                                    2.33%    34 A              -1.163  0.00     2 fB
                                    2.11%    26 A             -11.055  2.00     2 fB
                                    1.90%    39 A               0.904  0.00     2 fB
                                    1.48%    40 A               2.054  0.00     2 fB
                                    1.27%    45 A               4.239  0.00     2 fB
                                    1.17%    32 A              -6.719  2.00     2 fB
                                    1.13%    43 A               3.565  0.00     2 fB
                                   -1.02%    20 A             -21.043  2.00     2 fB
       0.05183       223 A         22.00%    24 A             -12.586  2.00     2 fB
                                   17.48%     7 A              22.094  0.00     1 fA
                                   12.49%    30 A              -8.128  2.00     2 fB
                                    6.12%    29 A              -8.324  2.00     2 fB
                                    3.87%    38 A               0.597  0.00     2 fB
                                    3.66%    45 A               4.239  0.00     2 fB
                                    2.78%    20 A             -21.043  2.00     2 fB
                                    2.62%    34 A              -1.163  0.00     2 fB
                                    2.38%     3 A               2.943  2.00     1 fA
                                    2.05%    14 A              42.594  0.00     1 fA
                                    1.96%     4 A               2.943  2.00     1 fA
                                    1.92%    40 A               2.054  0.00     2 fB
                                    1.91%    26 A             -11.055  2.00     2 fB
                                    1.81%    12 A              42.594  0.00     1 fA
                                    1.71%    39 A               0.904  0.00     2 fB
                                    1.53%     5 A               2.943  2.00     1 fA
                                    1.37%    23 A             -13.698  2.00     2 fB
                                    1.21%    22 A             -16.999  2.00     2 fB
                                    1.21%     9 A              22.094  0.00     1 fA
 Mulliken charges used for AMS results%charges...


    =====================
     CALCULATION RESULTS
    =====================

Energy (hartree)            -0.07842779


--------------
Atomic charges
--------------
  Index   Atom    Charge
      1      F   -0.6751
      2      C    0.6752
      3      H   -0.1618
      4     Br   -0.5746
      5      C    0.4151
      6      H   -0.1720
      7      H   -0.1491
      8      H   -0.1144
      9      C    0.0894
     10      N   -0.3327


Dipole moment vector    (Debye):    -2.67665218   -1.64194904   -3.74849611
              magnitude (Debye):     4.88995773


-----------------------
Molecular orbitals info
-----------------------
n orbitals:              230
n spin:                    1

Note: only printing virtual orbitals with
      energy smaller than HOMO + 100. eV

HOMO (eV):              -1.6143
LUMO (eV):               2.5456
HOMO-LUMO gap (eV):      4.1599

   Index   Energy (eV)    Occupation
     151       97.3476         0.000       
     150       96.8040         0.000       
     149       95.8104         0.000       
     148       92.8469         0.000       
     147       91.7865         0.000       
     146       90.3583         0.000       
     145       88.1578         0.000       
     144       87.0558         0.000       
     143       86.1800         0.000       
     142       85.8159         0.000       
     141       84.5992         0.000       
     140       83.6927         0.000       
     139       82.3874         0.000       
     138       82.0843         0.000       
     137       81.5422         0.000       
     136       80.0557         0.000       
     135       79.4588         0.000       
     134       77.7936         0.000       
     133       77.7458         0.000       
     132       75.4983         0.000       
     131       74.3579         0.000       
     130       72.7378         0.000       
     129       71.1108         0.000       
     128       69.8199         0.000       
     127       69.3530         0.000       
     126       67.9228         0.000       
     125       65.8582         0.000       
     124       65.4868         0.000       
     123       64.0945         0.000       
     122       62.7593         0.000       
     121       61.3084         0.000       
     120       58.7362         0.000       
     119       57.2100         0.000       
     118       56.7282         0.000       
     117       53.3233         0.000       
     116       52.4834         0.000       
     115       51.4981         0.000       
     114       50.5513         0.000       
     113       49.5938         0.000       
     112       48.7781         0.000       
     111       47.9173         0.000       
     110       47.2353         0.000       
     109       46.5740         0.000       
     108       45.0883         0.000       
     107       44.0584         0.000       
     106       43.3152         0.000       
     105       42.6117         0.000       
     104       41.7855         0.000       
     103       40.9291         0.000       
     102       40.4380         0.000       
     101       40.0119         0.000       
     100       39.4732         0.000       
      99       38.5750         0.000       
      98       37.9848         0.000       
      97       37.3608         0.000       
      96       36.6115         0.000       
      95       36.0911         0.000       
      94       35.3352         0.000       
      93       34.1733         0.000       
      92       33.5073         0.000       
      91       32.8417         0.000       
      90       32.6955         0.000       
      89       31.9426         0.000       
      88       31.4425         0.000       
      87       31.0991         0.000       
      86       30.3316         0.000       
      85       29.6910         0.000       
      84       29.3590         0.000       
      83       28.9995         0.000       
      82       28.7610         0.000       
      81       28.4319         0.000       
      80       27.7872         0.000       
      79       26.9704         0.000       
      78       26.2587         0.000       
      77       25.1933         0.000       
      76       23.7467         0.000       
      75       23.2076         0.000       
      74       21.6507         0.000       
      73       21.5683         0.000       
      72       21.3237         0.000       
      71       19.7156         0.000       
      70       19.5640         0.000       
      69       17.2158         0.000       
      68       16.9292         0.000       
      67       16.4503         0.000       
      66       15.8623         0.000       
      65       15.0538         0.000       
      64       14.4116         0.000       
      63       14.0727         0.000       
      62       13.8878         0.000       
      61       13.3618         0.000       
      60       12.8954         0.000       
      59       12.1546         0.000       
      58       11.9425         0.000       
      57       11.7847         0.000       
      56       11.0873         0.000       
      55       10.1337         0.000       
      54        9.8587         0.000       
      53        9.3744         0.000       
      52        8.9421         0.000       
      51        8.6319         0.000       
      50        8.3232         0.000       
      49        8.0018         0.000       
      48        7.2542         0.000       
      47        7.1749         0.000       
      46        6.5055         0.000       
      45        6.2955         0.000       
      44        5.2388         0.000       
      43        4.8176         0.000       
      42        4.4872         0.000       
      41        3.6654         0.000       
      40        3.4500         0.000       
      39        3.0661         0.000       
      38        2.5456         0.000 < LUMO
      37       -1.6143         2.000 < HOMO
      36       -1.6844         2.000       
      35       -1.7015         2.000       
      34       -2.1678         2.000       
      33       -2.1906         2.000       
      32       -3.7235         2.000       
      31       -4.2947         2.000       
      30       -4.4069         2.000       
      29       -5.0168         2.000       
      28       -6.1872         2.000       
      27       -6.9948         2.000       
      26       -7.7365         2.000       
      25       -8.9651         2.000       
      24      -12.0108         2.000       
      23      -14.4072         2.000       
      22      -16.1555         2.000       
      21      -18.6262         2.000       
      20      -20.3857         2.000       
      19      -60.4785         2.000       
      18      -60.4804         2.000       
      17      -60.6144         2.000       
      16      -60.6176         2.000       
      15      -60.6618         2.000       
      14     -167.0304         2.000       
      13     -167.0337         2.000       
      12     -167.2149         2.000       
      11     -230.8643         2.000       
      10     -267.2729         2.000       
       9     -267.4545         2.000       
       8     -267.6055         2.000       
       7     -377.8115         2.000       
       6     -653.1009         2.000       
       5    -1521.1176         2.000       
       4    -1521.1189         2.000       
       3    -1521.1795         2.000       
       2    -1724.2287         2.000       
       1   -13290.7750         2.000       

AMS application finished. Exiting.
NORMAL TERMINATION
     Total cpu time:      48.50
  Total system time:       0.27
 Total elapsed time:      48.93
NORMAL TERMINATION
