
 *******************************************************************************
 *                                                                             *
 *  --------------------------------                                           *
 *   Amsterdam Modeling Suite (AMS)              2026.103                      *
 *  --------------------------------                                           *
 *                                               r260501 2026-05-01 873454b5   *
 *                                                                             *
 *                                                                             *
 *                              =================                              *
 *                              |               |                              *
 *                              |     A M S     |                              *
 *                              |               |                              *
 *                              =================                              *
 *                                                                             *
 *                                                                             *
 *   Online information and documentation:  https://www.scm.com/support/       *
 *   E-mail:  support@scm.com   info@scm.com                                   *
 *                                                                             *
 *   Scientific publications using AMS results must be properly referenced     *
 *   See the User Manuals (or the web site) for recommended citations          *
 *   The terms and conditions of the End User License Agreement apply to       *
 *   the use of AMS, https://www.scm.com/license-terms/                        *
 *                                                                             *
 **********************  x86_64_linux_intel / intelmpi  ************************
 
 Licensed to: Jong-June Jeon / University of Seoul 2026-05-13 16:10:32
 SCM User ID: u30731
  
 AMS 2026.103  RunTime: May30-2026 05:38:32  ShM Nodes: 1  Procs: 1

 AMS jobname: c3_eda
 AMS jobid  : 121478212

 Start   directory: /gpfs/home1/yeseo1ee/projects/eda-asm-prediction/adf_outputs/batch_000/dipolar_001139/
 Results directory: /gpfs/home1/yeseo1ee/projects/eda-asm-prediction/adf_outputs/batch_000/dipolar_001139/c3_eda.results/
 Scratch directory: /tmp/amstmp_c3_eda_kid0.121478212/

 RNG seed: 189498140 2072169872 1072211099 -1504221977 677623637 -986062506 -1378113673 -1223324934



                      ************************************************************************
                      *  ADF 2026.103  RunTime: May30-2026 05:38:32  ShM Nodes: 1  Procs: 1  *
                      ************************************************************************
  

       ****************************
       * SINGLE POINT CALCULATION *
       ****************************

--------
Geometry
--------
Formula: C21H15ClN2O
Atoms
  Index Symbol   x (angstrom)   y (angstrom)   z (angstrom)
      1      C    -1.15171000    -0.61655000     0.78585000 adf.f=fA
      2      C    -1.18590000    -2.04062000     0.19793000 adf.f=fA
      3      C    -2.54784000    -2.65297000     0.60058000 adf.f=fA
      4      C    -3.45683000    -1.99274000    -0.12530000 adf.f=fA
      5      C    -2.63601000    -0.98879000    -0.96402000 adf.f=fA
      6      O    -1.44382000    -1.75073000    -1.19673000 adf.f=fA
      7      C    -2.05307000     0.05949000     0.01677000 adf.f=fA
      8     Cl    -2.99842000     1.44715000     0.50721000 adf.f=fA
      9      H    -0.78109000    -0.35520000     1.77339000 adf.f=fA
     10      H    -0.29386000    -2.66189000     0.32423000 adf.f=fA
     11      H    -2.69083000    -3.41218000     1.36933000 adf.f=fA
     12      H    -4.54359000    -2.06697000    -0.11969000 adf.f=fA
     13      H    -3.07817000    -0.60293000    -1.88873000 adf.f=fA
     14      N    -1.80838000     2.29124000    -3.52646000 adf.f=fB
     15      C    -1.21228000     1.80777000    -2.64310000 adf.f=fB
     16      C    -0.71310000     1.15463000    -1.51398000 adf.f=fB
     17      N     0.41575000     0.99584000    -1.05962000 adf.f=fB
     18      C     1.14694000     0.43895000    -0.11906000 adf.f=fB
     19      C     1.75915000    -0.86981000    -0.41090000 adf.f=fB
     20      C     2.22420000    -1.69134000     0.63572000 adf.f=fB
     21      C     2.71769000    -2.96705000     0.36601000 adf.f=fB
     22      C     2.75674000    -3.44860000    -0.94733000 adf.f=fB
     23      C     2.29461000    -2.64115000    -1.99153000 adf.f=fB
     24      C     1.80165000    -1.36356000    -1.72854000 adf.f=fB
     25      C     1.56411000     1.30182000     1.01435000 adf.f=fB
     26      C     2.86823000     1.23845000     1.53789000 adf.f=fB
     27      C     3.24721000     2.06966000     2.59412000 adf.f=fB
     28      C     2.33551000     2.97777000     3.13914000 adf.f=fB
     29      C     1.03985000     3.05745000     2.61473000 adf.f=fB
     30      C     0.65766000     2.23205000     1.55913000 adf.f=fB
     31      H     2.16334000    -1.34533000     1.66767000 adf.f=fB
     32      H     3.06473000    -3.59412000     1.19041000 adf.f=fB
     33      H     3.14426000    -4.44848000    -1.15506000 adf.f=fB
     34      H     2.32261000    -3.00640000    -3.02065000 adf.f=fB
     35      H     1.45126000    -0.73771000    -2.55090000 adf.f=fB
     36      H     3.59570000     0.54923000     1.10858000 adf.f=fB
     37      H     4.26459000     2.01007000     2.98734000 adf.f=fB
     38      H     2.63322000     3.62508000     3.96718000 adf.f=fB
     39      H     0.32120000     3.76561000     3.03336000 adf.f=fB
     40      H    -0.35758000     2.29879000     1.16509000 adf.f=fB

Total System Charge              0.00000


----------------
ADF Engine Input
----------------
 
   Basis
     Type TZ2P
     Core None
   End
   XC
     GGA BLYP
     Dispersion GRIMME3 BJDAMP
   End
   Symmetry NOSYM
   NumericalQuality Normal
   Unrestricted No
   SCF
     Iterations 200
     Converge 1.0e-6
   End
   fragments
     fA c1_fragA_ts.results/adf.rkf
     fB c2_fragB_ts.results/adf.rkf
   end
   etsnocv
     enocv 0.05
     ekmin 0.5
   end
   print etslowdin
   Save TAPE21
 

 Title: *** (NO TITLE) ***

 *** adf ***



 ===========================
 A T T A C H E D   F I L E S
 ===========================
  



 ===============================
 M O D E L   P A R A M E T E R S
 ===============================
  
 DENSITY FUNCTIONAL POTENTIAL (scf)
    LDA:                               Exchange only                           == Not Default ==
    Gradient Corrections:              Becke88 LYP                             == Not Default ==

 SPIN  (restricted / unrestr.)
    Molecule:                          Restricted                               
    Fragments:                         Restricted                               

 OTHER ASPECTS
    Relativistic Corrections:          scalar (ZORA,MAPA)                       

    Nuclear Charge Density Model:      Point Charge Nuclei                      
    Core Treatment:                    Frozen Orbital(s)                        

    Hyperfine or Zeeman Interaction:   ---                                      

 Settings for Grimme D3 dispersion correction

      damping                        BJ
      s6                          1.000
      s8                          2.700
      a1                          0.430
      a2                          4.236

 Other (technical) parameters

      alpha                      14.000
      version                         4
 


 Fragment File(s)
 ----------------
 fA:
         file : c1_fragA_ts.results/adf.rkf
         jobid: 1402141755
         title: *** adf ***
 fB:
         file : c2_fragB_ts.results/adf.rkf
         jobid: 1986138816
         title: *** adf ***



 ===============
 G E O M E T R Y  ***  3D  Molecule  ***
 ===============
  

 ATOMS
 =====                            X Y Z                    CHARGE
                                (Angstrom)             Nucl     +Core       At.Mass
                       --------------------------    ----------------       -------
    1  C              -1.1517   -0.6166    0.7859      6.00      6.00       12.0000
    2  C              -1.1859   -2.0406    0.1979      6.00      6.00       12.0000
    3  C              -2.5478   -2.6530    0.6006      6.00      6.00       12.0000
    4  C              -3.4568   -1.9927   -0.1253      6.00      6.00       12.0000
    5  C              -2.6360   -0.9888   -0.9640      6.00      6.00       12.0000
    6  O              -1.4438   -1.7507   -1.1967      8.00      8.00       15.9949
    7  C              -2.0531    0.0595    0.0168      6.00      6.00       12.0000
    8  Cl             -2.9984    1.4471    0.5072     17.00     17.00       34.9689
    9  H              -0.7811   -0.3552    1.7734      1.00      1.00        1.0078
   10  H              -0.2939   -2.6619    0.3242      1.00      1.00        1.0078
   11  H              -2.6908   -3.4122    1.3693      1.00      1.00        1.0078
   12  H              -4.5436   -2.0670   -0.1197      1.00      1.00        1.0078
   13  H              -3.0782   -0.6029   -1.8887      1.00      1.00        1.0078
   14  N              -1.8084    2.2912   -3.5265      7.00      7.00       14.0031
   15  C              -1.2123    1.8078   -2.6431      6.00      6.00       12.0000
   16  C              -0.7131    1.1546   -1.5140      6.00      6.00       12.0000
   17  N               0.4158    0.9958   -1.0596      7.00      7.00       14.0031
   18  C               1.1469    0.4389   -0.1191      6.00      6.00       12.0000
   19  C               1.7591   -0.8698   -0.4109      6.00      6.00       12.0000
   20  C               2.2242   -1.6913    0.6357      6.00      6.00       12.0000
   21  C               2.7177   -2.9670    0.3660      6.00      6.00       12.0000
   22  C               2.7567   -3.4486   -0.9473      6.00      6.00       12.0000
   23  C               2.2946   -2.6412   -1.9915      6.00      6.00       12.0000
   24  C               1.8016   -1.3636   -1.7285      6.00      6.00       12.0000
   25  C               1.5641    1.3018    1.0144      6.00      6.00       12.0000
   26  C               2.8682    1.2384    1.5379      6.00      6.00       12.0000
   27  C               3.2472    2.0697    2.5941      6.00      6.00       12.0000
   28  C               2.3355    2.9778    3.1391      6.00      6.00       12.0000
   29  C               1.0398    3.0574    2.6147      6.00      6.00       12.0000
   30  C               0.6577    2.2321    1.5591      6.00      6.00       12.0000
   31  H               2.1633   -1.3453    1.6677      1.00      1.00        1.0078
   32  H               3.0647   -3.5941    1.1904      1.00      1.00        1.0078
   33  H               3.1443   -4.4485   -1.1551      1.00      1.00        1.0078
   34  H               2.3226   -3.0064   -3.0206      1.00      1.00        1.0078
   35  H               1.4513   -0.7377   -2.5509      1.00      1.00        1.0078
   36  H               3.5957    0.5492    1.1086      1.00      1.00        1.0078
   37  H               4.2646    2.0101    2.9873      1.00      1.00        1.0078
   38  H               2.6332    3.6251    3.9672      1.00      1.00        1.0078
   39  H               0.3212    3.7656    3.0334      1.00      1.00        1.0078
   40  H              -0.3576    2.2988    1.1651      1.00      1.00        1.0078


 FRAGMENTS
 =========                                     Atoms in this Fragment     Cart. coord.s (Angstrom)
                                               -------------------------------------------------------
    1  fA                                                1  C           -1.1517   -0.6166    0.7859
                                                         2  C           -1.1859   -2.0406    0.1979
                                                         3  C           -2.5478   -2.6530    0.6006
                                                         4  C           -3.4568   -1.9927   -0.1253
                                                         5  C           -2.6360   -0.9888   -0.9640
                                                         7  C           -2.0531    0.0595    0.0168
                                                         6  O           -1.4438   -1.7507   -1.1967
                                                         8  Cl          -2.9984    1.4471    0.5072
                                                         9  H           -0.7811   -0.3552    1.7734
                                                        10  H           -0.2939   -2.6619    0.3242
                                                        11  H           -2.6908   -3.4122    1.3693
                                                        12  H           -4.5436   -2.0670   -0.1197
                                                        13  H           -3.0782   -0.6029   -1.8887
    2  fB                                               14  N           -1.8084    2.2912   -3.5265
                                                        17  N            0.4158    0.9958   -1.0596
                                                        15  C           -1.2123    1.8078   -2.6431
                                                        16  C           -0.7131    1.1546   -1.5140
                                                        18  C            1.1469    0.4389   -0.1191
                                                        19  C            1.7591   -0.8698   -0.4109
                                                        20  C            2.2242   -1.6913    0.6357
                                                        21  C            2.7177   -2.9670    0.3660
                                                        22  C            2.7567   -3.4486   -0.9473
                                                        23  C            2.2946   -2.6412   -1.9915
                                                        24  C            1.8016   -1.3636   -1.7285
                                                        25  C            1.5641    1.3018    1.0144
                                                        26  C            2.8682    1.2384    1.5379
                                                        27  C            3.2472    2.0697    2.5941
                                                        28  C            2.3355    2.9778    3.1391
                                                        29  C            1.0398    3.0574    2.6147
                                                        30  C            0.6577    2.2321    1.5591
                                                        31  H            2.1633   -1.3453    1.6677
                                                        32  H            3.0647   -3.5941    1.1904
                                                        33  H            3.1443   -4.4485   -1.1551
                                                        34  H            2.3226   -3.0064   -3.0206
                                                        35  H            1.4513   -0.7377   -2.5509
                                                        36  H            3.5957    0.5492    1.1086
                                                        37  H            4.2646    2.0101    2.9873
                                                        38  H            2.6332    3.6251    3.9672
                                                        39  H            0.3212    3.7656    3.0334
                                                        40  H           -0.3576    2.2988    1.1651



 =====================================
 S Y M M E T R Y ,   E L E C T R O N S
 =====================================
  
 Symmetry: NOSYM

 Irreducible Representations, including subspecies
 -------------------------------------------------
 A


 Configuration of Valence Electrons
 ==================================
 ( determined in the SCF procedure )

 Total:   180

 Net Charge: 0 (Nuclei minus Electrons)

 Aufbau principle for MO occupations will be applied through SCF cycle no.     100
 Thereafter, the program will assign electrons to MOs that are spatially
 similar to the occupied MOs in a "reference" cycle ("KeepOrbitals").
 The reference cycle is always the PREVIOUS cycle: it will evolve with
 the SCF procedure.
 ***************************************************************************************************



                                      ****************************************
                                      *  B U I L D : (Fragments, Functions)  *
                                      ****************************************
  

 The individual fragments are copies of the corresponding 'Master' fragments defined on the fragment files.
 However, they may have been rotated (and translated) with respect to the Master. The local coordinate axes
 of each fragment (which define for instance the spatial orientation in the current molecule of a fragment
 P:x orbital) are not necessarily those of the molecule.
 The local frame (if different from the molecular one) is printed to enable an interpretation of the expan-
 sion of an MO in Fragment Orbitals.



                                              ************************
                                              *  Fragment Type : fA  *
                                              ************************
  

 Fragment no.    1   (in the list of all fragments)
 -----------------
 The local coordinate frame is identical to the molecular frame.

 Check Atomic Coordinates:

                  Master (on file)          After Computed Tranformation               As specified on Input
           ----------------------------     ----------------------------     ---------------------------------
     1)    -1.15171  -0.61655   0.78585     -1.15171  -0.61655   0.78585       1  -1.15171  -0.61655   0.78585
     2)    -1.18590  -2.04062   0.19793     -1.18590  -2.04062   0.19793       2  -1.18590  -2.04062   0.19793
     3)    -2.54784  -2.65297   0.60058     -2.54784  -2.65297   0.60058       3  -2.54784  -2.65297   0.60058
     4)    -3.45683  -1.99274  -0.12530     -3.45683  -1.99274  -0.12530       4  -3.45683  -1.99274  -0.12530
     5)    -2.63601  -0.98879  -0.96402     -2.63601  -0.98879  -0.96402       5  -2.63601  -0.98879  -0.96402
     6)    -2.05307   0.05949   0.01677     -2.05307   0.05949   0.01677       7  -2.05307   0.05949   0.01677
     7)    -1.44382  -1.75073  -1.19673     -1.44382  -1.75073  -1.19673       6  -1.44382  -1.75073  -1.19673
     8)    -2.99842   1.44715   0.50721     -2.99842   1.44715   0.50721       8  -2.99842   1.44715   0.50721
     9)    -0.78109  -0.35520   1.77339     -0.78109  -0.35520   1.77339       9  -0.78109  -0.35520   1.77339
    10)    -0.29386  -2.66189   0.32423     -0.29386  -2.66189   0.32423      10  -0.29386  -2.66189   0.32423
    11)    -2.69083  -3.41218   1.36933     -2.69083  -3.41218   1.36933      11  -2.69083  -3.41218   1.36933
    12)    -4.54359  -2.06697  -0.11969     -4.54359  -2.06697  -0.11969      12  -4.54359  -2.06697  -0.11969
    13)    -3.07817  -0.60293  -1.88873     -3.07817  -0.60293  -1.88873      13  -3.07817  -0.60293  -1.88873



                                              ************************
                                              *  Fragment Type : fB  *
                                              ************************
  

 Fragment no.    2   (in the list of all fragments)
 -----------------
 The local coordinate frame is identical to the molecular frame.

 Check Atomic Coordinates:

                  Master (on file)          After Computed Tranformation               As specified on Input
           ----------------------------     ----------------------------     ---------------------------------
     1)    -1.80838   2.29124  -3.52646     -1.80838   2.29124  -3.52646      14  -1.80838   2.29124  -3.52646
     2)     0.41575   0.99584  -1.05962      0.41575   0.99584  -1.05962      17   0.41575   0.99584  -1.05962
     3)    -1.21228   1.80777  -2.64310     -1.21228   1.80777  -2.64310      15  -1.21228   1.80777  -2.64310
     4)    -0.71310   1.15463  -1.51398     -0.71310   1.15463  -1.51398      16  -0.71310   1.15463  -1.51398
     5)     1.14694   0.43895  -0.11906      1.14694   0.43895  -0.11906      18   1.14694   0.43895  -0.11906
     6)     1.75915  -0.86981  -0.41090      1.75915  -0.86981  -0.41090      19   1.75915  -0.86981  -0.41090
     7)     2.22420  -1.69134   0.63572      2.22420  -1.69134   0.63572      20   2.22420  -1.69134   0.63572
     8)     2.71769  -2.96705   0.36601      2.71769  -2.96705   0.36601      21   2.71769  -2.96705   0.36601
     9)     2.75674  -3.44860  -0.94733      2.75674  -3.44860  -0.94733      22   2.75674  -3.44860  -0.94733
    10)     2.29461  -2.64115  -1.99153      2.29461  -2.64115  -1.99153      23   2.29461  -2.64115  -1.99153
    11)     1.80165  -1.36356  -1.72854      1.80165  -1.36356  -1.72854      24   1.80165  -1.36356  -1.72854
    12)     1.56411   1.30182   1.01435      1.56411   1.30182   1.01435      25   1.56411   1.30182   1.01435
    13)     2.86823   1.23845   1.53789      2.86823   1.23845   1.53789      26   2.86823   1.23845   1.53789
    14)     3.24721   2.06966   2.59412      3.24721   2.06966   2.59412      27   3.24721   2.06966   2.59412
    15)     2.33551   2.97777   3.13914      2.33551   2.97777   3.13914      28   2.33551   2.97777   3.13914
    16)     1.03985   3.05745   2.61473      1.03985   3.05745   2.61473      29   1.03985   3.05745   2.61473
    17)     0.65766   2.23205   1.55913      0.65766   2.23205   1.55913      30   0.65766   2.23205   1.55913
    18)     2.16334  -1.34533   1.66767      2.16334  -1.34533   1.66767      31   2.16334  -1.34533   1.66767
    19)     3.06473  -3.59412   1.19041      3.06473  -3.59412   1.19041      32   3.06473  -3.59412   1.19041
    20)     3.14426  -4.44848  -1.15506      3.14426  -4.44848  -1.15506      33   3.14426  -4.44848  -1.15506
    21)     2.32261  -3.00640  -3.02065      2.32261  -3.00640  -3.02065      34   2.32261  -3.00640  -3.02065
    22)     1.45126  -0.73771  -2.55090      1.45126  -0.73771  -2.55090      35   1.45126  -0.73771  -2.55090
    23)     3.59570   0.54923   1.10858      3.59570   0.54923   1.10858      36   3.59570   0.54923   1.10858
    24)     4.26459   2.01007   2.98734      4.26459   2.01007   2.98734      37   4.26459   2.01007   2.98734
    25)     2.63322   3.62508   3.96718      2.63322   3.62508   3.96718      38   2.63322   3.62508   3.96718
    26)     0.32120   3.76561   3.03336      0.32120   3.76561   3.03336      39   0.32120   3.76561   3.03336
    27)    -0.35758   2.29879   1.16509     -0.35758   2.29879   1.16509      40  -0.35758   2.29879   1.16509



 =======
 S F O s  ***  (Symmetrized Fragment Orbitals)  ***
 =======
  
 SFOs are linear combinations of (valence) Fragment Orbitals (FOs), such that the SFOs transform as the
 irreducible representations of the (molecular) symmetry group. Each SFO is therefore characterized by
 an irrep of the molecule and by a few (or only one) generating FOs.
 The SFOs constitute a symmetry-adapted basis for the Fock matrix. The MO eigenvector coefficients in
 this basis provide a direct interpretation of the MOs in terms of Frontier Orbital Theory.

 The SFOs are combined with auxiliary Core Functions (CFs) to ensure orthogonalization on the (frozen)
 Core Orbitals (COs). The Core-orthogonalized SFOs (CSFOs) constitute the true Fock basis.

 The FOs, and hence also the (C)SFOs are combinations of the elementary basis functions (BAS). The basis
 functions that participate in the description of the SFOs depend on the irrep. The indices of the
 involved functions are printed below for each irrep.
 (The complete list of primitive basis functions is printed in another section)

 Total nr. of (C)SFOs (summation over all irreps) :   823

 NOTE: a (C)SFO that is defined as a combination of more than one FO is usually NOT normalized.



                                       === A ===
 Nr. of SFOs :  823
 Cartesian basis functions that participate in this irrep (total number =   938) :
      1     2     3     4     5     6     9    12     7    10
     13     8    11    14    15    16    17    18    19    20
     21    22    23    24    25    26    27    28    29    30
     31    32    33    34    35    36    39    42    37    40
     43    38    41    44    45    46    47    48    49    50
     51    52    53    54    55    56    57    58    59    60
     61    62    63    64    65    66    69    72    67    70
     73    68    71    74    75    76    77    78    79    80
     81    82    83    84    85    86    87    88    89    90
     91    92    93    94    95    96    99   102    97   100
    103    98   101   104   105   106   107   108   109   110
    111   112   113   114   115   116   117   118   119   120
    121   122   123   124   125   126   129   132   127   130
    133   128   131   134   135   136   137   138   139   140
    141   142   143   144   145   146   147   148   149   150
    151   152   153   154   155   156   159   162   157   160
    163   158   161   164   165   166   167   168   169   170
    171   172   173   174   175   176   177   178   179   180
    181   182   183   184   185   186   189   192   187   190
    193   188   191   194   195   196   197   198   199   200
    201   202   203   204   205   206   207   208   209   210
    211   212   213   214   221   222   223   215   218   224
    227   230   216   219   225   228   231   217   220   226
    229   232   233   234   235   236   237   238   239   240
    241   242   243   244   245   246   247   248   249   250
    251   252   253   254   255   256   257   258   259   260
    261   262   263   264   265   266   267   268   269   270
    271   272   273   274   275   276   277   278   279   280
    281   282   283   284   285   286   287   288   289   290
    291   292   293   294   295   296   297   298   299   300
    301   302   303   304   305   306   307   308   309   310
    311   312   313   314   317   320   315   318   321   316
    319   322   323   324   325   326   327   328   329   330
    331   332   333   334   335   336   337   338   339   340
    341   342   343   344   347   350   345   348   351   346
    349   352   353   354   355   356   357   358   359   360
    361   362   363   364   365   366   367   368   369   370
    371   372   373   374   377   380   375   378   381   376
    379   382   383   384   385   386   387   388   389   390
    391   392   393   394   395   396   397   398   399   400
    401   402   403   404   407   410   405   408   411   406
    409   412   413   414   415   416   417   418   419   420
    421   422   423   424   425   426   427   428   429   430
    431   432   433   434   437   440   435   438   441   436
    439   442   443   444   445   446   447   448   449   450
    451   452   453   454   455   456   457   458   459   460
    461   462   463   464   467   470   465   468   471   466
    469   472   473   474   475   476   477   478   479   480
    481   482   483   484   485   486   487   488   489   490
    491   492   493   494   497   500   495   498   501   496
    499   502   503   504   505   506   507   508   509   510
    511   512   513   514   515   516   517   518   519   520
    521   522   523   524   527   530   525   528   531   526
    529   532   533   534   535   536   537   538   539   540
    541   542   543   544   545   546   547   548   549   550
    551   552   553   554   557   560   555   558   561   556
    559   562   563   564   565   566   567   568   569   570
    571   572   573   574   575   576   577   578   579   580
    581   582   583   584   587   590   585   588   591   586
    589   592   593   594   595   596   597   598   599   600
    601   602   603   604   605   606   607   608   609   610
    611   612   613   614   617   620   615   618   621   616
    619   622   623   624   625   626   627   628   629   630
    631   632   633   634   635   636   637   638   639   640
    641   642   643   644   647   650   645   648   651   646
    649   652   653   654   655   656   657   658   659   660
    661   662   663   664   665   666   667   668   669   670
    671   672   673   674   677   680   675   678   681   676
    679   682   683   684   685   686   687   688   689   690
    691   692   693   694   695   696   697   698   699   700
    701   702   703   704   707   710   705   708   711   706
    709   712   713   714   715   716   717   718   719   720
    721   722   723   724   725   726   727   728   729   730
    731   732   733   734   737   740   735   738   741   736
    739   742   743   744   745   746   747   748   749   750
    751   752   753   754   755   756   757   758   759   760
    761   762   763   764   767   770   765   768   771   766
    769   772   773   774   775   776   777   778   779   780
    781   782   783   784   785   786   787   788   789   790
    791   792   793   794   797   800   795   798   801   796
    799   802   803   804   805   806   807   808   809   810
    811   812   813   814   815   816   817   818   819   820
    821   822   823   824   825   826   827   828   829   830
    831   832   833   834   835   836   837   838   839   840
    841   842   843   844   845   846   847   848   849   850
    851   852   853   854   855   856   857   858   859   860
    861   862   863   864   865   866   867   868   869   870
    871   872   873   874   875   876   877   878   879   880
    881   882   883   884   885   886   887   888   889   890
    891   892   893   894   895   896   897   898   899   900
    901   902   903   904   905   906   907   908   909   910
    911   912   913   914   915   916   917   918   919   920
    921   922   923   924   925   926   927   928   929   930
    931   932   933   934   935   936   937   938

    SFO  (index         Fragment          Generating    Expansion in Fragment Orbitals
  indx  incl.CFs)   Occup   Orb.Energy   FragmentType  Coeff.   Orbital     on Fragment
 --------------------------------------------------------------------------------------
     1       1      2.000    -101.094 au  fA            1.00      1 A               1
                        (   -2750.916 eV)
     2       2      2.000     -18.806 au  fA            1.00      2 A               1
                        (    -511.749 eV)
     3       3      2.000      -9.999 au  fA            1.00      3 A               1
                        (    -272.081 eV)
     4       4      2.000      -9.998 au  fA            1.00      4 A               1
                        (    -272.053 eV)
     5       5      2.000      -9.986 au  fA            1.00      5 A               1
                        (    -271.732 eV)
     6       6      2.000      -9.941 au  fA            1.00      6 A               1
                        (    -270.513 eV)
     7       7      2.000      -9.939 au  fA            1.00      7 A               1
                        (    -270.450 eV)
     8       8      2.000      -9.938 au  fA            1.00      8 A               1
                        (    -270.429 eV)
     9       9      2.000      -9.247 au  fA            1.00      9 A               1
                        (    -251.635 eV)
    10      10      2.000      -7.015 au  fA            1.00     10 A               1
                        (    -190.880 eV)
    11      11      2.000      -7.005 au  fA            1.00     11 A               1
                        (    -190.606 eV)
    12      12      2.000      -7.004 au  fA            1.00     12 A               1
                        (    -190.581 eV)
    13      13      2.000      -0.981 au  fA            1.00     13 A               1
                        (     -26.682 eV)
    14      14      2.000      -0.801 au  fA            1.00     14 A               1
                        (     -21.807 eV)
    15      15      2.000      -0.736 au  fA            1.00     15 A               1
                        (     -20.023 eV)
    16      16      2.000      -0.691 au  fA            1.00     16 A               1
                        (     -18.790 eV)
    17      17      2.000      -0.671 au  fA            1.00     17 A               1
                        (     -18.258 eV)
    18      18      2.000      -0.539 au  fA            1.00     18 A               1
                        (     -14.654 eV)
    19      19      2.000      -0.516 au  fA            1.00     19 A               1
                        (     -14.044 eV)
    20      20      2.000      -0.501 au  fA            1.00     20 A               1
                        (     -13.639 eV)
    21      21      2.000      -0.485 au  fA            1.00     21 A               1
                        (     -13.208 eV)
    22      22      2.000      -0.449 au  fA            1.00     22 A               1
                        (     -12.226 eV)
    23      23      2.000      -0.391 au  fA            1.00     23 A               1
                        (     -10.633 eV)
    24      24      2.000      -0.382 au  fA            1.00     24 A               1
                        (     -10.403 eV)
    25      25      2.000      -0.374 au  fA            1.00     25 A               1
                        (     -10.185 eV)
    26      26      2.000      -0.355 au  fA            1.00     26 A               1
                        (      -9.663 eV)
    27      27      2.000      -0.345 au  fA            1.00     27 A               1
                        (      -9.400 eV)
    28      28      2.000      -0.329 au  fA            1.00     28 A               1
                        (      -8.947 eV)
    29      29      2.000      -0.307 au  fA            1.00     29 A               1
                        (      -8.340 eV)
    30      30      2.000      -0.288 au  fA            1.00     30 A               1
                        (      -7.831 eV)
    31      31      2.000      -0.242 au  fA            1.00     31 A               1
                        (      -6.582 eV)
    32      32      2.000      -0.237 au  fA            1.00     32 A               1
                        (      -6.442 eV)
    33      33      2.000      -0.202 au  fA            1.00     33 A               1
                        (      -5.491 eV)
    34      34       --        -0.090 au  fA            1.00     34 A               1
                        (      -2.437 eV)
    35      35       --        -0.027 au  fA            1.00     35 A               1
                        (      -0.730 eV)
    36      36       --        -0.010 au  fA            1.00     36 A               1
                        (      -0.267 eV)
    37      37       --         0.003 au  fA            1.00     37 A               1
                        (       0.073 eV)
    38      38       --         0.020 au  fA            1.00     38 A               1
                        (       0.534 eV)
    39      39       --         0.026 au  fA            1.00     39 A               1
                        (       0.705 eV)
    40      40       --         0.035 au  fA            1.00     40 A               1
                        (       0.946 eV)
    41      41       --         0.049 au  fA            1.00     41 A               1
                        (       1.325 eV)
    42      42       --         0.057 au  fA            1.00     42 A               1
                        (       1.545 eV)
    43      43       --         0.086 au  fA            1.00     43 A               1
                        (       2.328 eV)
    44      44       --         0.113 au  fA            1.00     44 A               1
                        (       3.075 eV)
    45      45       --         0.117 au  fA            1.00     45 A               1
                        (       3.178 eV)
    46      46       --         0.131 au  fA            1.00     46 A               1
                        (       3.563 eV)
    47      47       --         0.155 au  fA            1.00     47 A               1
                        (       4.221 eV)
    48      48       --         0.166 au  fA            1.00     48 A               1
                        (       4.527 eV)
    49      49       --         0.187 au  fA            1.00     49 A               1
                        (       5.092 eV)
    50      50       --         0.194 au  fA            1.00     50 A               1
                        (       5.267 eV)
    51      51       --         0.197 au  fA            1.00     51 A               1
                        (       5.365 eV)
    52      52       --         0.212 au  fA            1.00     52 A               1
                        (       5.761 eV)
    53      53       --         0.217 au  fA            1.00     53 A               1
                        (       5.899 eV)
    54      54       --         0.244 au  fA            1.00     54 A               1
                        (       6.644 eV)
    55      55       --         0.252 au  fA            1.00     55 A               1
                        (       6.851 eV)
    56      56       --         0.261 au  fA            1.00     56 A               1
                        (       7.106 eV)
    57      57       --         0.274 au  fA            1.00     57 A               1
                        (       7.458 eV)
    58      58       --         0.287 au  fA            1.00     58 A               1
                        (       7.807 eV)
    59      59       --         0.296 au  fA            1.00     59 A               1
                        (       8.051 eV)
    60      60       --         0.305 au  fA            1.00     60 A               1
                        (       8.295 eV)
    61      61       --         0.312 au  fA            1.00     61 A               1
                        (       8.484 eV)
    62      62       --         0.313 au  fA            1.00     62 A               1
                        (       8.521 eV)
    63      63       --         0.332 au  fA            1.00     63 A               1
                        (       9.046 eV)
    64      64       --         0.340 au  fA            1.00     64 A               1
                        (       9.247 eV)
    65      65       --         0.362 au  fA            1.00     65 A               1
                        (       9.859 eV)
    66      66       --         0.380 au  fA            1.00     66 A               1
                        (      10.345 eV)
    67      67       --         0.398 au  fA            1.00     67 A               1
                        (      10.841 eV)
    68      68       --         0.409 au  fA            1.00     68 A               1
                        (      11.140 eV)
    69      69       --         0.415 au  fA            1.00     69 A               1
                        (      11.301 eV)
    70      70       --         0.445 au  fA            1.00     70 A               1
                        (      12.114 eV)
    71      71       --         0.464 au  fA            1.00     71 A               1
                        (      12.627 eV)
    72      72       --         0.473 au  fA            1.00     72 A               1
                        (      12.884 eV)
    73      73       --         0.498 au  fA            1.00     73 A               1
                        (      13.544 eV)
    74      74       --         0.523 au  fA            1.00     74 A               1
                        (      14.231 eV)
    75      75       --         0.561 au  fA            1.00     75 A               1
                        (      15.272 eV)
    76      76       --         0.571 au  fA            1.00     76 A               1
                        (      15.532 eV)
    77      77       --         0.583 au  fA            1.00     77 A               1
                        (      15.871 eV)
    78      78       --         0.593 au  fA            1.00     78 A               1
                        (      16.128 eV)
    79      79       --         0.638 au  fA            1.00     79 A               1
                        (      17.365 eV)
    80      80       --         0.660 au  fA            1.00     80 A               1
                        (      17.961 eV)
    81      81       --         0.678 au  fA            1.00     81 A               1
                        (      18.449 eV)
    82      82       --         0.684 au  fA            1.00     82 A               1
                        (      18.623 eV)
    83      83       --         0.718 au  fA            1.00     83 A               1
                        (      19.543 eV)
    84      84       --         0.743 au  fA            1.00     84 A               1
                        (      20.228 eV)
    85      85       --         0.759 au  fA            1.00     85 A               1
                        (      20.641 eV)
    86      86       --         0.773 au  fA            1.00     86 A               1
                        (      21.022 eV)
    87      87       --         0.806 au  fA            1.00     87 A               1
                        (      21.943 eV)
    88      88       --         0.853 au  fA            1.00     88 A               1
                        (      23.224 eV)
    89      89       --         0.881 au  fA            1.00     89 A               1
                        (      23.971 eV)
    90      90       --         0.919 au  fA            1.00     90 A               1
                        (      25.020 eV)
    91      91       --         0.939 au  fA            1.00     91 A               1
                        (      25.550 eV)
    92      92       --         0.965 au  fA            1.00     92 A               1
                        (      26.264 eV)
    93      93       --         0.988 au  fA            1.00     93 A               1
                        (      26.884 eV)
    94      94       --         1.006 au  fA            1.00     94 A               1
                        (      27.371 eV)
    95      95       --         1.023 au  fA            1.00     95 A               1
                        (      27.825 eV)
    96      96       --         1.050 au  fA            1.00     96 A               1
                        (      28.572 eV)
    97      97       --         1.064 au  fA            1.00     97 A               1
                        (      28.957 eV)
    98      98       --         1.091 au  fA            1.00     98 A               1
                        (      29.691 eV)
    99      99       --         1.102 au  fA            1.00     99 A               1
                        (      29.981 eV)
   100     100       --         1.113 au  fA            1.00    100 A               1
                        (      30.274 eV)
   101     101       --         1.164 au  fA            1.00    101 A               1
                        (      31.672 eV)
   102     102       --         1.173 au  fA            1.00    102 A               1
                        (      31.908 eV)
   103     103       --         1.187 au  fA            1.00    103 A               1
                        (      32.304 eV)
   104     104       --         1.220 au  fA            1.00    104 A               1
                        (      33.208 eV)
   105     105       --         1.229 au  fA            1.00    105 A               1
                        (      33.446 eV)
   106     106       --         1.236 au  fA            1.00    106 A               1
                        (      33.642 eV)
   107     107       --         1.267 au  fA            1.00    107 A               1
                        (      34.490 eV)
   108     108       --         1.275 au  fA            1.00    108 A               1
                        (      34.685 eV)
   109     109       --         1.291 au  fA            1.00    109 A               1
                        (      35.143 eV)
   110     110       --         1.316 au  fA            1.00    110 A               1
                        (      35.814 eV)
   111     111       --         1.328 au  fA            1.00    111 A               1
                        (      36.144 eV)
   112     112       --         1.366 au  fA            1.00    112 A               1
                        (      37.162 eV)
   113     113       --         1.391 au  fA            1.00    113 A               1
                        (      37.856 eV)
   114     114       --         1.400 au  fA            1.00    114 A               1
                        (      38.095 eV)
   115     115       --         1.449 au  fA            1.00    115 A               1
                        (      39.421 eV)
   116     116       --         1.477 au  fA            1.00    116 A               1
                        (      40.194 eV)
   117     117       --         1.509 au  fA            1.00    117 A               1
                        (      41.052 eV)
   118     118       --         1.522 au  fA            1.00    118 A               1
                        (      41.425 eV)
   119     119       --         1.533 au  fA            1.00    119 A               1
                        (      41.720 eV)
   120     120       --         1.553 au  fA            1.00    120 A               1
                        (      42.259 eV)
   121     121       --         1.583 au  fA            1.00    121 A               1
                        (      43.080 eV)
   122     122       --         1.624 au  fA            1.00    122 A               1
                        (      44.194 eV)
   123     123       --         1.625 au  fA            1.00    123 A               1
                        (      44.207 eV)
   124     124       --         1.654 au  fA            1.00    124 A               1
                        (      44.995 eV)
   125     125       --         1.692 au  fA            1.00    125 A               1
                        (      46.039 eV)
   126     126       --         1.730 au  fA            1.00    126 A               1
                        (      47.073 eV)
   127     127       --         1.767 au  fA            1.00    127 A               1
                        (      48.078 eV)
   128     128       --         1.796 au  fA            1.00    128 A               1
                        (      48.860 eV)
   129     129       --         1.867 au  fA            1.00    129 A               1
                        (      50.801 eV)
   130     130       --         1.910 au  fA            1.00    130 A               1
                        (      51.972 eV)
   131     131       --         1.943 au  fA            1.00    131 A               1
                        (      52.877 eV)
   132     132       --         1.993 au  fA            1.00    132 A               1
                        (      54.230 eV)
   133     133       --         2.008 au  fA            1.00    133 A               1
                        (      54.652 eV)
   134     134       --         2.010 au  fA            1.00    134 A               1
                        (      54.703 eV)
   135     135       --         2.032 au  fA            1.00    135 A               1
                        (      55.297 eV)
   136     136       --         2.061 au  fA            1.00    136 A               1
                        (      56.090 eV)
   137     137       --         2.086 au  fA            1.00    137 A               1
                        (      56.762 eV)
   138     138       --         2.145 au  fA            1.00    138 A               1
                        (      58.366 eV)
   139     139       --         2.171 au  fA            1.00    139 A               1
                        (      59.065 eV)
   140     140       --         2.179 au  fA            1.00    140 A               1
                        (      59.290 eV)
   141     141       --         2.200 au  fA            1.00    141 A               1
                        (      59.852 eV)
   142     142       --         2.212 au  fA            1.00    142 A               1
                        (      60.191 eV)
   143     143       --         2.251 au  fA            1.00    143 A               1
                        (      61.244 eV)
   144     144       --         2.267 au  fA            1.00    144 A               1
                        (      61.680 eV)
   145     145       --         2.281 au  fA            1.00    145 A               1
                        (      62.074 eV)
   146     146       --         2.335 au  fA            1.00    146 A               1
                        (      63.527 eV)
   147     147       --         2.373 au  fA            1.00    147 A               1
                        (      64.561 eV)
   148     148       --         2.407 au  fA            1.00    148 A               1
                        (      65.501 eV)
   149     149       --         2.441 au  fA            1.00    149 A               1
                        (      66.414 eV)
   150     150       --         2.505 au  fA            1.00    150 A               1
                        (      68.157 eV)
   151     151       --         2.515 au  fA            1.00    151 A               1
                        (      68.443 eV)
   152     152       --         2.547 au  fA            1.00    152 A               1
                        (      69.305 eV)
   153     153       --         2.592 au  fA            1.00    153 A               1
                        (      70.541 eV)
   154     154       --         2.633 au  fA            1.00    154 A               1
                        (      71.659 eV)
   155     155       --         2.670 au  fA            1.00    155 A               1
                        (      72.658 eV)
   156     156       --         2.688 au  fA            1.00    156 A               1
                        (      73.152 eV)
   157     157       --         2.737 au  fA            1.00    157 A               1
                        (      74.485 eV)
   158     158       --         2.746 au  fA            1.00    158 A               1
                        (      74.733 eV)
   159     159       --         2.800 au  fA            1.00    159 A               1
                        (      76.204 eV)
   160     160       --         2.822 au  fA            1.00    160 A               1
                        (      76.801 eV)
   161     161       --         2.858 au  fA            1.00    161 A               1
                        (      77.769 eV)
   162     162       --         2.866 au  fA            1.00    162 A               1
                        (      78.000 eV)
   163     163       --         2.895 au  fA            1.00    163 A               1
                        (      78.781 eV)
   164     164       --         2.941 au  fA            1.00    164 A               1
                        (      80.019 eV)
   165     165       --         2.968 au  fA            1.00    165 A               1
                        (      80.770 eV)
   166     166       --         2.996 au  fA            1.00    166 A               1
                        (      81.516 eV)
   167     167       --         3.017 au  fA            1.00    167 A               1
                        (      82.104 eV)
   168     168       --         3.073 au  fA            1.00    168 A               1
                        (      83.620 eV)
   169     169       --         3.108 au  fA            1.00    169 A               1
                        (      84.577 eV)
   170     170       --         3.169 au  fA            1.00    170 A               1
                        (      86.242 eV)
   171     171       --         3.212 au  fA            1.00    171 A               1
                        (      87.408 eV)
   172     172       --         3.232 au  fA            1.00    172 A               1
                        (      87.934 eV)
   173     173       --         3.261 au  fA            1.00    173 A               1
                        (      88.737 eV)
   174     174       --         3.295 au  fA            1.00    174 A               1
                        (      89.658 eV)
   175     175       --         3.312 au  fA            1.00    175 A               1
                        (      90.125 eV)
   176     176       --         3.334 au  fA            1.00    176 A               1
                        (      90.736 eV)
   177     177       --         3.394 au  fA            1.00    177 A               1
                        (      92.351 eV)
   178     178       --         3.426 au  fA            1.00    178 A               1
                        (      93.214 eV)
   179     179       --         3.454 au  fA            1.00    179 A               1
                        (      93.988 eV)
   180     180       --         3.477 au  fA            1.00    180 A               1
                        (      94.618 eV)
   181     181       --         3.493 au  fA            1.00    181 A               1
                        (      95.052 eV)
   182     182       --         3.509 au  fA            1.00    182 A               1
                        (      95.489 eV)
   183     183       --         3.545 au  fA            1.00    183 A               1
                        (      96.476 eV)
   184     184       --         3.600 au  fA            1.00    184 A               1
                        (      97.971 eV)
   185     185       --         3.678 au  fA            1.00    185 A               1
                        (     100.084 eV)
   186     186       --         3.739 au  fA            1.00    186 A               1
                        (     101.756 eV)
   187     187       --         3.751 au  fA            1.00    187 A               1
                        (     102.072 eV)
   188     188       --         3.788 au  fA            1.00    188 A               1
                        (     103.075 eV)
   189     189       --         3.842 au  fA            1.00    189 A               1
                        (     104.550 eV)
   190     190       --         3.850 au  fA            1.00    190 A               1
                        (     104.774 eV)
   191     191       --         3.894 au  fA            1.00    191 A               1
                        (     105.974 eV)
   192     192       --         3.933 au  fA            1.00    192 A               1
                        (     107.025 eV)
   193     193       --         3.962 au  fA            1.00    193 A               1
                        (     107.802 eV)
   194     194       --         4.016 au  fA            1.00    194 A               1
                        (     109.275 eV)
   195     195       --         4.057 au  fA            1.00    195 A               1
                        (     110.400 eV)
   196     196       --         4.107 au  fA            1.00    196 A               1
                        (     111.749 eV)
   197     197       --         4.144 au  fA            1.00    197 A               1
                        (     112.777 eV)
   198     198       --         4.225 au  fA            1.00    198 A               1
                        (     114.974 eV)
   199     199       --         4.251 au  fA            1.00    199 A               1
                        (     115.684 eV)
   200     200       --         4.271 au  fA            1.00    200 A               1
                        (     116.219 eV)
   201     201       --         4.368 au  fA            1.00    201 A               1
                        (     118.852 eV)
   202     202       --         4.385 au  fA            1.00    202 A               1
                        (     119.334 eV)
   203     203       --         4.447 au  fA            1.00    203 A               1
                        (     121.022 eV)
   204     204       --         4.470 au  fA            1.00    204 A               1
                        (     121.625 eV)
   205     205       --         4.493 au  fA            1.00    205 A               1
                        (     122.251 eV)
   206     206       --         4.515 au  fA            1.00    206 A               1
                        (     122.849 eV)
   207     207       --         4.564 au  fA            1.00    207 A               1
                        (     124.201 eV)
   208     208       --         4.592 au  fA            1.00    208 A               1
                        (     124.951 eV)
   209     209       --         4.621 au  fA            1.00    209 A               1
                        (     125.744 eV)
   210     210       --         4.653 au  fA            1.00    210 A               1
                        (     126.624 eV)
   211     211       --         4.704 au  fA            1.00    211 A               1
                        (     128.002 eV)
   212     212       --         4.722 au  fA            1.00    212 A               1
                        (     128.500 eV)
   213     213       --         4.759 au  fA            1.00    213 A               1
                        (     129.506 eV)
   214     214       --         4.779 au  fA            1.00    214 A               1
                        (     130.033 eV)
   215     215       --         4.868 au  fA            1.00    215 A               1
                        (     132.456 eV)
   216     216       --         4.981 au  fA            1.00    216 A               1
                        (     135.553 eV)
   217     217       --         5.045 au  fA            1.00    217 A               1
                        (     137.274 eV)
   218     218       --         5.078 au  fA            1.00    218 A               1
                        (     138.186 eV)
   219     219       --         5.165 au  fA            1.00    219 A               1
                        (     140.547 eV)
   220     220       --         5.196 au  fA            1.00    220 A               1
                        (     141.386 eV)
   221     221       --         5.260 au  fA            1.00    221 A               1
                        (     143.126 eV)
   222     222       --         5.390 au  fA            1.00    222 A               1
                        (     146.673 eV)
   223     223       --         5.433 au  fA            1.00    223 A               1
                        (     147.838 eV)
   224     224       --         5.536 au  fA            1.00    224 A               1
                        (     150.653 eV)
   225     225       --         5.556 au  fA            1.00    225 A               1
                        (     151.194 eV)
   226     226       --         5.599 au  fA            1.00    226 A               1
                        (     152.344 eV)
   227     227       --         5.737 au  fA            1.00    227 A               1
                        (     156.119 eV)
   228     228       --         5.768 au  fA            1.00    228 A               1
                        (     156.963 eV)
   229     229       --         5.831 au  fA            1.00    229 A               1
                        (     158.675 eV)
   230     230       --         5.873 au  fA            1.00    230 A               1
                        (     159.815 eV)
   231     231       --         5.897 au  fA            1.00    231 A               1
                        (     160.457 eV)
   232     232       --         5.932 au  fA            1.00    232 A               1
                        (     161.407 eV)
   233     233       --         6.108 au  fA            1.00    233 A               1
                        (     166.200 eV)
   234     234       --         6.149 au  fA            1.00    234 A               1
                        (     167.318 eV)
   235     235       --         6.219 au  fA            1.00    235 A               1
                        (     169.237 eV)
   236     236       --         6.292 au  fA            1.00    236 A               1
                        (     171.213 eV)
   237     237       --         6.302 au  fA            1.00    237 A               1
                        (     171.485 eV)
   238     238       --         6.384 au  fA            1.00    238 A               1
                        (     173.723 eV)
   239     239       --         6.414 au  fA            1.00    239 A               1
                        (     174.520 eV)
   240     240       --         6.428 au  fA            1.00    240 A               1
                        (     174.903 eV)
   241     241       --         6.472 au  fA            1.00    241 A               1
                        (     176.115 eV)
   242     242       --         6.554 au  fA            1.00    242 A               1
                        (     178.353 eV)
   243     243       --         6.582 au  fA            1.00    243 A               1
                        (     179.109 eV)
   244     244       --         6.694 au  fA            1.00    244 A               1
                        (     182.161 eV)
   245     245       --         6.783 au  fA            1.00    245 A               1
                        (     184.563 eV)
   246     246       --         6.915 au  fA            1.00    246 A               1
                        (     188.163 eV)
   247     247       --         6.979 au  fA            1.00    247 A               1
                        (     189.917 eV)
   248     248       --         7.103 au  fA            1.00    248 A               1
                        (     193.270 eV)
   249     249       --         7.143 au  fA            1.00    249 A               1
                        (     194.360 eV)
   250     250       --         7.274 au  fA            1.00    250 A               1
                        (     197.923 eV)
   251     251       --         7.408 au  fA            1.00    251 A               1
                        (     201.591 eV)
   252     252       --         7.605 au  fA            1.00    252 A               1
                        (     206.947 eV)
   253     253       --         8.105 au  fA            1.00    253 A               1
                        (     220.538 eV)
   254     254       --         8.505 au  fA            1.00    254 A               1
                        (     231.430 eV)
   255     255       --         8.837 au  fA            1.00    255 A               1
                        (     240.454 eV)
   256     256       --         9.159 au  fA            1.00    256 A               1
                        (     249.216 eV)
   257     257       --         9.347 au  fA            1.00    257 A               1
                        (     254.331 eV)
   258     258       --         9.964 au  fA            1.00    258 A               1
                        (     271.128 eV)
   259     259       --        14.046 au  fA            1.00    259 A               1
                        (     382.224 eV)
   260     260       --        16.252 au  fA            1.00    260 A               1
                        (     442.245 eV)
   261     261       --        18.979 au  fA            1.00    261 A               1
                        (     516.442 eV)
   262     262       --        19.024 au  fA            1.00    262 A               1
                        (     517.675 eV)
   263     263       --        19.736 au  fA            1.00    263 A               1
                        (     537.047 eV)
   264     264       --        53.414 au  fA            1.00    264 A               1
                        (    1453.478 eV)
   265     265       --        55.211 au  fA            1.00    265 A               1
                        (    1502.368 eV)
   266     266       --        56.939 au  fA            1.00    266 A               1
                        (    1549.395 eV)
   267     267       --        58.075 au  fA            1.00    267 A               1
                        (    1580.291 eV)
   268     268       --        58.456 au  fA            1.00    268 A               1
                        (    1590.673 eV)
   269     269       --        61.046 au  fA            1.00    269 A               1
                        (    1661.158 eV)
   270     270       --       129.397 au  fA            1.00    270 A               1
                        (    3521.062 eV)
   271     271       --       210.346 au  fA            1.00    271 A               1
                        (    5723.813 eV)
   272     272      2.000     -14.105 au  fB            1.00      1 A               2
                        (    -383.828 eV)
   273     273      2.000     -14.029 au  fB            1.00      2 A               2
                        (    -381.759 eV)
   274     274      2.000     -10.001 au  fB            1.00      3 A               2
                        (    -272.144 eV)
   275     275      2.000     -10.001 au  fB            1.00      4 A               2
                        (    -272.144 eV)
   276     276      2.000      -9.969 au  fB            1.00      5 A               2
                        (    -271.259 eV)
   277     277      2.000      -9.962 au  fB            1.00      6 A               2
                        (    -271.074 eV)
   278     278      2.000      -9.961 au  fB            1.00      7 A               2
                        (    -271.062 eV)
   279     279      2.000      -9.946 au  fB            1.00      8 A               2
                        (    -270.634 eV)
   280     280      2.000      -9.945 au  fB            1.00      9 A               2
                        (    -270.620 eV)
   281     281      2.000      -9.945 au  fB            1.00     10 A               2
                        (    -270.613 eV)
   282     282      2.000      -9.944 au  fB            1.00     11 A               2
                        (    -270.591 eV)
   283     283      2.000      -9.944 au  fB            1.00     12 A               2
                        (    -270.586 eV)
   284     284      2.000      -9.944 au  fB            1.00     13 A               2
                        (    -270.581 eV)
   285     285      2.000      -9.943 au  fB            1.00     14 A               2
                        (    -270.571 eV)
   286     286      2.000      -9.943 au  fB            1.00     15 A               2
                        (    -270.554 eV)
   287     287      2.000      -9.942 au  fB            1.00     16 A               2
                        (    -270.544 eV)
   288     288      2.000      -9.942 au  fB            1.00     17 A               2
                        (    -270.530 eV)
   289     289      2.000      -0.920 au  fB            1.00     18 A               2
                        (     -25.040 eV)
   290     290      2.000      -0.829 au  fB            1.00     19 A               2
                        (     -22.549 eV)
   291     291      2.000      -0.804 au  fB            1.00     20 A               2
                        (     -21.875 eV)
   292     292      2.000      -0.794 au  fB            1.00     21 A               2
                        (     -21.597 eV)
   293     293      2.000      -0.747 au  fB            1.00     22 A               2
                        (     -20.315 eV)
   294     294      2.000      -0.697 au  fB            1.00     23 A               2
                        (     -18.962 eV)
   295     295      2.000      -0.696 au  fB            1.00     24 A               2
                        (     -18.937 eV)
   296     296      2.000      -0.690 au  fB            1.00     25 A               2
                        (     -18.763 eV)
   297     297      2.000      -0.678 au  fB            1.00     26 A               2
                        (     -18.436 eV)
   298     298      2.000      -0.604 au  fB            1.00     27 A               2
                        (     -16.432 eV)
   299     299      2.000      -0.572 au  fB            1.00     28 A               2
                        (     -15.559 eV)
   300     300      2.000      -0.570 au  fB            1.00     29 A               2
                        (     -15.507 eV)
   301     301      2.000      -0.556 au  fB            1.00     30 A               2
                        (     -15.139 eV)
   302     302      2.000      -0.550 au  fB            1.00     31 A               2
                        (     -14.963 eV)
   303     303      2.000      -0.501 au  fB            1.00     32 A               2
                        (     -13.642 eV)
   304     304      2.000      -0.492 au  fB            1.00     33 A               2
                        (     -13.401 eV)
   305     305      2.000      -0.454 au  fB            1.00     34 A               2
                        (     -12.360 eV)
   306     306      2.000      -0.439 au  fB            1.00     35 A               2
                        (     -11.934 eV)
   307     307      2.000      -0.426 au  fB            1.00     36 A               2
                        (     -11.601 eV)
   308     308      2.000      -0.420 au  fB            1.00     37 A               2
                        (     -11.418 eV)
   309     309      2.000      -0.411 au  fB            1.00     38 A               2
                        (     -11.186 eV)
   310     310      2.000      -0.404 au  fB            1.00     39 A               2
                        (     -10.995 eV)
   311     311      2.000      -0.400 au  fB            1.00     40 A               2
                        (     -10.896 eV)
   312     312      2.000      -0.394 au  fB            1.00     41 A               2
                        (     -10.719 eV)
   313     313      2.000      -0.388 au  fB            1.00     42 A               2
                        (     -10.548 eV)
   314     314      2.000      -0.362 au  fB            1.00     43 A               2
                        (      -9.851 eV)
   315     315      2.000      -0.349 au  fB            1.00     44 A               2
                        (      -9.509 eV)
   316     316      2.000      -0.348 au  fB            1.00     45 A               2
                        (      -9.475 eV)
   317     317      2.000      -0.338 au  fB            1.00     46 A               2
                        (      -9.194 eV)
   318     318      2.000      -0.329 au  fB            1.00     47 A               2
                        (      -8.945 eV)
   319     319      2.000      -0.326 au  fB            1.00     48 A               2
                        (      -8.877 eV)
   320     320      2.000      -0.322 au  fB            1.00     49 A               2
                        (      -8.767 eV)
   321     321      2.000      -0.319 au  fB            1.00     50 A               2
                        (      -8.689 eV)
   322     322      2.000      -0.310 au  fB            1.00     51 A               2
                        (      -8.447 eV)
   323     323      2.000      -0.294 au  fB            1.00     52 A               2
                        (      -8.001 eV)
   324     324      2.000      -0.268 au  fB            1.00     53 A               2
                        (      -7.288 eV)
   325     325      2.000      -0.250 au  fB            1.00     54 A               2
                        (      -6.801 eV)
   326     326      2.000      -0.249 au  fB            1.00     55 A               2
                        (      -6.773 eV)
   327     327      2.000      -0.246 au  fB            1.00     56 A               2
                        (      -6.681 eV)
   328     328      2.000      -0.188 au  fB            1.00     57 A               2
                        (      -5.104 eV)
   329     329       --        -0.117 au  fB            1.00     58 A               2
                        (      -3.193 eV)
   330     330       --        -0.114 au  fB            1.00     59 A               2
                        (      -3.097 eV)
   331     331       --        -0.067 au  fB            1.00     60 A               2
                        (      -1.832 eV)
   332     332       --        -0.063 au  fB            1.00     61 A               2
                        (      -1.702 eV)
   333     333       --        -0.055 au  fB            1.00     62 A               2
                        (      -1.506 eV)
   334     334       --        -0.022 au  fB            1.00     63 A               2
                        (      -0.600 eV)
   335     335       --        -0.016 au  fB            1.00     64 A               2
                        (      -0.423 eV)
   336     336       --        -0.007 au  fB            1.00     65 A               2
                        (      -0.197 eV)
   337     337       --        -0.004 au  fB            1.00     66 A               2
                        (      -0.118 eV)
   338     338       --         0.011 au  fB            1.00     67 A               2
                        (       0.308 eV)
   339     339       --         0.015 au  fB            1.00     68 A               2
                        (       0.403 eV)
   340     340       --         0.029 au  fB            1.00     69 A               2
                        (       0.797 eV)
   341     341       --         0.035 au  fB            1.00     70 A               2
                        (       0.944 eV)
   342     342       --         0.047 au  fB            1.00     71 A               2
                        (       1.284 eV)
   343     343       --         0.053 au  fB            1.00     72 A               2
                        (       1.437 eV)
   344     344       --         0.063 au  fB            1.00     73 A               2
                        (       1.701 eV)
   345     345       --         0.066 au  fB            1.00     74 A               2
                        (       1.797 eV)
   346     346       --         0.071 au  fB            1.00     75 A               2
                        (       1.934 eV)
   347     347       --         0.073 au  fB            1.00     76 A               2
                        (       1.988 eV)
   348     348       --         0.085 au  fB            1.00     77 A               2
                        (       2.302 eV)
   349     349       --         0.095 au  fB            1.00     78 A               2
                        (       2.588 eV)
   350     350       --         0.109 au  fB            1.00     79 A               2
                        (       2.977 eV)
   351     351       --         0.112 au  fB            1.00     80 A               2
                        (       3.060 eV)
   352     352       --         0.137 au  fB            1.00     81 A               2
                        (       3.736 eV)
   353     353       --         0.141 au  fB            1.00     82 A               2
                        (       3.826 eV)
   354     354       --         0.145 au  fB            1.00     83 A               2
                        (       3.936 eV)
   355     355       --         0.152 au  fB            1.00     84 A               2
                        (       4.132 eV)
   356     356       --         0.162 au  fB            1.00     85 A               2
                        (       4.409 eV)
   357     357       --         0.168 au  fB            1.00     86 A               2
                        (       4.559 eV)
   358     358       --         0.170 au  fB            1.00     87 A               2
                        (       4.619 eV)
   359     359       --         0.171 au  fB            1.00     88 A               2
                        (       4.653 eV)
   360     360       --         0.175 au  fB            1.00     89 A               2
                        (       4.759 eV)
   361     361       --         0.178 au  fB            1.00     90 A               2
                        (       4.854 eV)
   362     362       --         0.182 au  fB            1.00     91 A               2
                        (       4.956 eV)
   363     363       --         0.189 au  fB            1.00     92 A               2
                        (       5.143 eV)
   364     364       --         0.195 au  fB            1.00     93 A               2
                        (       5.313 eV)
   365     365       --         0.198 au  fB            1.00     94 A               2
                        (       5.381 eV)
   366     366       --         0.207 au  fB            1.00     95 A               2
                        (       5.645 eV)
   367     367       --         0.219 au  fB            1.00     96 A               2
                        (       5.949 eV)
   368     368       --         0.225 au  fB            1.00     97 A               2
                        (       6.119 eV)
   369     369       --         0.227 au  fB            1.00     98 A               2
                        (       6.172 eV)
   370     370       --         0.234 au  fB            1.00     99 A               2
                        (       6.355 eV)
   371     371       --         0.244 au  fB            1.00    100 A               2
                        (       6.640 eV)
   372     372       --         0.249 au  fB            1.00    101 A               2
                        (       6.780 eV)
   373     373       --         0.261 au  fB            1.00    102 A               2
                        (       7.112 eV)
   374     374       --         0.267 au  fB            1.00    103 A               2
                        (       7.259 eV)
   375     375       --         0.276 au  fB            1.00    104 A               2
                        (       7.516 eV)
   376     376       --         0.280 au  fB            1.00    105 A               2
                        (       7.613 eV)
   377     377       --         0.293 au  fB            1.00    106 A               2
                        (       7.961 eV)
   378     378       --         0.294 au  fB            1.00    107 A               2
                        (       8.004 eV)
   379     379       --         0.302 au  fB            1.00    108 A               2
                        (       8.231 eV)
   380     380       --         0.308 au  fB            1.00    109 A               2
                        (       8.373 eV)
   381     381       --         0.314 au  fB            1.00    110 A               2
                        (       8.551 eV)
   382     382       --         0.318 au  fB            1.00    111 A               2
                        (       8.649 eV)
   383     383       --         0.321 au  fB            1.00    112 A               2
                        (       8.740 eV)
   384     384       --         0.329 au  fB            1.00    113 A               2
                        (       8.945 eV)
   385     385       --         0.333 au  fB            1.00    114 A               2
                        (       9.055 eV)
   386     386       --         0.338 au  fB            1.00    115 A               2
                        (       9.206 eV)
[...]
     450       74.8781         0.000       
     449       74.4683         0.000       
     448       73.9698         0.000       
     447       73.7268         0.000       
     446       73.3589         0.000       
     445       73.0386         0.000       
     444       72.8418         0.000       
     443       72.7829         0.000       
     442       72.3598         0.000       
     441       72.1905         0.000       
     440       72.1429         0.000       
     439       71.4926         0.000       
     438       71.2512         0.000       
     437       70.9830         0.000       
     436       70.8580         0.000       
     435       70.7154         0.000       
     434       69.8057         0.000       
     433       69.5291         0.000       
     432       69.2286         0.000       
     431       68.8285         0.000       
     430       68.4420         0.000       
     429       68.2572         0.000       
     428       67.9630         0.000       
     427       67.6814         0.000       
     426       67.4658         0.000       
     425       67.3692         0.000       
     424       66.7873         0.000       
     423       66.4279         0.000       
     422       65.9757         0.000       
     421       65.8866         0.000       
     420       65.3708         0.000       
     419       65.1112         0.000       
     418       65.0012         0.000       
     417       64.8040         0.000       
     416       64.5538         0.000       
     415       64.1431         0.000       
     414       64.0934         0.000       
     413       63.8566         0.000       
     412       63.7396         0.000       
     411       63.6258         0.000       
     410       63.3672         0.000       
     409       63.2387         0.000       
     408       62.6054         0.000       
     407       62.4070         0.000       
     406       62.3411         0.000       
     405       61.8247         0.000       
     404       61.5976         0.000       
     403       61.4985         0.000       
     402       61.2839         0.000       
     401       61.1870         0.000       
     400       60.5310         0.000       
     399       60.3062         0.000       
     398       59.9066         0.000       
     397       59.7965         0.000       
     396       59.6114         0.000       
     395       59.4097         0.000       
     394       58.7304         0.000       
     393       58.4477         0.000       
     392       58.1333         0.000       
     391       57.7817         0.000       
     390       57.5047         0.000       
     389       56.8155         0.000       
     388       56.3148         0.000       
     387       56.2366         0.000       
     386       55.5415         0.000       
     385       55.3478         0.000       
     384       55.0315         0.000       
     383       54.9891         0.000       
     382       54.9304         0.000       
     381       54.4796         0.000       
     380       54.1694         0.000       
     379       53.7106         0.000       
     378       53.4332         0.000       
     377       53.3984         0.000       
     376       53.1859         0.000       
     375       53.0556         0.000       
     374       52.3674         0.000       
     373       52.2577         0.000       
     372       51.9469         0.000       
     371       51.7129         0.000       
     370       51.2703         0.000       
     369       51.0847         0.000       
     368       50.8756         0.000       
     367       50.8274         0.000       
     366       50.6069         0.000       
     365       50.4404         0.000       
     364       50.2448         0.000       
     363       50.1131         0.000       
     362       49.6286         0.000       
     361       49.3647         0.000       
     360       49.1778         0.000       
     359       49.0433         0.000       
     358       48.9252         0.000       
     357       48.4556         0.000       
     356       48.2529         0.000       
     355       48.1749         0.000       
     354       47.4202         0.000       
     353       47.1865         0.000       
     352       47.0434         0.000       
     351       46.7097         0.000       
     350       46.4347         0.000       
     349       46.3104         0.000       
     348       46.1073         0.000       
     347       45.5564         0.000       
     346       45.2140         0.000       
     345       45.0417         0.000       
     344       44.9011         0.000       
     343       44.4656         0.000       
     342       44.1538         0.000       
     341       43.8281         0.000       
     340       43.3932         0.000       
     339       43.2115         0.000       
     338       42.7246         0.000       
     337       42.6186         0.000       
     336       42.2700         0.000       
     335       41.9828         0.000       
     334       41.9226         0.000       
     333       41.4519         0.000       
     332       41.2997         0.000       
     331       41.0797         0.000       
     330       40.8543         0.000       
     329       40.7217         0.000       
     328       40.2399         0.000       
     327       40.1612         0.000       
     326       39.8579         0.000       
     325       39.7009         0.000       
     324       39.5082         0.000       
     323       39.4312         0.000       
     322       39.0672         0.000       
     321       38.9604         0.000       
     320       38.7978         0.000       
     319       38.6317         0.000       
     318       38.4556         0.000       
     317       38.3409         0.000       
     316       38.0688         0.000       
     315       37.9084         0.000       
     314       37.4644         0.000       
     313       37.4168         0.000       
     312       37.3502         0.000       
     311       37.1436         0.000       
     310       37.0585         0.000       
     309       36.8211         0.000       
     308       36.5578         0.000       
     307       36.3636         0.000       
     306       36.2719         0.000       
     305       36.1089         0.000       
     304       35.9013         0.000       
     303       35.7906         0.000       
     302       35.6608         0.000       
     301       35.3935         0.000       
     300       35.3212         0.000       
     299       35.2359         0.000       
     298       34.6556         0.000       
     297       34.4944         0.000       
     296       34.3246         0.000       
     295       33.9478         0.000       
     294       33.7780         0.000       
     293       33.5376         0.000       
     292       33.1914         0.000       
     291       32.9503         0.000       
     290       32.5950         0.000       
     289       32.4086         0.000       
     288       32.3003         0.000       
     287       31.9414         0.000       
     286       31.8430         0.000       
     285       31.6461         0.000       
     284       31.5447         0.000       
     283       31.3358         0.000       
     282       30.8230         0.000       
     281       30.4339         0.000       
     280       30.2958         0.000       
     279       30.1750         0.000       
     278       29.7833         0.000       
     277       29.5733         0.000       
     276       29.4715         0.000       
     275       29.3714         0.000       
     274       29.0510         0.000       
     273       28.9844         0.000       
     272       28.8239         0.000       
     271       28.5457         0.000       
     270       28.4663         0.000       
     269       28.3139         0.000       
     268       28.0794         0.000       
     267       27.9627         0.000       
     266       27.7420         0.000       
     265       27.6288         0.000       
     264       27.3084         0.000       
     263       27.2197         0.000       
     262       26.9747         0.000       
     261       26.8627         0.000       
     260       26.4744         0.000       
     259       26.2112         0.000       
     258       25.9564         0.000       
     257       25.8578         0.000       
     256       25.4591         0.000       
     255       25.3615         0.000       
     254       25.1836         0.000       
     253       25.0297         0.000       
     252       24.6415         0.000       
     251       24.2093         0.000       
     250       24.0572         0.000       
     249       23.9343         0.000       
     248       23.4950         0.000       
     247       23.3620         0.000       
     246       23.1410         0.000       
     245       23.1256         0.000       
     244       22.9832         0.000       
     243       22.6846         0.000       
     242       22.5692         0.000       
     241       22.2712         0.000       
     240       22.0641         0.000       
     239       21.6496         0.000       
     238       21.5352         0.000       
     237       21.3614         0.000       
     236       21.1852         0.000       
     235       20.7377         0.000       
     234       20.5323         0.000       
     233       20.4626         0.000       
     232       20.3100         0.000       
     231       20.0661         0.000       
     230       19.9214         0.000       
     229       19.6494         0.000       
     228       19.5010         0.000       
     227       19.3032         0.000       
     226       18.9427         0.000       
     225       18.7240         0.000       
     224       18.5092         0.000       
     223       18.3633         0.000       
     222       18.2048         0.000       
     221       18.0420         0.000       
     220       18.0051         0.000       
     219       17.6672         0.000       
     218       17.5769         0.000       
     217       17.3942         0.000       
     216       17.2942         0.000       
     215       16.8958         0.000       
     214       16.8017         0.000       
     213       16.7261         0.000       
     212       16.4569         0.000       
     211       16.3611         0.000       
     210       16.0848         0.000       
     209       15.8488         0.000       
     208       15.7296         0.000       
     207       15.3059         0.000       
     206       15.1159         0.000       
     205       14.9945         0.000       
     204       14.4883         0.000       
     203       14.4326         0.000       
     202       14.2112         0.000       
     201       13.9952         0.000       
     200       13.8709         0.000       
     199       13.7707         0.000       
     198       13.4782         0.000       
     197       13.3321         0.000       
     196       13.2780         0.000       
     195       12.9737         0.000       
     194       12.8533         0.000       
     193       12.5053         0.000       
     192       12.4250         0.000       
     191       12.2316         0.000       
     190       11.9497         0.000       
     189       11.8098         0.000       
     188       11.7780         0.000       
     187       11.5812         0.000       
     186       11.4354         0.000       
     185       11.1853         0.000       
     184       10.9076         0.000       
     183       10.8464         0.000       
     182       10.7279         0.000       
     181       10.6179         0.000       
     180       10.4693         0.000       
     179       10.2838         0.000       
     178       10.1982         0.000       
     177       10.0107         0.000       
     176        9.9108         0.000       
     175        9.8072         0.000       
     174        9.7587         0.000       
     173        9.5828         0.000       
     172        9.4581         0.000       
     171        9.4082         0.000       
     170        9.2470         0.000       
     169        9.2255         0.000       
     168        8.8609         0.000       
     167        8.7786         0.000       
     166        8.7346         0.000       
     165        8.6226         0.000       
     164        8.4640         0.000       
     163        8.3811         0.000       
     162        8.2639         0.000       
     161        8.1602         0.000       
     160        8.0448         0.000       
     159        7.9645         0.000       
     158        7.8786         0.000       
     157        7.7330         0.000       
     156        7.6580         0.000       
     155        7.5441         0.000       
     154        7.4726         0.000       
     153        7.2282         0.000       
     152        7.0734         0.000       
     151        6.7492         0.000       
     150        6.7405         0.000       
     149        6.6276         0.000       
     148        6.3770         0.000       
     147        6.2661         0.000       
     146        6.0286         0.000       
     145        6.0207         0.000       
     144        5.9400         0.000       
     143        5.7085         0.000       
     142        5.6450         0.000       
     141        5.5572         0.000       
     140        5.4803         0.000       
     139        5.4040         0.000       
     138        5.3173         0.000       
     137        5.0577         0.000       
     136        5.0412         0.000       
     135        4.8714         0.000       
     134        4.8113         0.000       
     133        4.7407         0.000       
     132        4.6572         0.000       
     131        4.5781         0.000       
     130        4.4637         0.000       
     129        4.4038         0.000       
     128        4.2134         0.000       
     127        4.0603         0.000       
     126        3.8815         0.000       
     125        3.8422         0.000       
     124        3.4204         0.000       
     123        3.3259         0.000       
     122        3.0621         0.000       
     121        2.9883         0.000       
     120        2.7826         0.000       
     119        2.6339         0.000       
     118        2.3150         0.000       
     117        2.1101         0.000       
     116        1.9898         0.000       
     115        1.9408         0.000       
     114        1.7624         0.000       
     113        1.6697         0.000       
     112        1.5788         0.000       
     111        1.4429         0.000       
     110        1.2279         0.000       
     109        1.1017         0.000       
     108        0.9548         0.000       
     107        0.8978         0.000       
     106        0.7914         0.000       
     105        0.4924         0.000       
     104        0.3755         0.000       
     103        0.2362         0.000       
     102        0.0661         0.000       
     101       -0.0447         0.000       
     100       -0.2130         0.000       
      99       -0.3463         0.000       
      98       -0.5093         0.000       
      97       -0.6658         0.000       
      96       -1.4568         0.000       
      95       -1.6289         0.000       
      94       -1.8007         0.000       
      93       -2.0527         0.000       
      92       -2.9268         0.000       
      91       -3.2099         0.000 < LUMO
      90       -5.1073         2.000 < HOMO
      89       -5.6052         2.000       
      88       -6.3573         2.000       
      87       -6.5020         2.000       
      86       -6.6462         2.000       
      85       -6.7264         2.000       
      84       -6.7534         2.000       
      83       -7.2718         2.000       
      82       -7.7940         2.000       
      81       -8.0496         2.000       
      80       -8.2705         2.000       
      79       -8.5682         2.000       
      78       -8.6546         2.000       
      77       -8.7583         2.000       
      76       -8.8424         2.000       
      75       -8.9217         2.000       
      74       -9.0671         2.000       
      73       -9.1458         2.000       
      72       -9.2396         2.000       
      71       -9.3477         2.000       
      70       -9.4320         2.000       
      69       -9.8014         2.000       
      68       -9.9150         2.000       
      67      -10.0063         2.000       
      66      -10.3469         2.000       
      65      -10.5454         2.000       
      64      -10.5778         2.000       
      63      -10.6777         2.000       
      62      -10.9427         2.000       
      61      -11.0097         2.000       
      60      -11.2013         2.000       
      59      -11.3695         2.000       
      58      -11.6485         2.000       
      57      -11.8810         2.000       
      56      -12.1882         2.000       
      55      -12.3218         2.000       
      54      -13.2087         2.000       
      53      -13.3603         2.000       
      52      -13.5155         2.000       
      51      -13.6369         2.000       
      50      -13.9698         2.000       
      49      -14.5812         2.000       
      48      -14.9416         2.000       
      47      -15.0965         2.000       
      46      -15.4666         2.000       
      45      -15.5487         2.000       
      44      -16.5415         2.000       
      43      -18.1935         2.000       
      42      -18.4408         2.000       
      41      -18.6841         2.000       
      40      -18.7513         2.000       
      39      -18.8957         2.000       
      38      -18.9143         2.000       
      37      -19.9323         2.000       
      36      -20.3119         2.000       
      35      -21.5472         2.000       
      34      -21.7933         2.000       
      33      -21.8567         2.000       
      32      -22.7694         2.000       
      31      -24.9758         2.000       
      30      -26.6589         2.000       
      29     -190.4827         2.000       
      28     -190.4979         2.000       
      27     -190.7759         2.000       
      26     -251.5332         2.000       
      25     -270.2265         2.000       
      24     -270.2900         2.000       
      23     -270.3230         2.000       
      22     -270.4554         2.000       
      21     -270.4661         2.000       
      20     -270.4877         2.000       
      19     -270.5136         2.000       
      18     -270.5219         2.000       
      17     -270.5355         2.000       
      16     -270.5402         2.000       
      15     -270.5501         2.000       
      14     -270.5587         2.000       
      13     -270.5955         2.000       
      12     -270.9932         2.000       
      11     -271.0268         2.000       
      10     -271.4903         2.000       
       9     -271.7901         2.000       
       8     -271.8957         2.000       
       7     -271.9650         2.000       
       6     -272.2350         2.000       
       5     -272.4546         2.000       
       4     -382.0167         2.000       
       3     -383.5187         2.000       
       2     -511.7327         2.000       
       1    -2750.8025         2.000       

AMS application finished. Exiting.
NORMAL TERMINATION
     Total cpu time:     618.97
  Total system time:       2.78
 Total elapsed time:     625.05
NORMAL TERMINATION
