
 *******************************************************************************
 *                                                                             *
 *  --------------------------------                                           *
 *   Amsterdam Modeling Suite (AMS)              2026.103                      *
 *  --------------------------------                                           *
 *                                               r260501 2026-05-01 873454b5   *
 *                                                                             *
 *                                                                             *
 *                              =================                              *
 *                              |               |                              *
 *                              |     A M S     |                              *
 *                              |               |                              *
 *                              =================                              *
 *                                                                             *
 *                                                                             *
 *   Online information and documentation:  https://www.scm.com/support/       *
 *   E-mail:  support@scm.com   info@scm.com                                   *
 *                                                                             *
 *   Scientific publications using AMS results must be properly referenced     *
 *   See the User Manuals (or the web site) for recommended citations          *
 *   The terms and conditions of the End User License Agreement apply to       *
 *   the use of AMS, https://www.scm.com/license-terms/                        *
 *                                                                             *
 **********************  x86_64_linux_intel / intelmpi  ************************
 
 Licensed to: Jong-June Jeon / University of Seoul 2026-06-02 13:44:15
 SCM User ID: u30731
  
 AMS 2026.103  RunTime: Jun03-2026 21:28:26  ShM Nodes: 1  Procs: 1

 AMS jobname: c3_eda
 AMS jobid  : 1718780757

 Start   directory: /gpfs/home1/yeseo1ee/projects/eda-asm-prediction/ADF_800/adf_outputs/batch_005/qmrxn20_sn2_A_C_E_D_A_C/
 Results directory: /gpfs/home1/yeseo1ee/projects/eda-asm-prediction/ADF_800/adf_outputs/batch_005/qmrxn20_sn2_A_C_E_D_A_C/c3_eda.results/
 Scratch directory: /tmp/amstmp_c3_eda_kid0.1718780757/

 RNG seed: 1166036869 -130898114 389152647 1289721147 -1544350113 -390440614 -481388469 -701943979



                      ************************************************************************
                      *  ADF 2026.103  RunTime: Jun03-2026 21:28:26  ShM Nodes: 1  Procs: 1  *
                      ************************************************************************
  

       ****************************
       * SINGLE POINT CALCULATION *
       ****************************

--------
Geometry
--------
Formula: C4H7ClFN2
Atoms
  Index Symbol   x (angstrom)   y (angstrom)   z (angstrom)
      1      F    -0.80857768    -0.55516563    -0.98453581 adf.f=fA
      2      C     0.84726839    -0.00323512     0.08805755 adf.f=fB
      3      H     1.73434284     1.78323366    -0.54883116 adf.f=fB
      4     Cl     2.73108913    -0.07301077     1.07009999 adf.f=fB
      5      C     0.76322735     1.50969130    -0.10912801 adf.f=fB
      6      H     1.17846314    -0.61245978    -0.72953454 adf.f=fB
      7      C     0.04838578    -0.63675956     1.10912160 adf.f=fB
      8      N    -0.50029374    -1.13535979     2.02243886 adf.f=fB
      9      N     0.55026578     2.14786749     1.19157717 adf.f=fB
     10      H     0.59538417     3.15241557     1.06278737 adf.f=fB
     11      H     1.31180581     1.88389644     1.80697669 adf.f=fB
     12      C    -0.33242851     1.97074026    -1.05657417 adf.f=fB
     13      H    -0.22897906     1.49657876    -2.02925068 adf.f=fB
     14      H    -1.30472275     1.69159063    -0.66261752 adf.f=fB
     15      H    -0.25798065     3.06264652    -1.16254734 adf.f=fB

Total System Charge             -1.00000


----------------
ADF Engine Input
----------------
 
   Basis
     Type TZ2P
     Core None
   End
   XC
     GGA BLYP
     Dispersion GRIMME3 BJDAMP
   End
   Symmetry NOSYM
   NumericalQuality Normal
   Unrestricted No
   SCF
     Iterations 200
     Converge 1.0e-6
   End
   fragments
     fA c1_fragA_ts.results/adf.rkf
     fB c2_fragB_ts.results/adf.rkf
   end
   etsnocv
     enocv 0.05
     ekmin 0.5
   end
   print etslowdin
   Save TAPE21
 

 Title: *** (NO TITLE) ***

 *** adf ***



 ===========================
 A T T A C H E D   F I L E S
 ===========================
  



 ===============================
 M O D E L   P A R A M E T E R S
 ===============================
  
 DENSITY FUNCTIONAL POTENTIAL (scf)
    LDA:                               Exchange only                           == Not Default ==
    Gradient Corrections:              Becke88 LYP                             == Not Default ==

 SPIN  (restricted / unrestr.)
    Molecule:                          Restricted                               
    Fragments:                         Restricted                               

 OTHER ASPECTS
    Relativistic Corrections:          scalar (ZORA,MAPA)                       

    Nuclear Charge Density Model:      Point Charge Nuclei                      
    Core Treatment:                    Frozen Orbital(s)                        

    Hyperfine or Zeeman Interaction:   ---                                      

 Settings for Grimme D3 dispersion correction

      damping                        BJ
      s6                          1.000
      s8                          2.700
      a1                          0.430
      a2                          4.236

 Other (technical) parameters

      alpha                      14.000
      version                         4
 


 Fragment File(s)
 ----------------
 fA:
         file : c1_fragA_ts.results/adf.rkf
         jobid: 131766910
         title: *** adf ***
 fB:
         file : c2_fragB_ts.results/adf.rkf
         jobid: 681555285
         title: *** adf ***



 ===============
 G E O M E T R Y  ***  3D  Molecule  ***
 ===============
  

 ATOMS
 =====                            X Y Z                    CHARGE
                                (Angstrom)             Nucl     +Core       At.Mass
                       --------------------------    ----------------       -------
    1  F              -0.8086   -0.5552   -0.9845      9.00      9.00       18.9984
    2  C               0.8473   -0.0032    0.0881      6.00      6.00       12.0000
    3  H               1.7343    1.7832   -0.5488      1.00      1.00        1.0078
    4  Cl              2.7311   -0.0730    1.0701     17.00     17.00       34.9689
    5  C               0.7632    1.5097   -0.1091      6.00      6.00       12.0000
    6  H               1.1785   -0.6125   -0.7295      1.00      1.00        1.0078
    7  C               0.0484   -0.6368    1.1091      6.00      6.00       12.0000
    8  N              -0.5003   -1.1354    2.0224      7.00      7.00       14.0031
    9  N               0.5503    2.1479    1.1916      7.00      7.00       14.0031
   10  H               0.5954    3.1524    1.0628      1.00      1.00        1.0078
   11  H               1.3118    1.8839    1.8070      1.00      1.00        1.0078
   12  C              -0.3324    1.9707   -1.0566      6.00      6.00       12.0000
   13  H              -0.2290    1.4966   -2.0293      1.00      1.00        1.0078
   14  H              -1.3047    1.6916   -0.6626      1.00      1.00        1.0078
   15  H              -0.2580    3.0626   -1.1625      1.00      1.00        1.0078


 FRAGMENTS
 =========                                     Atoms in this Fragment     Cart. coord.s (Angstrom)
                                               -------------------------------------------------------
    1  fA                                                1  F           -0.8086   -0.5552   -0.9845
    2  fB                                                2  C            0.8473   -0.0032    0.0881
                                                         5  C            0.7632    1.5097   -0.1091
                                                         7  C            0.0484   -0.6368    1.1091
                                                        12  C           -0.3324    1.9707   -1.0566
                                                         3  H            1.7343    1.7832   -0.5488
                                                         6  H            1.1785   -0.6125   -0.7295
                                                        10  H            0.5954    3.1524    1.0628
                                                        11  H            1.3118    1.8839    1.8070
                                                        13  H           -0.2290    1.4966   -2.0293
                                                        14  H           -1.3047    1.6916   -0.6626
                                                        15  H           -0.2580    3.0626   -1.1625
                                                         4  Cl           2.7311   -0.0730    1.0701
                                                         8  N           -0.5003   -1.1354    2.0224
                                                         9  N            0.5503    2.1479    1.1916


 Interatomic Distance Matrix (Angstrom)
 --------------------------------------

   1)     0.000
   2)     2.049   0.000
   3)     3.482   2.094   0.000
   4)     4.121   2.126   2.657   0.000
   5)     2.739   1.528   1.101   2.787   0.000
   6)     2.004   1.072   2.466   2.437   2.250   0.000
   7)     2.264   1.443   3.383   2.742   2.570   2.158   0.000
   8)     3.078   2.615   4.486   3.532   3.624   3.266   1.176   0.000
   9)     3.727   2.436   2.136   3.115   1.464   3.421   2.831   3.546   0.000
  10)     4.462   3.312   2.402   3.868   2.025   4.210   3.829   4.528   1.014   0.000
  11)     4.271   2.595   2.396   2.527   2.028   3.561   2.905   3.528   1.014   1.636
          0.000
  12)     2.571   2.569   2.136   4.253   1.520   3.010   3.411   4.377   2.422   2.598
          3.303   0.000
  13)     2.374   2.809   2.476   4.564   2.161   2.849   3.805   4.839   3.377   3.603
          4.152   1.087   0.000
  14)     2.323   2.840   3.043   4.733   2.148   3.388   3.224   3.981   2.662   2.953
          3.603   1.086   1.750   0.000
  15)     3.664   3.491   2.446   4.874   2.136   3.970   4.352   5.275   2.652   2.385
          3.560   1.100   1.790   1.796   0.000

 Min. Distance =    1.0138
 Max. Distance =    5.2750



 =====================================
 S Y M M E T R Y ,   E L E C T R O N S
 =====================================
  
 Symmetry: NOSYM

 Irreducible Representations, including subspecies
 -------------------------------------------------
 A


 Configuration of Valence Electrons
 ==================================
 ( determined in the SCF procedure )

 Total:   72

 Net Charge: -1 (Nuclei minus Electrons)

 Aufbau principle for MO occupations will be applied through SCF cycle no.     100
 Thereafter, the program will assign electrons to MOs that are spatially
 similar to the occupied MOs in a "reference" cycle ("KeepOrbitals").
 The reference cycle is always the PREVIOUS cycle: it will evolve with
 the SCF procedure.
 ***************************************************************************************************



                                      ****************************************
                                      *  B U I L D : (Fragments, Functions)  *
                                      ****************************************
  

 The individual fragments are copies of the corresponding 'Master' fragments defined on the fragment files.
 However, they may have been rotated (and translated) with respect to the Master. The local coordinate axes
 of each fragment (which define for instance the spatial orientation in the current molecule of a fragment
 P:x orbital) are not necessarily those of the molecule.
 The local frame (if different from the molecular one) is printed to enable an interpretation of the expan-
 sion of an MO in Fragment Orbitals.



                                              ************************
                                              *  Fragment Type : fA  *
                                              ************************
  

 Fragment no.    1   (in the list of all fragments)
 -----------------
 The local coordinate frame is identical to the molecular frame.

 Check Atomic Coordinates:

                  Master (on file)          After Computed Tranformation               As specified on Input
           ----------------------------     ----------------------------     ---------------------------------
     1)    -0.80858  -0.55517  -0.98454     -0.80858  -0.55517  -0.98454       1  -0.80858  -0.55517  -0.98454



                                              ************************
                                              *  Fragment Type : fB  *
                                              ************************
  

 Fragment no.    2   (in the list of all fragments)
 -----------------
 The local coordinate frame is identical to the molecular frame.

 Check Atomic Coordinates:

                  Master (on file)          After Computed Tranformation               As specified on Input
           ----------------------------     ----------------------------     ---------------------------------
     1)     0.84727  -0.00324   0.08806      0.84727  -0.00324   0.08806       2   0.84727  -0.00324   0.08806
     2)     0.76323   1.50969  -0.10913      0.76323   1.50969  -0.10913       5   0.76323   1.50969  -0.10913
     3)     0.04839  -0.63676   1.10912      0.04839  -0.63676   1.10912       7   0.04839  -0.63676   1.10912
     4)    -0.33243   1.97074  -1.05657     -0.33243   1.97074  -1.05657      12  -0.33243   1.97074  -1.05657
     5)     1.73434   1.78323  -0.54883      1.73434   1.78323  -0.54883       3   1.73434   1.78323  -0.54883
     6)     1.17846  -0.61246  -0.72953      1.17846  -0.61246  -0.72953       6   1.17846  -0.61246  -0.72953
     7)     0.59538   3.15242   1.06279      0.59538   3.15242   1.06279      10   0.59538   3.15242   1.06279
     8)     1.31181   1.88390   1.80698      1.31181   1.88390   1.80698      11   1.31181   1.88390   1.80698
     9)    -0.22898   1.49658  -2.02925     -0.22898   1.49658  -2.02925      13  -0.22898   1.49658  -2.02925
    10)    -1.30472   1.69159  -0.66262     -1.30472   1.69159  -0.66262      14  -1.30472   1.69159  -0.66262
    11)    -0.25798   3.06265  -1.16255     -0.25798   3.06265  -1.16255      15  -0.25798   3.06265  -1.16255
    12)     2.73109  -0.07301   1.07010      2.73109  -0.07301   1.07010       4   2.73109  -0.07301   1.07010
    13)    -0.50029  -1.13536   2.02244     -0.50029  -1.13536   2.02244       8  -0.50029  -1.13536   2.02244
    14)     0.55027   2.14787   1.19158      0.55027   2.14787   1.19158       9   0.55027   2.14787   1.19158



 =======
 S F O s  ***  (Symmetrized Fragment Orbitals)  ***
 =======
  
 SFOs are linear combinations of (valence) Fragment Orbitals (FOs), such that the SFOs transform as the
 irreducible representations of the (molecular) symmetry group. Each SFO is therefore characterized by
 an irrep of the molecule and by a few (or only one) generating FOs.
 The SFOs constitute a symmetry-adapted basis for the Fock matrix. The MO eigenvector coefficients in
 this basis provide a direct interpretation of the MOs in terms of Frontier Orbital Theory.

 The SFOs are combined with auxiliary Core Functions (CFs) to ensure orthogonalization on the (frozen)
 Core Orbitals (COs). The Core-orthogonalized SFOs (CSFOs) constitute the true Fock basis.

 The FOs, and hence also the (C)SFOs are combinations of the elementary basis functions (BAS). The basis
 functions that participate in the description of the SFOs depend on the irrep. The indices of the
 involved functions are printed below for each irrep.
 (The complete list of primitive basis functions is printed in another section)

 Total nr. of (C)SFOs (summation over all irreps) :   293

 NOTE: a (C)SFO that is defined as a combination of more than one FO is usually NOT normalized.



                                       === A ===
 Nr. of SFOs :  293
 Cartesian basis functions that participate in this irrep (total number =   332) :
      1     2     3     4     5     6     9    12     7    10
     13     8    11    14    15    16    17    18    19    20
     21    22    23    24    25    26    27    28    29    30
     31    32    33    34    35    36    39    42    37    40
     43    38    41    44    45    46    47    48    49    50
     51    52    53    54    55    56    57    58    59    60
     61    62    63    64    65    66    69    72    67    70
     73    68    71    74    75    76    77    78    79    80
     81    82    83    84    85    86    87    88    89    90
     91    92    93    94    95    96    99   102    97   100
    103    98   101   104   105   106   107   108   109   110
    111   112   113   114   115   116   117   118   119   120
    121   122   123   124   125   126   129   132   127   130
    133   128   131   134   135   136   137   138   139   140
    141   142   143   144   145   146   147   148   149   150
    151   152   153   154   155   156   157   158   159   160
    161   162   163   164   165   166   167   168   169   170
    171   172   173   174   175   176   177   178   179   180
    181   182   183   184   185   186   187   188   189   190
    191   192   193   194   195   196   197   198   199   200
    201   202   203   204   205   206   207   208   209   210
    211   212   213   214   215   216   217   218   219   220
    221   222   223   224   225   226   227   228   229   230
    231   232   233   234   235   236   237   238   245   246
    247   239   242   248   251   254   240   243   249   252
    255   241   244   250   253   256   257   258   259   260
    261   262   263   264   265   266   267   268   269   270
    271   272   273   274   275   276   277   278   281   284
    279   282   285   280   283   286   287   288   289   290
    291   292   293   294   295   296   297   298   299   300
    301   302   303   304   305   306   307   308   311   314
    309   312   315   310   313   316   317   318   319   320
    321   322   323   324   325   326   327   328   329   330
    331   332

    SFO  (index         Fragment          Generating    Expansion in Fragment Orbitals
  indx  incl.CFs)   Occup   Orb.Energy   FragmentType  Coeff.   Orbital     on Fragment
 --------------------------------------------------------------------------------------
     1       1      2.000     -23.816 au  fA            1.00      1 A               1
                        (    -648.061 eV)
     2       2      2.000      -0.558 au  fA            1.00      2 A               1
                        (     -15.175 eV)
     3       3      2.000       0.108 au  fA            1.00      3 A               1
                        (       2.943 eV)
     4       4      2.000       0.108 au  fA            1.00      4 A               1
                        (       2.943 eV)
     5       5      2.000       0.108 au  fA            1.00      5 A               1
                        (       2.943 eV)
     6       6       --         0.286 au  fA            1.00      6 A               1
                        (       7.775 eV)
     7       7       --         0.812 au  fA            1.00      7 A               1
                        (      22.094 eV)
     8       8       --         0.812 au  fA            1.00      8 A               1
                        (      22.094 eV)
     9       9       --         0.812 au  fA            1.00      9 A               1
                        (      22.094 eV)
    10      10       --         1.565 au  fA            1.00     10 A               1
                        (      42.594 eV)
    11      11       --         1.565 au  fA            1.00     11 A               1
                        (      42.594 eV)
    12      12       --         1.565 au  fA            1.00     12 A               1
                        (      42.594 eV)
    13      13       --         1.565 au  fA            1.00     13 A               1
                        (      42.594 eV)
    14      14       --         1.565 au  fA            1.00     14 A               1
                        (      42.594 eV)
    15      15       --         2.036 au  fA            1.00     15 A               1
                        (      55.390 eV)
    16      16       --         3.895 au  fA            1.00     16 A               1
                        (     106.000 eV)
    17      17       --         3.895 au  fA            1.00     17 A               1
                        (     106.000 eV)
    18      18       --         3.895 au  fA            1.00     18 A               1
                        (     106.000 eV)
    19      19       --         3.895 au  fA            1.00     19 A               1
                        (     106.000 eV)
    20      20       --         3.895 au  fA            1.00     20 A               1
                        (     106.000 eV)
    21      21       --         3.895 au  fA            1.00     21 A               1
                        (     106.000 eV)
    22      22       --         3.895 au  fA            1.00     22 A               1
                        (     106.000 eV)
    23      23       --         5.080 au  fA            1.00     23 A               1
                        (     138.227 eV)
    24      24       --         5.080 au  fA            1.00     24 A               1
                        (     138.227 eV)
    25      25       --         5.080 au  fA            1.00     25 A               1
                        (     138.227 eV)
    26      26       --        48.370 au  fA            1.00     26 A               1
                        (    1316.209 eV)
    27      27      2.000    -101.076 au  fB            1.00      1 A               2
                        (   -2750.422 eV)
    28      28      2.000     -14.045 au  fB            1.00      2 A               2
                        (    -382.173 eV)
    29      29      2.000     -14.021 au  fB            1.00      3 A               2
                        (    -381.526 eV)
    30      30      2.000     -10.047 au  fB            1.00      4 A               2
                        (    -273.398 eV)
    31      31      2.000      -9.994 au  fB            1.00      5 A               2
                        (    -271.944 eV)
    32      32      2.000      -9.984 au  fB            1.00      6 A               2
                        (    -271.672 eV)
    33      33      2.000      -9.939 au  fB            1.00      7 A               2
                        (    -270.454 eV)
    34      34      2.000      -9.229 au  fB            1.00      8 A               2
                        (    -251.135 eV)
    35      35      2.000      -6.997 au  fB            1.00      9 A               2
                        (    -190.388 eV)
    36      36      2.000      -6.986 au  fB            1.00     10 A               2
                        (    -190.096 eV)
    37      37      2.000      -6.986 au  fB            1.00     11 A               2
                        (    -190.094 eV)
    38      38      2.000      -0.853 au  fB            1.00     12 A               2
                        (     -23.206 eV)
    39      39      2.000      -0.832 au  fB            1.00     13 A               2
                        (     -22.646 eV)
    40      40      2.000      -0.760 au  fB            1.00     14 A               2
                        (     -20.692 eV)
    41      41      2.000      -0.710 au  fB            1.00     15 A               2
                        (     -19.328 eV)
    42      42      2.000      -0.672 au  fB            1.00     16 A               2
                        (     -18.290 eV)
    43      43      2.000      -0.577 au  fB            1.00     17 A               2
                        (     -15.696 eV)
    44      44      2.000      -0.509 au  fB            1.00     18 A               2
                        (     -13.841 eV)
    45      45      2.000      -0.474 au  fB            1.00     19 A               2
                        (     -12.889 eV)
    46      46      2.000      -0.444 au  fB            1.00     20 A               2
                        (     -12.069 eV)
    47      47      2.000      -0.416 au  fB            1.00     21 A               2
                        (     -11.332 eV)
    48      48      2.000      -0.390 au  fB            1.00     22 A               2
                        (     -10.603 eV)
    49      49      2.000      -0.365 au  fB            1.00     23 A               2
                        (      -9.929 eV)
    50      50      2.000      -0.355 au  fB            1.00     24 A               2
                        (      -9.648 eV)
    51      51      2.000      -0.351 au  fB            1.00     25 A               2
                        (      -9.559 eV)
    52      52      2.000      -0.332 au  fB            1.00     26 A               2
                        (      -9.033 eV)
    53      53      2.000      -0.310 au  fB            1.00     27 A               2
                        (      -8.424 eV)
    54      54      2.000      -0.300 au  fB            1.00     28 A               2
                        (      -8.169 eV)
    55      55      2.000      -0.274 au  fB            1.00     29 A               2
                        (      -7.447 eV)
    56      56      2.000      -0.268 au  fB            1.00     30 A               2
                        (      -7.294 eV)
    57      57      2.000      -0.227 au  fB            1.00     31 A               2
                        (      -6.187 eV)
    58      58       --        -0.142 au  fB            1.00     32 A               2
                        (      -3.873 eV)
    59      59       --        -0.042 au  fB            1.00     33 A               2
                        (      -1.139 eV)
    60      60       --        -0.021 au  fB            1.00     34 A               2
                        (      -0.574 eV)
    61      61       --         0.001 au  fB            1.00     35 A               2
                        (       0.037 eV)
    62      62       --         0.008 au  fB            1.00     36 A               2
                        (       0.230 eV)
    63      63       --         0.013 au  fB            1.00     37 A               2
                        (       0.345 eV)
    64      64       --         0.030 au  fB            1.00     38 A               2
                        (       0.806 eV)
    65      65       --         0.042 au  fB            1.00     39 A               2
                        (       1.152 eV)
    66      66       --         0.053 au  fB            1.00     40 A               2
                        (       1.455 eV)
    67      67       --         0.073 au  fB            1.00     41 A               2
                        (       1.974 eV)
    68      68       --         0.092 au  fB            1.00     42 A               2
                        (       2.493 eV)
    69      69       --         0.102 au  fB            1.00     43 A               2
                        (       2.770 eV)
    70      70       --         0.115 au  fB            1.00     44 A               2
                        (       3.128 eV)
    71      71       --         0.152 au  fB            1.00     45 A               2
                        (       4.140 eV)
    72      72       --         0.157 au  fB            1.00     46 A               2
                        (       4.277 eV)
    73      73       --         0.164 au  fB            1.00     47 A               2
                        (       4.475 eV)
    74      74       --         0.182 au  fB            1.00     48 A               2
                        (       4.965 eV)
    75      75       --         0.195 au  fB            1.00     49 A               2
                        (       5.295 eV)
    76      76       --         0.199 au  fB            1.00     50 A               2
                        (       5.404 eV)
    77      77       --         0.215 au  fB            1.00     51 A               2
                        (       5.847 eV)
    78      78       --         0.239 au  fB            1.00     52 A               2
                        (       6.503 eV)
    79      79       --         0.246 au  fB            1.00     53 A               2
                        (       6.699 eV)
    80      80       --         0.263 au  fB            1.00     54 A               2
                        (       7.157 eV)
    81      81       --         0.271 au  fB            1.00     55 A               2
                        (       7.370 eV)
    82      82       --         0.280 au  fB            1.00     56 A               2
                        (       7.618 eV)
    83      83       --         0.301 au  fB            1.00     57 A               2
                        (       8.201 eV)
    84      84       --         0.308 au  fB            1.00     58 A               2
                        (       8.390 eV)
    85      85       --         0.315 au  fB            1.00     59 A               2
                        (       8.571 eV)
    86      86       --         0.330 au  fB            1.00     60 A               2
                        (       8.976 eV)
    87      87       --         0.342 au  fB            1.00     61 A               2
                        (       9.298 eV)
    88      88       --         0.349 au  fB            1.00     62 A               2
                        (       9.492 eV)
    89      89       --         0.363 au  fB            1.00     63 A               2
                        (       9.870 eV)
    90      90       --         0.391 au  fB            1.00     64 A               2
                        (      10.635 eV)
    91      91       --         0.404 au  fB            1.00     65 A               2
                        (      11.000 eV)
    92      92       --         0.408 au  fB            1.00     66 A               2
                        (      11.102 eV)
    93      93       --         0.417 au  fB            1.00     67 A               2
                        (      11.354 eV)
    94      94       --         0.419 au  fB            1.00     68 A               2
                        (      11.388 eV)
    95      95       --         0.439 au  fB            1.00     69 A               2
                        (      11.934 eV)
    96      96       --         0.441 au  fB            1.00     70 A               2
                        (      12.003 eV)
    97      97       --         0.472 au  fB            1.00     71 A               2
                        (      12.839 eV)
    98      98       --         0.491 au  fB            1.00     72 A               2
                        (      13.347 eV)
    99      99       --         0.515 au  fB            1.00     73 A               2
                        (      14.016 eV)
   100     100       --         0.534 au  fB            1.00     74 A               2
                        (      14.531 eV)
   101     101       --         0.551 au  fB            1.00     75 A               2
                        (      14.996 eV)
   102     102       --         0.581 au  fB            1.00     76 A               2
                        (      15.800 eV)
   103     103       --         0.594 au  fB            1.00     77 A               2
                        (      16.160 eV)
   104     104       --         0.630 au  fB            1.00     78 A               2
                        (      17.135 eV)
   105     105       --         0.650 au  fB            1.00     79 A               2
                        (      17.691 eV)
   106     106       --         0.678 au  fB            1.00     80 A               2
                        (      18.443 eV)
   107     107       --         0.705 au  fB            1.00     81 A               2
                        (      19.189 eV)
   108     108       --         0.746 au  fB            1.00     82 A               2
                        (      20.305 eV)
   109     109       --         0.785 au  fB            1.00     83 A               2
                        (      21.370 eV)
   110     110       --         0.827 au  fB            1.00     84 A               2
                        (      22.499 eV)
   111     111       --         0.860 au  fB            1.00     85 A               2
                        (      23.410 eV)
   112     112       --         0.886 au  fB            1.00     86 A               2
                        (      24.117 eV)
   113     113       --         0.900 au  fB            1.00     87 A               2
                        (      24.492 eV)
   114     114       --         0.954 au  fB            1.00     88 A               2
                        (      25.959 eV)
   115     115       --         0.987 au  fB            1.00     89 A               2
                        (      26.846 eV)
   116     116       --         1.002 au  fB            1.00     90 A               2
                        (      27.263 eV)
   117     117       --         1.017 au  fB            1.00     91 A               2
                        (      27.667 eV)
   118     118       --         1.033 au  fB            1.00     92 A               2
                        (      28.107 eV)
   119     119       --         1.045 au  fB            1.00     93 A               2
                        (      28.425 eV)
   120     120       --         1.054 au  fB            1.00     94 A               2
                        (      28.683 eV)
   121     121       --         1.087 au  fB            1.00     95 A               2
                        (      29.581 eV)
   122     122       --         1.115 au  fB            1.00     96 A               2
                        (      30.335 eV)
   123     123       --         1.117 au  fB            1.00     97 A               2
                        (      30.388 eV)
   124     124       --         1.154 au  fB            1.00     98 A               2
                        (      31.413 eV)
   125     125       --         1.185 au  fB            1.00     99 A               2
                        (      32.248 eV)
   126     126       --         1.204 au  fB            1.00    100 A               2
                        (      32.753 eV)
   127     127       --         1.212 au  fB            1.00    101 A               2
                        (      32.991 eV)
   128     128       --         1.231 au  fB            1.00    102 A               2
                        (      33.487 eV)
   129     129       --         1.234 au  fB            1.00    103 A               2
                        (      33.575 eV)
   130     130       --         1.239 au  fB            1.00    104 A               2
                        (      33.725 eV)
   131     131       --         1.264 au  fB            1.00    105 A               2
                        (      34.395 eV)
   132     132       --         1.294 au  fB            1.00    106 A               2
                        (      35.202 eV)
   133     133       --         1.302 au  fB            1.00    107 A               2
                        (      35.418 eV)
   134     134       --         1.303 au  fB            1.00    108 A               2
                        (      35.452 eV)
   135     135       --         1.317 au  fB            1.00    109 A               2
                        (      35.849 eV)
   136     136       --         1.347 au  fB            1.00    110 A               2
                        (      36.645 eV)
   137     137       --         1.358 au  fB            1.00    111 A               2
                        (      36.965 eV)
   138     138       --         1.378 au  fB            1.00    112 A               2
                        (      37.500 eV)
   139     139       --         1.389 au  fB            1.00    113 A               2
                        (      37.786 eV)
   140     140       --         1.412 au  fB            1.00    114 A               2
                        (      38.411 eV)
   141     141       --         1.444 au  fB            1.00    115 A               2
                        (      39.294 eV)
   142     142       --         1.466 au  fB            1.00    116 A               2
                        (      39.891 eV)
   143     143       --         1.507 au  fB            1.00    117 A               2
                        (      40.998 eV)
   144     144       --         1.512 au  fB            1.00    118 A               2
                        (      41.146 eV)
   145     145       --         1.579 au  fB            1.00    119 A               2
                        (      42.954 eV)
   146     146       --         1.610 au  fB            1.00    120 A               2
                        (      43.797 eV)
   147     147       --         1.625 au  fB            1.00    121 A               2
                        (      44.210 eV)
   148     148       --         1.661 au  fB            1.00    122 A               2
                        (      45.186 eV)
   149     149       --         1.691 au  fB            1.00    123 A               2
                        (      46.010 eV)
   150     150       --         1.728 au  fB            1.00    124 A               2
                        (      47.008 eV)
   151     151       --         1.772 au  fB            1.00    125 A               2
                        (      48.224 eV)
   152     152       --         1.781 au  fB            1.00    126 A               2
                        (      48.475 eV)
   153     153       --         1.809 au  fB            1.00    127 A               2
                        (      49.223 eV)
   154     154       --         1.827 au  fB            1.00    128 A               2
                        (      49.707 eV)
   155     155       --         1.877 au  fB            1.00    129 A               2
                        (      51.066 eV)
   156     156       --         1.885 au  fB            1.00    130 A               2
                        (      51.288 eV)
   157     157       --         1.929 au  fB            1.00    131 A               2
                        (      52.491 eV)
   158     158       --         1.988 au  fB            1.00    132 A               2
                        (      54.088 eV)
   159     159       --         2.011 au  fB            1.00    133 A               2
                        (      54.729 eV)
   160     160       --         2.030 au  fB            1.00    134 A               2
                        (      55.243 eV)
   161     161       --         2.045 au  fB            1.00    135 A               2
                        (      55.641 eV)
   162     162       --         2.107 au  fB            1.00    136 A               2
                        (      57.322 eV)
   163     163       --         2.165 au  fB            1.00    137 A               2
                        (      58.917 eV)
   164     164       --         2.189 au  fB            1.00    138 A               2
                        (      59.553 eV)
   165     165       --         2.210 au  fB            1.00    139 A               2
                        (      60.146 eV)
   166     166       --         2.225 au  fB            1.00    140 A               2
                        (      60.546 eV)
   167     167       --         2.256 au  fB            1.00    141 A               2
                        (      61.396 eV)
   168     168       --         2.320 au  fB            1.00    142 A               2
                        (      63.140 eV)
   169     169       --         2.336 au  fB            1.00    143 A               2
                        (      63.561 eV)
   170     170       --         2.356 au  fB            1.00    144 A               2
                        (      64.111 eV)
   171     171       --         2.401 au  fB            1.00    145 A               2
                        (      65.337 eV)
   172     172       --         2.407 au  fB            1.00    146 A               2
                        (      65.493 eV)
   173     173       --         2.431 au  fB            1.00    147 A               2
                        (      66.157 eV)
   174     174       --         2.463 au  fB            1.00    148 A               2
                        (      67.016 eV)
   175     175       --         2.486 au  fB            1.00    149 A               2
                        (      67.647 eV)
   176     176       --         2.509 au  fB            1.00    150 A               2
                        (      68.262 eV)
   177     177       --         2.562 au  fB            1.00    151 A               2
                        (      69.707 eV)
   178     178       --         2.586 au  fB            1.00    152 A               2
                        (      70.372 eV)
   179     179       --         2.669 au  fB            1.00    153 A               2
                        (      72.638 eV)
   180     180       --         2.711 au  fB            1.00    154 A               2
                        (      73.767 eV)
   181     181       --         2.744 au  fB            1.00    155 A               2
                        (      74.667 eV)
   182     182       --         2.772 au  fB            1.00    156 A               2
                        (      75.435 eV)
   183     183       --         2.799 au  fB            1.00    157 A               2
                        (      76.173 eV)
   184     184       --         2.828 au  fB            1.00    158 A               2
                        (      76.956 eV)
   185     185       --         2.851 au  fB            1.00    159 A               2
                        (      77.572 eV)
   186     186       --         2.865 au  fB            1.00    160 A               2
                        (      77.965 eV)
   187     187       --         2.918 au  fB            1.00    161 A               2
                        (      79.400 eV)
   188     188       --         2.926 au  fB            1.00    162 A               2
                        (      79.612 eV)
   189     189       --         2.943 au  fB            1.00    163 A               2
                        (      80.075 eV)
   190     190       --         2.971 au  fB            1.00    164 A               2
                        (      80.839 eV)
   191     191       --         3.002 au  fB            1.00    165 A               2
                        (      81.675 eV)
   192     192       --         3.026 au  fB            1.00    166 A               2
                        (      82.347 eV)
   193     193       --         3.043 au  fB            1.00    167 A               2
                        (      82.791 eV)
   194     194       --         3.083 au  fB            1.00    168 A               2
                        (      83.894 eV)
   195     195       --         3.124 au  fB            1.00    169 A               2
                        (      85.022 eV)
   196     196       --         3.134 au  fB            1.00    170 A               2
                        (      85.282 eV)
   197     197       --         3.206 au  fB            1.00    171 A               2
                        (      87.252 eV)
   198     198       --         3.276 au  fB            1.00    172 A               2
                        (      89.144 eV)
   199     199       --         3.304 au  fB            1.00    173 A               2
                        (      89.906 eV)
   200     200       --         3.372 au  fB            1.00    174 A               2
                        (      91.753 eV)
   201     201       --         3.429 au  fB            1.00    175 A               2
                        (      93.308 eV)
   202     202       --         3.451 au  fB            1.00    176 A               2
                        (      93.901 eV)
   203     203       --         3.481 au  fB            1.00    177 A               2
                        (      94.723 eV)
   204     204       --         3.509 au  fB            1.00    178 A               2
                        (      95.472 eV)
   205     205       --         3.524 au  fB            1.00    179 A               2
                        (      95.892 eV)
   206     206       --         3.588 au  fB            1.00    180 A               2
                        (      97.627 eV)
   207     207       --         3.600 au  fB            1.00    181 A               2
                        (      97.952 eV)
   208     208       --         3.629 au  fB            1.00    182 A               2
                        (      98.741 eV)
   209     209       --         3.695 au  fB            1.00    183 A               2
                        (     100.554 eV)
   210     210       --         3.744 au  fB            1.00    184 A               2
                        (     101.883 eV)
   211     211       --         3.747 au  fB            1.00    185 A               2
                        (     101.967 eV)
   212     212       --         3.775 au  fB            1.00    186 A               2
                        (     102.716 eV)
   213     213       --         3.805 au  fB            1.00    187 A               2
                        (     103.535 eV)
   214     214       --         3.812 au  fB            1.00    188 A               2
                        (     103.725 eV)
   215     215       --         3.837 au  fB            1.00    189 A               2
                        (     104.409 eV)
   216     216       --         3.851 au  fB            1.00    190 A               2
                        (     104.787 eV)
   217     217       --         3.888 au  fB            1.00    191 A               2
                        (     105.804 eV)
   218     218       --         3.916 au  fB            1.00    192 A               2
                        (     106.561 eV)
   219     219       --         3.935 au  fB            1.00    193 A               2
                        (     107.074 eV)
   220     220       --         3.967 au  fB            1.00    194 A               2
                        (     107.951 eV)
   221     221       --         4.001 au  fB            1.00    195 A               2
                        (     108.864 eV)
   222     222       --         4.147 au  fB            1.00    196 A               2
                        (     112.843 eV)
   223     223       --         4.168 au  fB            1.00    197 A               2
                        (     113.416 eV)
   224     224       --         4.323 au  fB            1.00    198 A               2
                        (     117.631 eV)
   225     225       --         4.371 au  fB            1.00    199 A               2
                        (     118.935 eV)
   226     226       --         4.386 au  fB            1.00    200 A               2
                        (     119.340 eV)
   227     227       --         4.396 au  fB            1.00    201 A               2
                        (     119.609 eV)
   228     228       --         4.417 au  fB            1.00    202 A               2
                        (     120.203 eV)
   229     229       --         4.482 au  fB            1.00    203 A               2
                        (     121.953 eV)
   230     230       --         4.550 au  fB            1.00    204 A               2
                        (     123.818 eV)
   231     231       --         4.616 au  fB            1.00    205 A               2
                        (     125.594 eV)
   232     232       --         4.635 au  fB            1.00    206 A               2
                        (     126.128 eV)
   233     233       --         4.661 au  fB            1.00    207 A               2
                        (     126.845 eV)
   234     234       --         4.729 au  fB            1.00    208 A               2
                        (     128.681 eV)
   235     235       --         4.820 au  fB            1.00    209 A               2
                        (     131.165 eV)
   236     236       --         4.874 au  fB            1.00    210 A               2
                        (     132.625 eV)
   237     237       --         4.897 au  fB            1.00    211 A               2
                        (     133.262 eV)
   238     238       --         4.945 au  fB            1.00    212 A               2
                        (     134.548 eV)
   239     239       --         5.022 au  fB            1.00    213 A               2
                        (     136.664 eV)
   240     240       --         5.056 au  fB            1.00    214 A               2
                        (     137.570 eV)
   241     241       --         5.086 au  fB            1.00    215 A               2
                        (     138.386 eV)
   242     242       --         5.146 au  fB            1.00    216 A               2
                        (     140.029 eV)
   243     243       --         5.237 au  fB            1.00    217 A               2
                        (     142.513 eV)
   244     244       --         5.273 au  fB            1.00    218 A               2
                        (     143.492 eV)
   245     245       --         5.296 au  fB            1.00    219 A               2
                        (     144.116 eV)
   246     246       --         5.377 au  fB            1.00    220 A               2
                        (     146.309 eV)
   247     247       --         5.467 au  fB            1.00    221 A               2
                        (     148.766 eV)
   248     248       --         5.496 au  fB            1.00    222 A               2
                        (     149.560 eV)
   249     249       --         5.515 au  fB            1.00    223 A               2
                        (     150.071 eV)
   250     250       --         5.594 au  fB            1.00    224 A               2
                        (     152.210 eV)
   251     251       --         5.609 au  fB            1.00    225 A               2
                        (     152.634 eV)
   252     252       --         5.924 au  fB            1.00    226 A               2
                        (     161.196 eV)
   253     253       --         5.952 au  fB            1.00    227 A               2
                        (     161.973 eV)
   254     254       --         6.052 au  fB            1.00    228 A               2
                        (     164.688 eV)
   255     255       --         6.202 au  fB            1.00    229 A               2
                        (     168.771 eV)
   256     256       --         6.273 au  fB            1.00    230 A               2
                        (     170.704 eV)
   257     257       --         6.307 au  fB            1.00    231 A               2
                        (     171.612 eV)
   258     258       --         6.358 au  fB            1.00    232 A               2
                        (     173.011 eV)
   259     259       --         6.391 au  fB            1.00    233 A               2
                        (     173.910 eV)
   260     260       --         6.484 au  fB            1.00    234 A               2
                        (     176.426 eV)
   261     261       --         6.507 au  fB            1.00    235 A               2
                        (     177.054 eV)
   262     262       --         6.530 au  fB            1.00    236 A               2
                        (     177.704 eV)
   263     263       --         6.551 au  fB            1.00    237 A               2
                        (     178.252 eV)
   264     264       --         6.649 au  fB            1.00    238 A               2
                        (     180.936 eV)
   265     265       --         6.686 au  fB            1.00    239 A               2
                        (     181.928 eV)
   266     266       --         6.909 au  fB            1.00    240 A               2
                        (     187.994 eV)
   267     267       --         6.937 au  fB            1.00    241 A               2
                        (     188.772 eV)
   268     268       --         7.043 au  fB            1.00    242 A               2
                        (     191.656 eV)
   269     269       --         7.194 au  fB            1.00    243 A               2
                        (     195.749 eV)
   270     270       --         7.410 au  fB            1.00    244 A               2
                        (     201.643 eV)
   271     271       --         7.429 au  fB            1.00    245 A               2
                        (     202.147 eV)
   272     272       --         7.471 au  fB            1.00    246 A               2
                        (     203.286 eV)
   273     273       --         7.562 au  fB            1.00    247 A               2
                        (     205.761 eV)
   274     274       --         7.645 au  fB            1.00    248 A               2
                        (     208.032 eV)
   275     275       --         7.678 au  fB            1.00    249 A               2
                        (     208.932 eV)
   276     276       --         7.883 au  fB            1.00    250 A               2
                        (     214.518 eV)
   277     277       --         8.228 au  fB            1.00    251 A               2
                        (     223.886 eV)
   278     278       --         8.744 au  fB            1.00    252 A               2
                        (     237.933 eV)
   279     279       --         9.039 au  fB            1.00    253 A               2
                        (     245.965 eV)
   280     280       --         9.239 au  fB            1.00    254 A               2
                        (     251.406 eV)
   281     281       --         9.734 au  fB            1.00    255 A               2
                        (     264.886 eV)
   282     282       --        11.348 au  fB            1.00    256 A               2
                        (     308.793 eV)
   283     283       --        13.840 au  fB            1.00    257 A               2
                        (     376.598 eV)
   284     284       --        19.031 au  fB            1.00    258 A               2
                        (     517.869 eV)
   285     285       --        19.108 au  fB            1.00    259 A               2
                        (     519.955 eV)
   286     286       --        19.513 au  fB            1.00    260 A               2
                        (     530.968 eV)
   287     287       --        54.845 au  fB            1.00    261 A               2
                        (    1492.406 eV)
   288     288       --        56.109 au  fB            1.00    262 A               2
                        (    1526.812 eV)
   289     289       --        58.062 au  fB            1.00    263 A               2
                        (    1579.943 eV)
   290     290       --        59.448 au  fB            1.00    264 A               2
                        (    1617.657 eV)
   291     291       --        69.718 au  fB            1.00    265 A               2
                        (    1897.119 eV)
   292     292       --        71.547 au  fB            1.00    266 A               2
                        (    1946.892 eV)
   293     293       --       209.590 au  fB            1.00    267 A               2
                        (    5703.246 eV)



 ================================
 (Slater-type)  F U N C T I O N S  ***  (Basis and Fit)  ***
 ================================
  

 Atom Type    1  (F)
 ==============

 Valence Basis Sets:  10
 -----------------------
   1 S   10.880000
   1 S    7.700000
   2 S    3.240000
   2 S    1.940000
   2 S    0.740000
   2 P    4.540000
   2 P    2.300000
   2 P    1.240000
   3 D    2.000000
   4 F    3.000000

 Atom Type    2  (C)
 ==============

 Valence Basis Sets:  10
 -----------------------
   1 S    7.680000
   1 S    5.000000
   2 S    1.280000
   2 S    2.100000
   2 S    4.600000
   2 P    0.820000
   2 P    1.480000
   2 P    2.940000
   3 D    2.200000
   4 F    3.300000

 Atom Type    3  (H)
 ==============

 Valence Basis Sets:   5
 -----------------------
   1 S    0.690000
   1 S    0.920000
   1 S    1.580000
   2 P    1.250000
   3 D    2.500000

 Atom Type    4  (Cl)
 ==============

 Valence Basis Sets:  14
 -----------------------
   1 S   20.300000
   1 S   15.250000
   2 S    6.250000
   2 S    4.450000
   2 P    8.850000
   2 P    5.050000
   3 S    3.450000
   3 S    2.300000
   3 S    1.600000
   3 P    3.350000
   3 P    2.050000
   3 P    1.200000
   3 D    2.000000
   4 F    2.000000

 Atom Type    5  (N)
 ==============

 Valence Basis Sets:  10
 -----------------------
   1 S    8.740000
   1 S    5.900000
   2 S    5.150000
   2 S    2.500000
   2 S    1.500000
   2 P    3.680000
   2 P    1.880000
   2 P    1.000000
   3 D    2.200000
   4 F    3.300000


 BAS: List of all Elementary Cartesian Basis Functions
 =====================================================

 The numbering in the list below (to the right of the function characteristics) is referred
 to in print-outs of MO eigenvectors and Mulliken populations in the BAS representation
 (as contrasted to the SFO representation).

 Notes:
 1. The functions are characterized by a polynomial prefactor (powers of x,y,z and r) and
    an exponential decay factor alpha.
 2. Since the basis sets are specific for an atom TYPE, the individual functions occur on
    all atoms of that type.
 3. The word 'Core' in the left margin signals that it is a Core Function (CF) : not a
    degree of freedom in the valence set, but only used to ensure orthogonalization of
    the other valence basis functions on the frozen Core Orbitals.


 (power of) X  Y  Z  R     Alpha  on Atom
            ==========     =====     ==========

 F                                    1
                                  ---------------------------------------------------------------------------
            0  0  0  0    10.880      1
            0  0  0  0     7.700      2
            0  0  0  1     3.240      3
            0  0  0  1     1.940      4
            0  0  0  1     0.740      5
            1  0  0  0     4.540      6
            0  1  0  0     4.540      7
            0  0  1  0     4.540      8
            1  0  0  0     2.300      9
            0  1  0  0     2.300     10
            0  0  1  0     2.300     11
            1  0  0  0     1.240     12
            0  1  0  0     1.240     13
            0  0  1  0     1.240     14
            2  0  0  0     2.000     15
            1  1  0  0     2.000     16
            1  0  1  0     2.000     17
            0  2  0  0     2.000     18
            0  1  1  0     2.000     19
            0  0  2  0     2.000     20
            3  0  0  0     3.000     21
            2  1  0  0     3.000     22
            2  0  1  0     3.000     23
            1  2  0  0     3.000     24
            1  1  1  0     3.000     25
            1  0  2  0     3.000     26
            0  3  0  0     3.000     27
            0  2  1  0     3.000     28
            0  1  2  0     3.000     29
            0  0  3  0     3.000     30

 C                                    2    3    4    5
                                  ---------------------------------------------------------------------------
            0  0  0  0     7.680     31   61   91  121
            0  0  0  0     5.000     32   62   92  122
            0  0  0  1     1.280     33   63   93  123
            0  0  0  1     2.100     34   64   94  124
            0  0  0  1     4.600     35   65   95  125
            1  0  0  0     0.820     36   66   96  126
            0  1  0  0     0.820     37   67   97  127
            0  0  1  0     0.820     38   68   98  128
            1  0  0  0     1.480     39   69   99  129
            0  1  0  0     1.480     40   70  100  130
            0  0  1  0     1.480     41   71  101  131
            1  0  0  0     2.940     42   72  102  132
            0  1  0  0     2.940     43   73  103  133
            0  0  1  0     2.940     44   74  104  134
            2  0  0  0     2.200     45   75  105  135
            1  1  0  0     2.200     46   76  106  136
            1  0  1  0     2.200     47   77  107  137
            0  2  0  0     2.200     48   78  108  138
            0  1  1  0     2.200     49   79  109  139
            0  0  2  0     2.200     50   80  110  140
            3  0  0  0     3.300     51   81  111  141
            2  1  0  0     3.300     52   82  112  142
            2  0  1  0     3.300     53   83  113  143
            1  2  0  0     3.300     54   84  114  144
            1  1  1  0     3.300     55   85  115  145
            1  0  2  0     3.300     56   86  116  146
            0  3  0  0     3.300     57   87  117  147
            0  2  1  0     3.300     58   88  118  148
            0  1  2  0     3.300     59   89  119  149
            0  0  3  0     3.300     60   90  120  150

 H                                    6    7    8    9   10   11   12
                                  ---------------------------------------------------------------------------
            0  0  0  0     0.690    151  163  175  187  199  211  223
            0  0  0  0     0.920    152  164  176  188  200  212  224
            0  0  0  0     1.580    153  165  177  189  201  213  225
            1  0  0  0     1.250    154  166  178  190  202  214  226
            0  1  0  0     1.250    155  167  179  191  203  215  227
            0  0  1  0     1.250    156  168  180  192  204  216  228
            2  0  0  0     2.500    157  169  181  193  205  217  229
            1  1  0  0     2.500    158  170  182  194  206  218  230
            1  0  1  0     2.500    159  171  183  195  207  219  231
            0  2  0  0     2.500    160  172  184  196  208  220  232
            0  1  1  0     2.500    161  173  185  197  209  221  233
            0  0  2  0     2.500    162  174  186  198  210  222  234

 Cl                                  13
                                  ---------------------------------------------------------------------------
            0  0  0  0    20.300    235
            0  0  0  0    15.250    236
            0  0  0  1     6.250    237
            0  0  0  1     4.450    238
            1  0  0  0     8.850    239
            0  1  0  0     8.850    240
            0  0  1  0     8.850    241
            1  0  0  0     5.050    242
            0  1  0  0     5.050    243
            0  0  1  0     5.050    244
            0  0  0  2     3.450    245
            0  0  0  2     2.300    246
            0  0  0  2     1.600    247
            1  0  0  1     3.350    248
            0  1  0  1     3.350    249
            0  0  1  1     3.350    250
            1  0  0  1     2.050    251
            0  1  0  1     2.050    252
            0  0  1  1     2.050    253
            1  0  0  1     1.200    254
            0  1  0  1     1.200    255
            0  0  1  1     1.200    256
            2  0  0  0     2.000    257
            1  1  0  0     2.000    258
            1  0  1  0     2.000    259
            0  2  0  0     2.000    260
            0  1  1  0     2.000    261
            0  0  2  0     2.000    262
            3  0  0  0     2.000    263
            2  1  0  0     2.000    264
            2  0  1  0     2.000    265
            1  2  0  0     2.000    266
            1  1  1  0     2.000    267
            1  0  2  0     2.000    268
            0  3  0  0     2.000    269
            0  2  1  0     2.000    270
            0  1  2  0     2.000    271
            0  0  3  0     2.000    272

 N                                   14   15
                                  ---------------------------------------------------------------------------
            0  0  0  0     8.740    273  303
            0  0  0  0     5.900    274  304
            0  0  0  1     5.150    275  305
            0  0  0  1     2.500    276  306
            0  0  0  1     1.500    277  307
            1  0  0  0     3.680    278  308
            0  1  0  0     3.680    279  309
            0  0  1  0     3.680    280  310
            1  0  0  0     1.880    281  311
            0  1  0  0     1.880    282  312
            0  0  1  0     1.880    283  313
            1  0  0  0     1.000    284  314
            0  1  0  0     1.000    285  315
            0  0  1  0     1.000    286  316
            2  0  0  0     2.200    287  317
            1  1  0  0     2.200    288  318
            1  0  1  0     2.200    289  319
            0  2  0  0     2.200    290  320
            0  1  1  0     2.200    291  321
            0  0  2  0     2.200    292  322
            3  0  0  0     3.300    293  323
            2  1  0  0     3.300    294  324
            2  0  1  0     3.300    295  325
            1  2  0  0     3.300    296  326
            1  1  1  0     3.300    297  327
            1  0  2  0     3.300    298  328
            0  3  0  0     3.300    299  329
            0  2  1  0     3.300    300  330
            0  1  2  0     3.300    301  331
            0  0  3  0     3.300    302  332

 Total number of charge fitting functions (nprimf)      1045
 Total number of Cartesian basis functions (naos)        332
 Total number of Cartesian core functions  (ncos)          0

 ***************************************************************************************************



                                              ***********************
                                              *  T E C H N I C A L  *
                                              ***********************
  



 =============================================================
 P A R A L L E L I Z A T I O N  and  V E C T O R I Z A T I O N
 =============================================================
  
 Nr of parallel processes:                                1
 Maximum vector length in NumInt loops:                 128



 =====================
 S C F   U P D A T E S
 =====================
  
 Max. nr. of cycles:                               200
 Convergence criterion:                              0.0000010000
   secondary criterion:                              0.0010000000

 Mix parameter (when DIIS does not apply):           0.2000000000
 Mixed ADIIS+SDIIS will be used                  
    Max number of expansion vectors:                10
    Pure ADIIS when Max([F,P]) is above              0.1000000000
    Pure SDIIS when Max([F,P]) is below              0.0010000000
 Automatic ElectronSmearing (in case of problematic SCF convergence) disabled



 =================
 P R E C I S I O N  ***  (General: NumInt, NeglectFunctionTails, ...)  ***
 =================
  

 NumInt:           Target precision:                 4.0000000000
 -------           Initial precision:                4.0000000000
                   Min. precision (optimization):    4.0000000000

 Neglect Functions:          Basis functions:        0.1000000000E-05
 ------------------          Fit functions:          0.1000000000E-05



 ===========================
 L I N E A R   S C A L I N G
 ===========================
  

 Cut-off radii density fit:                        0.1000000000E-07
 Overlap cut-off criterion AO matrix elements:     0.1000000000E-05
 Cut-offs for Coulomb potential and fitted density:0.1000000000E-07
 Cut-off criterion for Coulomb multipole terms:    0.1000000000E-07
 Progressive Convergence parameter:                 0.000000000    
 ***************************************************************************************************



                                            ***************************
                                            *  C O M P U T A T I O N  *
                                            ***************************
  

 Number of elements of the density matrix on this node (used, total):     55278     55278



 ===========================================
 Numerical Integration : Fuzzy Cells (Becke)
 ===========================================
  
 Becke grid quality: NORMAL         
  
 Lebedev angular grid order:             min:  11 max:  23
 Nr. of radial points:                   min:  46 max:  67

 Total nr. of points:     100553
 Nr. of blocks:              786
 Block length:               128
 Nr. of dummy points:         55


 Test of Precision of the Numerical Integration Grid
 ===================================================

 Integral of the Total Core Density:                   0.00000000000000



 ========================
 Density Fitting (zlmFit)
 ========================
  
 ZlmFit Fit Quality: NORMAL         
  
 Max L-expansion:                        min:   6 max:   7
 Nr. of radial interpolation points:     min:  39 max:  60



 =====
 S C F  ***  ScaSCF  ***
 =====
  
 Initial density matrix is calculated as sum of fragments

 CYCLE    1
 SCF Error: norm([F,P])=      0.798026130407, max([F,P])=      0.298922963180
 orbitals (Q,E):
 ---------------
 A :27...46          ( 2.00    -0.1636)  ( 2.00    -0.1558)  ( 2.00    -0.1421)  ( 2.00    -0.1377)
                     ( 2.00    -0.1180)  ( 2.00    -0.1172)  ( 2.00    -0.0802)  ( 2.00     0.0217)
                     ( 2.00     0.0635)  ( 2.00     0.0658)  ( 0.00     0.0921)  ( 0.00     0.1232)
                     ( 0.00     0.1402)  ( 0.00     0.1461)  ( 0.00     0.1676)  ( 0.00     0.1768)
                     ( 0.00     0.1977)  ( 0.00     0.2143)  ( 0.00     0.2313)  ( 0.00     0.2337)

 CYCLE    2
  SDIIS (wt  0.000):  0.7632  0.2368
 A-DIIS (wt  1.000):  0.9732  0.0268
  DIIS coefficients:  0.9732  0.0268
 SCF Error: norm([F,P])=      1.589250182447, max([F,P])=      0.636753076070
 orbitals (Q,E):
 ---------------
 A :27...37          ( 2.00    -0.1641)  ( 2.00    -0.1569)  ( 2.00    -0.1377)  ( 2.00    -0.1339)
                     ( 2.00    -0.1162)  ( 2.00    -0.1152)  ( 2.00    -0.0797)  ( 2.00     0.0107)
                     ( 2.00     0.0430)  ( 2.00     0.0446)  ( 0.00     0.0925)

 CYCLE    3
  SDIIS (wt  0.000):  0.3722 -1.3497  1.9776
 A-DIIS (wt  1.000):  0.9626  0.0000  0.0374
  DIIS coefficients:  0.9626  0.0000  0.0374
 SCF Error: norm([F,P])=      1.180197230296, max([F,P])=      0.464223570433
 orbitals (Q,E):
 ---------------
 A :27...37          ( 2.00    -0.1645)  ( 2.00    -0.1573)  ( 2.00    -0.1371)  ( 2.00    -0.1333)
                     ( 2.00    -0.1164)  ( 2.00    -0.1150)  ( 2.00    -0.0799)  ( 2.00     0.0094)
                     ( 2.00     0.0413)  ( 2.00     0.0428)  ( 0.00     0.0925)

 CYCLE    4
  SDIIS (wt  0.000): -2.0000 -0.0000  3.0000
 A-DIIS (wt  1.000):  0.0000  0.0000  1.0000
  DIIS coefficients:  0.0000  0.0000  1.0000
 SCF Error: norm([F,P])=      1.154593535760, max([F,P])=      0.456246829204
 orbitals (Q,E):
 ---------------
 A :27...37          ( 2.00    -0.2468)  ( 2.00    -0.2397)  ( 2.00    -0.2302)  ( 2.00    -0.1777)
                     ( 2.00    -0.1291)  ( 2.00    -0.0765)  ( 2.00    -0.0602)  ( 2.00    -0.0564)
                     ( 2.00     0.0303)  ( 2.00     0.0367)  ( 0.00     0.0646)

 CYCLE    5
  SDIIS (wt  0.000): -1.3569 -0.7801  3.0000  0.1370
 A-DIIS (wt  1.000): -0.0000  0.0000  0.7842  0.2158
  DIIS coefficients: -0.0000  0.0000  0.7842  0.2158
 SCF Error: norm([F,P])=      3.062440824469, max([F,P])=      0.813801858617
 orbitals (Q,E):
 ---------------
 A :27...37          ( 2.00    -0.1989)  ( 2.00    -0.1963)  ( 2.00    -0.1894)  ( 2.00    -0.1489)
                     ( 2.00    -0.1410)  ( 2.00    -0.1181)  ( 2.00    -0.0919)  ( 2.00    -0.0706)
                     ( 2.00    -0.0615)  ( 2.00    -0.0558)  ( 0.00     0.0879)

 CYCLE    6
  SDIIS (wt  0.000): -0.8710 -1.4186  3.0000  0.0810  0.2085
 A-DIIS (wt  1.000):  0.0000  0.0000  0.4172  0.0000  0.5828
  DIIS coefficients:  0.0000  0.0000  0.4172  0.0000  0.5828
 SCF Error: norm([F,P])=      1.025945791120, max([F,P])=      0.356224427572
 orbitals (Q,E):
 ---------------
 A :27...37          ( 2.00    -0.2004)  ( 2.00    -0.1363)  ( 2.00    -0.1275)  ( 2.00    -0.1219)
                     ( 2.00    -0.1025)  ( 2.00    -0.0909)  ( 2.00    -0.0864)  ( 2.00    -0.0694)
                     ( 2.00    -0.0594)  ( 2.00    -0.0530)  ( 0.00     0.0502)

 CYCLE    7
  SDIIS (wt  0.000): -0.4025  0.2804  0.4155 -0.0783  0.4327  0.3522
 A-DIIS (wt  1.000): -0.0000  0.0000  0.2979  0.0000  0.4383  0.2638
  DIIS coefficients: -0.0000  0.0000  0.2979  0.0000  0.4383  0.2638
 SCF Error: norm([F,P])=      0.992964779688, max([F,P])=      0.284566115324
 orbitals (Q,E):
 ---------------
 A :27...37          ( 2.00    -0.1802)  ( 2.00    -0.1718)  ( 2.00    -0.1374)  ( 2.00    -0.1271)
                     ( 2.00    -0.1010)  ( 2.00    -0.0930)  ( 2.00    -0.0784)  ( 2.00    -0.0715)
                     ( 2.00    -0.0646)  ( 2.00    -0.0636)  ( 0.00     0.0743)

 CYCLE    8
  SDIIS (wt  0.157): -0.2410  0.1354  0.2423 -0.0229  0.2118  0.2356  0.4387
 A-DIIS (wt  0.843):  0.0000  0.0000  0.0000  0.0000  0.0000  0.0969  0.9031
  DIIS coefficients: -0.0379  0.0213  0.0381 -0.0036  0.0333  0.1187  0.8300
 SCF Error: norm([F,P])=      0.267325243501, max([F,P])=      0.084421583018
 orbitals (Q,E):
 ---------------
 A :27...37          ( 2.00    -0.1872)  ( 2.00    -0.1306)  ( 2.00    -0.1260)  ( 2.00    -0.1229)
                     ( 2.00    -0.1139)  ( 2.00    -0.1051)  ( 2.00    -0.0952)  ( 2.00    -0.0866)
                     ( 2.00    -0.0814)  ( 2.00    -0.0749)  ( 0.00     0.0649)

 CYCLE    9
  SDIIS (wt  0.000):  0.0396 -2.0000  2.0064  0.0061 -0.0094  0.0035  0.6517  0.3021
 A-DIIS (wt  1.000): -0.0000  0.0000  0.0000  0.0000  0.0000  0.0000  0.7198  0.2802
  DIIS coefficients: -0.0000  0.0000  0.0000  0.0000  0.0000  0.0000  0.7198  0.2802
 SCF Error: norm([F,P])=      0.535233012168, max([F,P])=      0.165435857414
 orbitals (Q,E):
 ---------------
 A :27...37          ( 2.00    -0.1854)  ( 2.00    -0.1510)  ( 2.00    -0.1318)  ( 2.00    -0.1259)
                     ( 2.00    -0.1079)  ( 2.00    -0.0988)  ( 2.00    -0.0821)  ( 2.00    -0.0666)
                     ( 2.00    -0.0573)  ( 2.00    -0.0542)  ( 0.00     0.0670)

 CYCLE   10
  SDIIS (wt  0.427): -0.0143  0.8018 -0.8251  0.0048  0.0074 -0.0927  0.3524  0.0742  0.6916
 A-DIIS (wt  0.573):  0.0000  0.0000  0.0000  0.0000  0.0000  0.0000  0.4185  0.0000  0.5815
  DIIS coefficients: -0.0061  0.3423 -0.3522  0.0020  0.0031 -0.0396  0.3903  0.0317  0.6285
 SCF Error: norm([F,P])=      0.206660148166, max([F,P])=      0.057737478851
 orbitals (Q,E):
 ---------------
 A :27...37          ( 2.00    -0.1815)  ( 2.00    -0.1554)  ( 2.00    -0.1300)  ( 2.00    -0.1253)
                     ( 2.00    -0.1038)  ( 2.00    -0.0952)  ( 2.00    -0.0889)  ( 2.00    -0.0791)
                     ( 2.00    -0.0777)  ( 2.00    -0.0727)  ( 0.00     0.0720)

 CYCLE   11
  SDIIS (wt  0.427): -0.0078  0.3952 -0.4021  0.0008 -0.0039 -0.0418  0.2431 -0.0048  0.5291  0.2923
 A-DIIS (wt  0.573):  0.0000  0.0000  0.0000  0.0000  0.0000  0.0000  0.2349  0.0000  0.3655  0.3996
  DIIS coefficients: -0.0033  0.1687 -0.1717  0.0003 -0.0017 -0.0178  0.2384 -0.0021  0.4353  0.3538
 SCF Error: norm([F,P])=      0.178631447730, max([F,P])=      0.062021601253
 orbitals (Q,E):
 ---------------
 A :27...37          ( 2.00    -0.1819)  ( 2.00    -0.1595)  ( 2.00    -0.1325)  ( 2.00    -0.1256)
                     ( 2.00    -0.1056)  ( 2.00    -0.0972)  ( 2.00    -0.0795)  ( 2.00    -0.0696)
                     ( 2.00    -0.0613)  ( 2.00    -0.0592)  ( 0.00     0.0716)

 CYCLE   12
  SDIIS (wt  0.872):  0.1937 -0.2043  0.0004 -0.0048 -0.0061  0.0807 -0.0246  0.2371  0.2832  0.4447
 A-DIIS (wt  0.128):  0.0000  0.0000  0.0000  0.0000  0.0000  0.0000  0.0000  0.0000  0.1246  0.8754
  DIIS coefficients:  0.1688 -0.1781  0.0003 -0.0042 -0.0053  0.0704 -0.0214  0.2067  0.2629  0.5000
 SCF Error: norm([F,P])=      0.047185717243, max([F,P])=      0.013709640543
 orbitals (Q,E):
 ---------------
 A :27...37          ( 2.00    -0.1824)  ( 2.00    -0.1578)  ( 2.00    -0.1320)  ( 2.00    -0.1254)
                     ( 2.00    -0.1048)  ( 2.00    -0.0961)  ( 2.00    -0.0807)  ( 2.00    -0.0728)
                     ( 2.00    -0.0658)  ( 2.00    -0.0632)  ( 0.00     0.0707)

 CYCLE   13
  SDIIS (wt  0.973): -0.0006  0.0000 -0.0013 -0.0002  0.0145 -0.0035  0.0209  0.0601  0.2638  0.6463
 A-DIIS (wt  0.027):  0.0000  0.0000  0.0000  0.0000  0.0000  0.0000  0.0000  0.0000  0.1460  0.8540
  DIIS coefficients: -0.0006  0.0000 -0.0013 -0.0002  0.0141 -0.0034  0.0204  0.0585  0.2607  0.6519
 SCF Error: norm([F,P])=      0.013347546537, max([F,P])=      0.003662632913
 orbitals (Q,E):
 ---------------
 A :27...37          ( 2.00    -0.1822)  ( 2.00    -0.1583)  ( 2.00    -0.1322)  ( 2.00    -0.1255)
                     ( 2.00    -0.1049)  ( 2.00    -0.0963)  ( 2.00    -0.0803)  ( 2.00    -0.0722)
                     ( 2.00    -0.0650)  ( 2.00    -0.0625)  ( 0.00     0.0710)

 CYCLE   14
  SDIIS (wt  1.000): -0.0000 -0.0004 -0.0001  0.0033 -0.0006 -0.0011  0.0154  0.1193  0.4017  0.4626
  DIIS coefficients: -0.0000 -0.0004 -0.0001  0.0033 -0.0006 -0.0011  0.0154  0.1193  0.4017  0.4626
 SCF Error: norm([F,P])=      0.000810110080, max([F,P])=      0.000180039945
 orbitals (Q,E):
 ---------------
 A :27...37          ( 2.00    -0.1822)  ( 2.00    -0.1583)  ( 2.00    -0.1321)  ( 2.00    -0.1255)
                     ( 2.00    -0.1049)  ( 2.00    -0.0963)  ( 2.00    -0.0804)  ( 2.00    -0.0723)
                     ( 2.00    -0.0650)  ( 2.00    -0.0626)  ( 0.00     0.0710)

 CYCLE   15
  SDIIS (wt  1.000): -0.0002 -0.0001  0.0017 -0.0002 -0.0004  0.0065  0.0527  0.1861  0.2580  0.4959
  DIIS coefficients: -0.0002 -0.0001  0.0017 -0.0002 -0.0004  0.0065  0.0527  0.1861  0.2580  0.4959
 SCF Error: norm([F,P])=      0.000120383892, max([F,P])=      0.000016421200
 orbitals (Q,E):
 ---------------
 A :27...37          ( 2.00    -0.1822)  ( 2.00    -0.1583)  ( 2.00    -0.1321)  ( 2.00    -0.1255)
                     ( 2.00    -0.1049)  ( 2.00    -0.0963)  ( 2.00    -0.0804)  ( 2.00    -0.0723)
                     ( 2.00    -0.0650)  ( 2.00    -0.0626)  ( 0.00     0.0710)

 CYCLE   16
  SDIIS (wt  1.000):  0.0000  0.0001 -0.0001 -0.0001  0.0003  0.0033  0.0138  0.0410  0.2248  0.7169
  DIIS coefficients:  0.0000  0.0001 -0.0001 -0.0001  0.0003  0.0033  0.0138  0.0410  0.2248  0.7169
 SCF Error: norm([F,P])=      0.000034828090, max([F,P])=      0.000005138152
 orbitals (Q,E):
 ---------------
 A :27...37          ( 2.00    -0.1822)  ( 2.00    -0.1583)  ( 2.00    -0.1321)  ( 2.00    -0.1255)
                     ( 2.00    -0.1049)  ( 2.00    -0.0963)  ( 2.00    -0.0804)  ( 2.00    -0.0723)
                     ( 2.00    -0.0650)  ( 2.00    -0.0626)  ( 0.00     0.0710)

 CYCLE   17
[...]
                                    3.42%     9 A              22.094  0.00     1 fA
                                    3.42%    27 A              -8.424  2.00     2 fB
                                    2.90%    36 A               0.230  0.00     2 fB
                                    2.29%    56 A               7.618  0.00     2 fB
                                    2.17%    37 A               0.345  0.00     2 fB
                                    2.03%    43 A               2.770  0.00     2 fB
                                    1.71%     4 A               2.943  2.00     1 fA
                                    1.66%    76 A              15.800  0.00     2 fB
                                    1.66%    47 A               4.475  0.00     2 fB
                                    1.56%    23 A              -9.929  2.00     2 fB
                                    1.41%    44 A               3.128  0.00     2 fB
       0.05877       288 A         15.59%    28 A              -8.169  2.00     2 fB
                                   12.44%    26 A              -9.033  2.00     2 fB
                                    5.37%    29 A              -7.447  2.00     2 fB
                                    4.39%     8 A              22.094  0.00     1 fA
                                    4.24%    40 A               1.455  0.00     2 fB
                                    4.21%    39 A               1.152  0.00     2 fB
                                    3.81%    42 A               2.493  0.00     2 fB
                                    3.81%    27 A              -8.424  2.00     2 fB
                                    3.72%    25 A              -9.559  2.00     2 fB
                                    2.60%     9 A              22.094  0.00     1 fA
                                    2.52%     7 A              22.094  0.00     1 fA
                                    2.50%    23 A              -9.929  2.00     2 fB
                                    2.42%    37 A               0.345  0.00     2 fB
                                    2.39%    36 A               0.230  0.00     2 fB
                                    2.34%    56 A               7.618  0.00     2 fB
                                    2.06%     4 A               2.943  2.00     1 fA
                                    1.99%    47 A               4.475  0.00     2 fB
                                    1.86%    43 A               2.770  0.00     2 fB
                                    1.36%    51 A               5.847  0.00     2 fB
                                    1.30%    44 A               3.128  0.00     2 fB
                                    1.17%    76 A              15.800  0.00     2 fB
                                    1.17%    24 A              -9.648  2.00     2 fB
                                    1.01%    30 A              -7.294  2.00     2 fB
      -0.05373         7 A         33.03%    29 A              -7.447  2.00     2 fB
                                   10.98%    35 A               0.037  0.00     2 fB
                                    5.37%    47 A               4.475  0.00     2 fB
                                    5.25%    39 A               1.152  0.00     2 fB
                                    4.13%    24 A              -9.648  2.00     2 fB
                                    3.31%    49 A               5.295  0.00     2 fB
                                    3.14%    26 A              -9.033  2.00     2 fB
                                    2.59%    59 A               8.571  0.00     2 fB
                                    2.55%     9 A              22.094  0.00     1 fA
                                    2.52%    58 A               8.390  0.00     2 fB
                                    2.21%    44 A               3.128  0.00     2 fB
                                    1.79%    25 A              -9.559  2.00     2 fB
                                    1.72%    28 A              -8.169  2.00     2 fB
                                    1.61%    21 A             -11.332  2.00     2 fB
                                    1.50%    37 A               0.345  0.00     2 fB
                                    1.43%    54 A               7.157  0.00     2 fB
                                    1.25%    22 A             -10.603  2.00     2 fB
                                    1.24%    50 A               5.404  0.00     2 fB
                                    1.22%    53 A               6.699  0.00     2 fB
                                    1.19%    56 A               7.618  0.00     2 fB
                                    1.03%    23 A              -9.929  2.00     2 fB
       0.05373       287 A         30.48%    29 A              -7.447  2.00     2 fB
                                   11.00%    35 A               0.037  0.00     2 fB
                                    6.16%    47 A               4.475  0.00     2 fB
                                    5.39%    39 A               1.152  0.00     2 fB
                                    4.04%    24 A              -9.648  2.00     2 fB
                                    3.69%    49 A               5.295  0.00     2 fB
                                    3.12%    26 A              -9.033  2.00     2 fB
                                    2.78%    59 A               8.571  0.00     2 fB
                                    2.66%    58 A               8.390  0.00     2 fB
                                    2.48%    44 A               3.128  0.00     2 fB
                                    2.29%    25 A              -9.559  2.00     2 fB
                                    1.96%    22 A             -10.603  2.00     2 fB
                                    1.91%    28 A              -8.169  2.00     2 fB
                                   -1.72%     6 A               7.775  0.00     1 fA
                                    1.65%    54 A               7.157  0.00     2 fB
                                    1.46%    50 A               5.404  0.00     2 fB
                                    1.29%    37 A               0.345  0.00     2 fB
                                    1.27%    23 A              -9.929  2.00     2 fB
                                    1.26%    56 A               7.618  0.00     2 fB
                                    1.20%    18 A             -13.841  2.00     2 fB
                                    1.17%    53 A               6.699  0.00     2 fB
                                    1.13%    21 A             -11.332  2.00     2 fB
                                    1.05%     9 A              22.094  0.00     1 fA
                                    1.01%     2 A             -15.175  2.00     1 fA
      -0.05150         8 A         29.46%    30 A              -7.294  2.00     2 fB
                                    7.93%    57 A               8.201  0.00     2 fB
                                    6.62%    55 A               7.370  0.00     2 fB
                                    6.21%    38 A               0.806  0.00     2 fB
                                    5.64%    24 A              -9.648  2.00     2 fB
                                    3.55%    20 A             -12.069  2.00     2 fB
                                    2.97%    26 A              -9.033  2.00     2 fB
                                    2.90%    37 A               0.345  0.00     2 fB
                                    2.32%    45 A               4.140  0.00     2 fB
                                    2.13%    31 A              -6.187  2.00     2 fB
                                    2.05%    42 A               2.493  0.00     2 fB
                                    1.92%    34 A              -0.574  0.00     2 fB
                                    1.84%    33 A              -1.139  0.00     2 fB
                                    1.57%     9 A              22.094  0.00     1 fA
                                    1.54%    48 A               4.965  0.00     2 fB
                                    1.54%    25 A              -9.559  2.00     2 fB
                                    1.40%     7 A              22.094  0.00     1 fA
                                    1.40%     8 A              22.094  0.00     1 fA
                                    1.33%    40 A               1.455  0.00     2 fB
                                    1.31%    41 A               1.974  0.00     2 fB
                                    1.24%    60 A               8.976  0.00     2 fB
                                    1.19%    29 A              -7.447  2.00     2 fB
                                    1.07%    27 A              -8.424  2.00     2 fB
       0.05150       286 A         28.17%    30 A              -7.294  2.00     2 fB
                                    8.27%    57 A               8.201  0.00     2 fB
                                    7.07%    55 A               7.370  0.00     2 fB
                                    6.74%    38 A               0.806  0.00     2 fB
                                    5.24%    24 A              -9.648  2.00     2 fB
                                    4.30%    20 A             -12.069  2.00     2 fB
                                    3.27%    37 A               0.345  0.00     2 fB
                                    2.66%    26 A              -9.033  2.00     2 fB
                                    2.29%    45 A               4.140  0.00     2 fB
                                    2.18%    42 A               2.493  0.00     2 fB
                                    1.94%    34 A              -0.574  0.00     2 fB
                                    1.89%    31 A              -6.187  2.00     2 fB
                                    1.79%    33 A              -1.139  0.00     2 fB
                                    1.63%    40 A               1.455  0.00     2 fB
                                    1.62%    48 A               4.965  0.00     2 fB
                                    1.29%    41 A               1.974  0.00     2 fB
                                    1.24%    29 A              -7.447  2.00     2 fB
                                    1.23%    60 A               8.976  0.00     2 fB
                                    1.07%    23 A              -9.929  2.00     2 fB
 Mulliken charges used for AMS results%charges...


    =====================
     CALCULATION RESULTS
    =====================

Energy (hartree)            -0.07081802


--------------
Atomic charges
--------------
  Index   Atom    Charge
      1      F   -0.6183
      2      C    0.3312
      3      H   -0.2042
      4     Cl   -0.4505
      5      C    0.3992
      6      H   -0.1136
      7      C    0.1929
      8      N   -0.3578
      9      N   -0.0543
     10      H   -0.0855
     11      H   -0.0507
     12      C    0.7554
     13      H   -0.2371
     14      H   -0.1930
     15      H   -0.3136


Dipole moment vector    (Debye):    -0.36911149    3.17162759   -3.54740875
              magnitude (Debye):     4.77279517


-----------------------
Molecular orbitals info
-----------------------
n orbitals:              293
n spin:                    1

Note: only printing virtual orbitals with
      energy smaller than HOMO + 100. eV

HOMO (eV):              -1.7023
LUMO (eV):               1.9317
HOMO-LUMO gap (eV):      3.6339

   Index   Energy (eV)    Occupation
     191       98.1790         0.000       
     190       97.1725         0.000       
     189       96.9346         0.000       
     188       95.6021         0.000       
     187       94.6179         0.000       
     186       92.0936         0.000       
     185       90.9284         0.000       
     184       89.8656         0.000       
     183       89.2372         0.000       
     182       87.9820         0.000       
     181       86.9923         0.000       
     180       86.2842         0.000       
     179       86.0207         0.000       
     178       85.3499         0.000       
     177       84.7731         0.000       
     176       84.3714         0.000       
     175       83.3352         0.000       
     174       82.1552         0.000       
     173       81.8084         0.000       
     172       81.2009         0.000       
     171       80.4134         0.000       
     170       79.6812         0.000       
     169       79.1515         0.000       
     168       78.1473         0.000       
     167       77.0906         0.000       
     166       76.5260         0.000       
     165       74.2449         0.000       
     164       74.0451         0.000       
     163       73.2485         0.000       
     162       72.7209         0.000       
     161       71.4736         0.000       
     160       70.4730         0.000       
     159       70.1365         0.000       
     158       69.6022         0.000       
     157       68.2834         0.000       
     156       67.7925         0.000       
     155       67.3446         0.000       
     154       66.0539         0.000       
     153       65.2209         0.000       
     152       64.6102         0.000       
     151       63.6448         0.000       
     150       62.7871         0.000       
     149       61.2064         0.000       
     148       60.4748         0.000       
     147       59.3734         0.000       
     146       58.8688         0.000       
     145       58.2246         0.000       
     144       56.6172         0.000       
     143       55.9912         0.000       
     142       55.8621         0.000       
     141       55.0456         0.000       
     140       54.6460         0.000       
     139       53.6201         0.000       
     138       52.9193         0.000       
     137       52.6686         0.000       
     136       51.4651         0.000       
     135       50.0002         0.000       
     134       49.8703         0.000       
     133       48.6453         0.000       
     132       48.3762         0.000       
     131       47.7864         0.000       
     130       47.3573         0.000       
     129       45.7943         0.000       
     128       45.4280         0.000       
     127       44.9544         0.000       
     126       43.9486         0.000       
     125       43.2212         0.000       
     124       42.5363         0.000       
     123       42.1825         0.000       
     122       42.0537         0.000       
     121       41.6932         0.000       
     120       41.0989         0.000       
     119       40.3953         0.000       
     118       40.1380         0.000       
     117       39.9826         0.000       
     116       39.8965         0.000       
     115       39.3488         0.000       
     114       38.7822         0.000       
     113       38.1738         0.000       
     112       38.0380         0.000       
     111       37.7656         0.000       
     110       37.3137         0.000       
     109       37.1269         0.000       
     108       36.8841         0.000       
     107       35.9076         0.000       
     106       35.7485         0.000       
     105       34.9869         0.000       
     104       34.4950         0.000       
     103       33.4335         0.000       
     102       33.1727         0.000       
     101       32.8515         0.000       
     100       32.2930         0.000       
      99       31.9561         0.000       
      98       31.2260         0.000       
      97       31.0042         0.000       
      96       30.0801         0.000       
      95       29.3193         0.000       
      94       28.7374         0.000       
      93       28.3862         0.000       
      92       27.7465         0.000       
      91       27.3948         0.000       
      90       26.2949         0.000       
      89       25.8463         0.000       
      88       24.6007         0.000       
      87       23.3934         0.000       
      86       22.8538         0.000       
      85       22.1350         0.000       
      84       21.7052         0.000       
      83       20.8813         0.000       
      82       20.6002         0.000       
      81       19.9472         0.000       
      80       19.1098         0.000       
      79       18.5018         0.000       
      78       17.5780         0.000       
      77       17.5471         0.000       
      76       17.0438         0.000       
      75       16.4087         0.000       
      74       15.9570         0.000       
      73       15.7770         0.000       
      72       15.5242         0.000       
      71       15.2310         0.000       
      70       15.0710         0.000       
      69       14.6060         0.000       
      68       13.9490         0.000       
      67       13.8396         0.000       
      66       13.2090         0.000       
      65       13.1043         0.000       
      64       12.7604         0.000       
      63       12.5774         0.000       
      62       12.1383         0.000       
      61       11.7611         0.000       
      60       11.4543         0.000       
      59       11.1509         0.000       
      58       10.9384         0.000       
      57       10.6263         0.000       
      56       10.1613         0.000       
      55        9.8335         0.000       
      54        9.3161         0.000       
      53        9.0639         0.000       
      52        8.7849         0.000       
      51        8.2242         0.000       
      50        7.7402         0.000       
      49        7.5179         0.000       
      48        7.0026         0.000       
      47        6.6616         0.000       
      46        5.6499         0.000       
      45        5.6364         0.000       
      44        5.4073         0.000       
      43        4.9828         0.000       
      42        4.5149         0.000       
      41        4.2810         0.000       
      40        3.8487         0.000       
      39        3.6576         0.000       
      38        2.7547         0.000       
      37        1.9317         0.000 < LUMO
      36       -1.7023         2.000 < HOMO
      35       -1.7698         2.000       
      34       -1.9663         2.000       
      33       -2.1873         2.000       
      32       -2.6208         2.000       
      31       -2.8543         2.000       
      30       -3.4139         2.000       
      29       -3.5959         2.000       
      28       -4.3066         2.000       
      27       -4.9573         2.000       
      26       -5.1886         2.000       
      25       -5.4658         2.000       
      24       -6.0804         2.000       
      23       -6.8525         2.000       
      22       -7.5503         2.000       
      21       -8.6530         2.000       
      20       -9.0189         2.000       
      19      -11.0976         2.000       
      18      -13.5058         2.000       
      17      -14.6670         2.000       
      16      -15.8401         2.000       
      15      -17.7453         2.000       
      14      -18.7872         2.000       
      13      -20.6699         2.000       
      12     -185.0453         2.000       
      11     -185.0490         2.000       
      10     -185.2248         2.000       
       9     -246.0549         2.000       
       8     -265.9466         2.000       
       7     -266.8454         2.000       
       6     -267.4697         2.000       
       5     -268.3489         2.000       
       4     -376.9608         2.000       
       3     -377.5076         2.000       
       2     -653.3169         2.000       
       1    -2745.3091         2.000       

AMS application finished. Exiting.
NORMAL TERMINATION
     Total cpu time:      99.32
  Total system time:       0.39
 Total elapsed time:     100.01
NORMAL TERMINATION
