
 *******************************************************************************
 *                                                                             *
 *  --------------------------------                                           *
 *   Amsterdam Modeling Suite (AMS)              2026.103                      *
 *  --------------------------------                                           *
 *                                               r260501 2026-05-01 873454b5   *
 *                                                                             *
 *                                                                             *
 *                              =================                              *
 *                              |               |                              *
 *                              |     A M S     |                              *
 *                              |               |                              *
 *                              =================                              *
 *                                                                             *
 *                                                                             *
 *   Online information and documentation:  https://www.scm.com/support/       *
 *   E-mail:  support@scm.com   info@scm.com                                   *
 *                                                                             *
 *   Scientific publications using AMS results must be properly referenced     *
 *   See the User Manuals (or the web site) for recommended citations          *
 *   The terms and conditions of the End User License Agreement apply to       *
 *   the use of AMS, https://www.scm.com/license-terms/                        *
 *                                                                             *
 **********************  x86_64_linux_intel / intelmpi  ************************
 
 Licensed to: Jong-June Jeon / University of Seoul 2026-06-02 13:44:15
 SCM User ID: u30731
  
 AMS 2026.103  RunTime: Jun03-2026 05:18:45  ShM Nodes: 1  Procs: 1

 AMS jobname: c4_fragA_opt
 AMS jobid  : 891965670

 Start   directory: /gpfs/home1/yeseo1ee/projects/eda-asm-prediction/ADF_800/adf_outputs/batch_000/dipolar_001302/
 Results directory: /gpfs/home1/yeseo1ee/projects/eda-asm-prediction/ADF_800/adf_outputs/batch_000/dipolar_001302/c4_fragA_opt.results/
 Scratch directory: /tmp/amstmp_c4_fragA_opt_kid0.891965670/

 RNG seed: -770328316 -263413665 597366157 -1645725160 -211750192 2086679629 510899569 -1684806572



                      ************************************************************************
                      *  ADF 2026.103  RunTime: Jun03-2026 05:18:46  ShM Nodes: 1  Procs: 1  *
                      ************************************************************************
  

       ***************************
       *  GEOMETRY OPTIMIZATION  *
       ***************************

Optimization Method                    Quasi Newton
Optimization Coordinates               Delocalized Coordinates
Optimize lattice                       F
 
 ------------------------------------------------------
 Convergence criteria (Hartree,Angstrom)
 ------------------------------------------------------
 Maximum gradient               0.000100000000
 Maximum rms gradient           0.000066666667
 Maximum step allowed           0.010000000000
 Maximum rms step allowed       0.006666666667
 Maximum energy change allowe   0.000250000000
 Maximum stress energy allowe   0.000500000000
 
Initial model Hessian                  Automatic Hessian
 
------------------------------------
Quasi-Newton Optimizer Parameters
------------------------------------
Hessian Update Method                  BFGS
Maximum number of steps                  200
First GDIIS cycle                          0
Maximum GDIIS vectors                      0
Trust radius (bohr)                        0.200000
Trust radius varies                        T
Constraints converged at all steps         T
Use projector                              T
 
 Rigid motions settings for: old optimizer
 Atomic rotations (x,y,z):     T T T
 Atomic translations (x,y,z):  T T T
 Tolerance:                  1.000000000000000E-006

--------
Geometry
--------
Formula: C11H12O2
Atoms
  Index Symbol   x (angstrom)   y (angstrom)   z (angstrom)
      1      C    -2.81348000     2.83725000    -1.48649000
      2      C    -2.62520000     1.33438000    -1.39775000
      3      O    -3.44991000     0.59198000    -1.95034000
      4      C    -1.60032000     0.79955000    -0.50741000
      5      C    -1.96569000    -0.10331000     0.59219000
      6      C    -2.90600000    -1.14122000     0.42259000
      7      C    -3.20515000    -2.00898000     1.47465000
      8      C    -2.58781000    -1.86353000     2.72129000
      9      C    -1.67199000    -0.82062000     2.90710000
     10      C    -1.36690000     0.04928000     1.86288000
     11      O    -0.43843000     1.45671000    -0.27008000
     12      C     0.41286000     2.01686000    -1.08112000
     13      C     0.08985000     2.72875000    -2.33890000
     14      H    -2.10499000     3.41120000    -0.87934000
     15      H    -2.78117000     3.18365000    -2.53017000
     16      H    -3.83056000     3.03271000    -1.10923000
     17      H    -3.37954000    -1.27578000    -0.54787000
     18      H    -3.92414000    -2.81612000     1.31209000
     19      H    -2.81988000    -2.55001000     3.53865000
     20      H    -1.18594000    -0.68393000     3.87654000
     21      H    -0.64013000     0.84606000     2.02165000
     22      H     1.36345000     2.21042000    -0.57750000
     23      H    -0.29771000     3.74157000    -2.13035000
     24      H     1.01630000     2.84732000    -2.91812000
     25      H    -0.65513000     2.20042000    -2.94966000

Total System Charge              0.00000


----------------
ADF Engine Input
----------------
 
   Basis
     Type TZ2P
     Core None
   End
   XC
     GGA BLYP
     Dispersion GRIMME3 BJDAMP
   End
   Symmetry NOSYM
   NumericalQuality Normal
   Unrestricted No
   SCF
     Iterations 200
     Converge 1.0e-6
   End
   Save TAPE21
 

 Title: *** (NO TITLE) ***

 Using automatic Hessian for delocalized coordinates.
 *** GO1_GOStep1 ***

 Energy gradients wrt nuclear displacements
 ==========================================

     Atom      Cartesian (a.u./angstrom)
                 X         Y         Z
 ----------------------------------------
     1 C     0.005795 -0.019843 -0.001713
     2 C     0.002257  0.017323  0.013078
     3 O     0.005465  0.002013  0.001789
     4 C     0.032031 -0.009273 -0.027669
     5 C    -0.006533  0.000951  0.004597
     6 C     0.006522  0.004710  0.008654
     7 C     0.004035  0.003880  0.000389
     8 C     0.002818  0.003560 -0.004578
     9 C    -0.003979 -0.000968 -0.006788
    10 C    -0.010575  0.000717 -0.004115
    11 O    -0.006944  0.040244  0.008096
    12 C    -0.026864 -0.052883 -0.012245
    13 C    -0.009096  0.009744  0.012011
    14 H     0.002525  0.000167  0.001672
    15 H     0.000284  0.000974 -0.004834
    16 H    -0.005213  0.000247  0.002129
    17 H    -0.001688 -0.001954 -0.003579
    18 H    -0.003542 -0.004065 -0.000520
    19 H    -0.001236 -0.003521  0.003757
    20 H     0.002625  0.000400  0.004179
    21 H     0.003734  0.002624 -0.000590
    22 H     0.004176  0.002168  0.002704
    23 H     0.001557  0.002422  0.004745
    24 H     0.002929  0.000310 -0.000306
    25 H    -0.001084  0.000055 -0.000863
 ----------------------------------------
 
----------------------------------------------------------------------
Geometry Convergence after Step   1       (Hartree/Angstrom,Angstrom)
----------------------------------------------------------------------
current energy                               -5.42697125 Hartree
energy change                      -5.42697125     0.00025000    F
constrained gradient max            0.05287244     0.00010000    F
constrained gradient rms            0.01111936     0.00006667    F
gradient max                        0.05287244
gradient rms                        0.01111936
cart. step max                      0.21095018     0.01000000    F
cart. step rms                      0.06245333     0.00666667    F
 

--------
Geometry
--------
Formula: C11H12O2
Atoms
  Index Symbol   x (angstrom)   y (angstrom)   z (angstrom)
      1      C    -2.91303169     2.86647898    -1.44661612
      2      C    -2.69445308     1.35944752    -1.37724729
      3      O    -3.51589606     0.60722956    -1.92571235
      4      C    -1.64625155     0.83850535    -0.49671712
      5      C    -1.97983635    -0.08253862     0.59835788
      6      C    -2.91805535    -1.12365429     0.42191583
      7      C    -3.19759468    -2.01122759     1.46318492
      8      C    -2.56287073    -1.88528994     2.70396899
      9      C    -1.64690136    -0.84277879     2.89691152
     10      C    -1.35980678     0.04803954     1.86453304
     11      O    -0.47817595     1.50958021    -0.27325369
     12      C     0.42609212     2.06741241    -1.04982819
     13      C     0.21257284     2.66323465    -2.39115832
     14      H    -2.21025743     3.44875455    -0.84263848
     15      H    -2.90044941     3.22500115    -2.48458341
     16      H    -3.92693956     3.03889296    -1.05627658
     17      H    -3.40541920    -1.23980176    -0.54223374
     18      H    -3.91460806    -2.81650371     1.29693727
     19      H    -2.78072983    -2.58571261     3.51057247
     20      H    -1.14960918    -0.72226174     3.86059980
     21      H    -0.63686609     0.84474423     2.02942214
     22      H     1.31921849     2.32130781    -0.47703954
     23      H    -0.23176193     3.67059052    -2.32020852
     24      H     1.18820065     2.77289362    -2.88278585
     25      H    -0.44417982     2.05226602    -3.02480466

Total System Charge              0.00000

 *** GO1_GOStep2 ***

 Energy gradients wrt nuclear displacements
 ==========================================

     Atom      Cartesian (a.u./angstrom)
                 X         Y         Z
 ----------------------------------------
     1 C    -0.001329 -0.011194  0.000104
     2 C     0.001750  0.013939  0.015273
     3 O    -0.000229 -0.002579 -0.002771
     4 C     0.013519 -0.014184 -0.017963
     5 C    -0.006277  0.000869  0.003449
     6 C     0.004363  0.003176  0.004448
     7 C     0.001820  0.001582 -0.000228
     8 C     0.002027  0.001799 -0.002236
     9 C    -0.001890 -0.000789 -0.003035
    10 C    -0.007530  0.002226 -0.000878
    11 O    -0.008724  0.028065  0.008904
    12 C    -0.000875 -0.035596 -0.015574
    13 C    -0.000185  0.008000  0.003077
    14 H    -0.001534 -0.000138  0.000914
    15 H    -0.001288  0.001272 -0.000958
    16 H    -0.003004 -0.000013  0.001572
    17 H    -0.001041 -0.001257 -0.002242
    18 H    -0.001917 -0.002120 -0.000314
    19 H    -0.000663 -0.001899  0.001973
    20 H     0.001575  0.000125  0.002286
    21 H     0.002118  0.001244 -0.000072
    22 H     0.001780  0.004924  0.002163
    23 H     0.002710  0.000693  0.003088
    24 H     0.002052  0.000417 -0.000311
    25 H     0.002773  0.001440 -0.000670
 ----------------------------------------

 dE(predicted):    -0.62614E-02, dE(actual):    -0.30568E-02, Trust radius:    0.200000, all in a.u.
 
----------------------------------------------------------------------
Geometry Convergence after Step   2       (Hartree/Angstrom,Angstrom)
----------------------------------------------------------------------
current energy                               -5.43002804 Hartree
energy change                      -0.00305679     0.00025000    F
constrained gradient max            0.03558161     0.00010000    F
constrained gradient rms            0.00741288     0.00006667    F
gradient max                        0.03558161
gradient rms                        0.00741288
cart. step max                      0.15283284     0.01000000    F
cart. step rms                      0.04888961     0.00666667    F
 

--------
Geometry
--------
Formula: C11H12O2
Atoms
  Index Symbol   x (angstrom)   y (angstrom)   z (angstrom)
      1      C    -2.82878811     2.89970621    -1.47438990
      2      C    -2.67681645     1.37883800    -1.37578808
      3      O    -3.50707122     0.64467950    -1.93504681
      4      C    -1.65612973     0.85276097    -0.45950706
      5      C    -1.97674327    -0.08400958     0.62578760
      6      C    -2.91556927    -1.12421083     0.43099202
      7      C    -3.19597087    -2.02654008     1.45956473
      8      C    -2.56181480    -1.91986948     2.70297217
      9      C    -1.64140723    -0.88351826     2.91282518
     10      C    -1.35134545     0.02295220     1.89444317
     11      O    -0.49661543     1.54669166    -0.24066259
     12      C     0.38735078     2.14260516    -1.02233031
     13      C     0.14095068     2.62927813    -2.40332388
     14      H    -2.11349322     3.46131813    -0.86604472
     15      H    -2.77344428     3.23554934    -2.51696667
     16      H    -3.84042934     3.12607930    -1.11394636
     17      H    -3.40417070    -1.22065024    -0.53258324
     18      H    -3.91351520    -2.82581085     1.28174959
     19      H    -2.78187710    -2.62983046     3.49757910
     20      H    -1.14668653    -0.77908421     3.87732700
     21      H    -0.63077023     0.81621855     2.07374053
     22      H     1.25846098     2.46467204    -0.45484265
     23      H    -0.38459477     3.59880076    -2.41673774
     24      H     1.10658685     2.77618756    -2.90189100
     25      H    -0.46370607     1.92179650    -2.98762008

Total System Charge              0.00000

 *** GO1_GOStep3 ***

 Energy gradients wrt nuclear displacements
 ==========================================

     Atom      Cartesian (a.u./angstrom)
                 X         Y         Z
 ----------------------------------------
     1 C     0.000201 -0.005053 -0.000606
     2 C    -0.000621  0.013614  0.010765
     3 O    -0.000640 -0.004358 -0.005174
     4 C     0.007512 -0.019918 -0.009554
     5 C    -0.005148  0.000619  0.004364
     6 C     0.001477  0.000001  0.000727
     7 C     0.000054 -0.000520 -0.000445
     8 C     0.000774 -0.000323  0.000262
     9 C     0.000213 -0.000461  0.000443
    10 C    -0.003972  0.002972  0.002517
    11 O    -0.015342  0.023736  0.001365
    12 C     0.017633 -0.025575 -0.009060
    13 C    -0.004772  0.006727  0.000130
    14 H    -0.000218  0.000470  0.000343
    15 H    -0.000879  0.000710  0.000476
    16 H    -0.000309  0.000316  0.000599
    17 H     0.000035 -0.000759  0.000051
    18 H    -0.000188 -0.000059 -0.000060
    19 H    -0.000089 -0.000132  0.000132
    20 H     0.000272 -0.000023  0.000262
    21 H     0.000296 -0.000283  0.000289
    22 H     0.000247  0.004956  0.000841
    23 H     0.001116  0.001210  0.002338
    24 H     0.000151  0.000473  0.000143
    25 H     0.002200  0.001658 -0.001148
 ----------------------------------------

 dE(predicted):    -0.35872E-02, dE(actual):    -0.34713E-02, Trust radius:    0.400000, all in a.u.
 
----------------------------------------------------------------------
Geometry Convergence after Step   3       (Hartree/Angstrom,Angstrom)
----------------------------------------------------------------------
current energy                               -5.43349938 Hartree
energy change                      -0.00347135     0.00025000    F
constrained gradient max            0.02556297     0.00010000    F
constrained gradient rms            0.00628372     0.00006667    F
gradient max                        0.02556297
gradient rms                        0.00628372
cart. step max                      0.21603608     0.01000000    F
cart. step rms                      0.05610017     0.00666667    F
 

--------
Geometry
--------
Formula: C11H12O2
Atoms
  Index Symbol   x (angstrom)   y (angstrom)   z (angstrom)
      1      C    -2.80827481     2.94404643    -1.47287090
      2      C    -2.65469424     1.42182308    -1.36606266
      3      O    -3.47084233     0.68462787    -1.93620562
      4      C    -1.65851791     0.91061900    -0.41486364
      5      C    -1.96610269    -0.05705148     0.64221808
      6      C    -2.90378735    -1.09305451     0.42033044
      7      C    -3.18251744    -2.02053920     1.42644579
      8      C    -2.54588339    -1.94458148     2.67063780
      9      C    -1.62221924    -0.91594014     2.90388742
     10      C    -1.33271296     0.01532753     1.90841327
     11      O    -0.51903517     1.62168628    -0.17264525
     12      C     0.33734599     2.22222715    -0.97180932
     13      C     0.10112440     2.52295367    -2.40545446
     14      H    -2.11010928     3.50817594    -0.84720628
     15      H    -2.72132168     3.27313103    -2.51561314
     16      H    -3.83012035     3.16994592    -1.14378859
     17      H    -3.39672440    -1.16051269    -0.54330872
     18      H    -3.90135015    -2.81415424     1.23089502
     19      H    -2.76538160    -2.67316184     3.44801211
     20      H    -1.12570540    -0.83653114     3.86947785
     21      H    -0.61281263     0.80481026     2.10535375
     22      H     1.18419464     2.62316618    -0.42049845
     23      H    -0.48849916     3.44232362    -2.55746451
     24      H     1.06853923     2.66951237    -2.90022992
     25      H    -0.44220210     1.70576041    -2.90235009

Total System Charge              0.00000

 *** GO1_GOStep4 ***

 Energy gradients wrt nuclear displacements
 ==========================================

     Atom      Cartesian (a.u./angstrom)
                 X         Y         Z
 ----------------------------------------
     1 C     0.000801 -0.002660 -0.000648
     2 C    -0.003052  0.009736  0.004689
     3 O     0.003993 -0.000592 -0.001535
     4 C     0.009698 -0.014522 -0.005048
     5 C    -0.002403  0.000161  0.005898
     6 C     0.002030 -0.000101 -0.000680
     7 C    -0.000112 -0.000477 -0.000204
     8 C     0.000346 -0.000349  0.000159
     9 C     0.000425 -0.000430  0.000299
    10 C    -0.003222  0.002811  0.001348
    11 O    -0.014911  0.019656 -0.007458
    12 C     0.014873 -0.024044  0.001337
    13 C    -0.008584  0.003254 -0.001331
    14 H    -0.000308 -0.000255  0.000443
    15 H    -0.000484  0.000256  0.000491
    16 H    -0.000025  0.000459  0.000553
    17 H    -0.000119 -0.000405  0.000070
    18 H     0.000024  0.000177 -0.000042
    19 H    -0.000032  0.000083 -0.000115
    20 H     0.000060  0.000111 -0.000024
    21 H     0.000022  0.000026  0.000078
    22 H    -0.000667  0.003915  0.001015
    23 H    -0.000381  0.001560  0.002209
    24 H    -0.000134  0.000003  0.000213
    25 H     0.002162  0.001628 -0.001719
 ----------------------------------------

 dE(predicted):    -0.43388E-02, dE(actual):    -0.28749E-02, Trust radius:    0.400000, all in a.u.
 
----------------------------------------------------------------------
Geometry Convergence after Step   4       (Hartree/Angstrom,Angstrom)
----------------------------------------------------------------------
current energy                               -5.43637429 Hartree
energy change                      -0.00287491     0.00025000    F
constrained gradient max            0.02402769     0.00010000    F
constrained gradient rms            0.00533830     0.00006667    F
gradient max                        0.02402769
gradient rms                        0.00533830
cart. step max                      0.17785155     0.01000000    F
cart. step rms                      0.06422192     0.00666667    F
 

--------
Geometry
--------
Formula: C11H12O2
Atoms
  Index Symbol   x (angstrom)   y (angstrom)   z (angstrom)
      1      C    -2.81574223     2.96393426    -1.52331888
      2      C    -2.67514933     1.44223387    -1.35150760
      3      O    -3.50177006     0.69370810    -1.89145980
      4      C    -1.68545295     0.96740252    -0.37266628
      5      C    -1.96593344    -0.03204609     0.65478586
      6      C    -2.93347400    -1.04128694     0.43131675
      7      C    -3.19873301    -1.99406073     1.41705972
      8      C    -2.51782283    -1.97216633     2.63952816
      9      C    -1.55892790    -0.97570284     2.87059008
     10      C    -1.28003229    -0.02063551     1.89534434
     11      O    -0.55932260     1.69426258    -0.10196496
     12      C     0.26195754     2.34193422    -0.90287428
     13      C     0.11444523     2.45611897    -2.37210475
     14      H    -2.11288492     3.55014994    -0.92370814
     15      H    -2.71946000     3.24081509    -2.58053032
     16      H    -3.83695020     3.21195097    -1.21181403
     17      H    -3.46259609    -1.06155778    -0.51460300
     18      H    -3.94298485    -2.76381683     1.22349212
     19      H    -2.72767563    -2.71930044     3.40124919
     20      H    -1.02590834    -0.94151460     3.81862516
     21      H    -0.53391951     0.74404246     2.09019375
     22      H     1.07284237     2.80101773    -0.34740160
     23      H    -0.51964651     3.29669951    -2.69546623
     24      H     1.10381172     2.60210506    -2.82125859
     25      H    -0.34628018     1.54032279    -2.77620668

Total System Charge              0.00000

 *** GO1_GOStep5 ***

 Energy gradients wrt nuclear displacements
 ==========================================

     Atom      Cartesian (a.u./angstrom)
                 X         Y         Z
 ----------------------------------------
     1 C    -0.000481  0.001493  0.000015
     2 C    -0.007012  0.000783  0.000990
     3 O     0.002028 -0.000170 -0.001355
     4 C     0.006580 -0.007864 -0.000231
     5 C     0.000079  0.002996  0.004783
     6 C     0.001874  0.000385 -0.003242
     7 C    -0.000691 -0.000650  0.000221
     8 C    -0.000008 -0.000331 -0.000086
     9 C     0.000562 -0.000292  0.000690
    10 C    -0.001500  0.002569  0.000462
    11 O    -0.006626  0.005719 -0.002736
    12 C     0.011334 -0.012029  0.002115
    13 C    -0.003615  0.003316 -0.002055
    14 H    -0.000073 -0.000589  0.000241
    15 H    -0.000684 -0.000186  0.000354
    16 H     0.000662  0.000301  0.000414
    17 H    -0.000284  0.000321 -0.000262
    18 H     0.000315  0.000495  0.000120
    19 H     0.000070  0.000418 -0.000471
    20 H    -0.000436  0.000146 -0.000590
    21 H    -0.000222  0.000310 -0.000208
    22 H    -0.002679  0.001917  0.000555
    23 H    -0.000169  0.000411  0.000888
    24 H    -0.000633 -0.000036 -0.000105
    25 H     0.001607  0.000565 -0.000507
 ----------------------------------------

 dE(predicted):    -0.34895E-02, dE(actual):    -0.33772E-02, Trust radius:    0.800000, all in a.u.
 
----------------------------------------------------------------------
Geometry Convergence after Step   5       (Hartree/Angstrom,Angstrom)
----------------------------------------------------------------------
current energy                               -5.43975147 Hartree
energy change                      -0.00337718     0.00025000    F
constrained gradient max            0.01202232     0.00010000    F
constrained gradient rms            0.00289972     0.00006667    F
gradient max                        0.01202232
gradient rms                        0.00289972
cart. step max                      0.19945568     0.01000000    F
cart. step rms                      0.07785342     0.00666667    F
 

--------
Geometry
--------
Formula: C11H12O2
Atoms
  Index Symbol   x (angstrom)   y (angstrom)   z (angstrom)
      1      C    -2.82189698     3.00612694    -1.58076945
      2      C    -2.68651542     1.48934863    -1.34964834
      3      O    -3.49349657     0.72444096    -1.89689500
      4      C    -1.73534932     1.05245970    -0.31828799
      5      C    -1.98409873     0.00967885     0.67216198
      6      C    -2.97535152    -0.98064275     0.45689659
      7      C    -3.20269912    -1.97383327     1.41155663
      8      C    -2.46565772    -2.01161921     2.60021296
      9      C    -1.48137089    -1.03884142     2.82324196
     10      C    -1.23511259    -0.04806816     1.87550345
     11      O    -0.64120212     1.81844244    -0.01743599
     12      C     0.15592559     2.46808586    -0.84075541
     13      C     0.11708311     2.34972400    -2.31337344
     14      H    -2.15345234     3.61937606    -0.96847079
     15      H    -2.66503254     3.24128740    -2.64122831
     16      H    -3.86017233     3.25854328    -1.33898671
     17      H    -3.54403790    -0.95954766    -0.46491562
     18      H    -3.96244345    -2.72875468     1.22009743
     19      H    -2.64704024    -2.78900217     3.33858418
     20      H    -0.89700596    -1.05648929     3.74093365
     21      H    -0.46179469     0.69045022     2.06246101
     22      H     0.94732803     2.97352056    -0.29966456
     23      H    -0.50748486     3.09724383    -2.82575993
     24      H     1.13453179     2.44907747    -2.70974439
     25      H    -0.30126325     1.36360242    -2.58041392

Total System Charge              0.00000

 *** GO1_GOStep6 ***

 Energy gradients wrt nuclear displacements
 ==========================================

     Atom      Cartesian (a.u./angstrom)
                 X         Y         Z
 ----------------------------------------
     1 C    -0.000293  0.004043  0.001036
     2 C    -0.006565 -0.003030 -0.002798
     3 O     0.001989  0.001353 -0.001106
     4 C     0.007086 -0.000840  0.003163
     5 C     0.001055  0.001798  0.002922
     6 C     0.000261 -0.000445 -0.002018
     7 C    -0.000107 -0.001029  0.000823
     8 C    -0.000625 -0.000575 -0.000154
     9 C     0.000383 -0.000105  0.000448
    10 C    -0.001459  0.001414  0.000697
    11 O    -0.002289  0.001222 -0.005381
    12 C     0.003335 -0.002039  0.002646
    13 C    -0.001365  0.002472 -0.000725
    14 H     0.000044 -0.000648  0.000499
    15 H    -0.000348 -0.000655 -0.000054
    16 H     0.000699  0.000201  0.000508
    17 H     0.000652  0.000201  0.000208
    18 H     0.000599  0.000235  0.000235
    19 H     0.000107  0.000443 -0.000424
    20 H    -0.000448 -0.000211 -0.000671
    21 H    -0.000434 -0.000129 -0.000409
    22 H    -0.002115 -0.001819  0.000345
    23 H     0.000425 -0.000812 -0.000170
    24 H    -0.000894 -0.000627  0.000131
    25 H     0.000307 -0.000420  0.000250
 ----------------------------------------

 dE(predicted):    -0.24611E-02, dE(actual):    -0.18993E-02, Trust radius:    0.800000, all in a.u.
 
----------------------------------------------------------------------
Geometry Convergence after Step   6       (Hartree/Angstrom,Angstrom)
----------------------------------------------------------------------
current energy                               -5.44165077 Hartree
energy change                      -0.00189930     0.00025000    F
constrained gradient max            0.00708483     0.00010000    F
constrained gradient rms            0.00183106     0.00006667    F
gradient max                        0.00708483
gradient rms                        0.00183106
cart. step max                      0.21356437     0.01000000    F
cart. step rms                      0.10316567     0.00666667    F
 

--------
Geometry
--------
Formula: C11H12O2
Atoms
  Index Symbol   x (angstrom)   y (angstrom)   z (angstrom)
      1      C    -2.82159222     2.97370808    -1.71016020
      2      C    -2.69251801     1.47914220    -1.36126979
      3      O    -3.48765225     0.68134400    -1.88065872
      4      C    -1.77972608     1.09605227    -0.28095183
      5      C    -1.99991483     0.02159467     0.68000913
      6      C    -3.07560099    -0.89177491     0.53583784
      7      C    -3.27842492    -1.90294664     1.47585383
      8      C    -2.43010060    -2.04085731     2.58034830
      9      C    -1.35862618    -1.15004844     2.73078519
     10      C    -1.13710030    -0.14210521     1.79557113
     11      O    -0.72350991     1.90538858     0.06002461
     12      C     0.05125227     2.59069571    -0.76042871
     13      C     0.15062953     2.34856431    -2.21249123
     14      H    -2.19421568     3.64221096    -1.11236351
     15      H    -2.60282414     3.13092714    -2.77431587
     16      H    -3.87510930     3.22962891    -1.55255108
     17      H    -3.73641421    -0.79107256    -0.31671253
     18      H    -4.11132047    -2.59069557     1.34149705
     19      H    -2.59405168    -2.83196244     3.30882899
     20      H    -0.68648835    -1.24539344     3.58187291
     21      H    -0.29452255     0.52974709     1.92685142
     22      H     0.77504349     3.18033490    -0.20785305
     23      H    -0.48018866     2.99171440    -2.84470379
     24      H     1.18938652     2.49850310    -2.53288335
     25      H    -0.17402047     1.31191022    -2.41483676

Total System Charge              0.00000

 *** GO1_GOStep7 ***

 Energy gradients wrt nuclear displacements
 ==========================================

     Atom      Cartesian (a.u./angstrom)
                 X         Y         Z
 ----------------------------------------
     1 C     0.000979  0.004544 -0.000723
     2 C    -0.006068 -0.006107 -0.002917
     3 O     0.002364  0.002416  0.000927
     4 C     0.002875  0.003066  0.004122
     5 C     0.000457  0.000809  0.001493
     6 C     0.001621 -0.001049 -0.002014
     7 C     0.000008 -0.000420  0.000761
     8 C    -0.000990 -0.000757 -0.000018
     9 C     0.000288  0.000511 -0.000882
    10 C    -0.001017 -0.000079  0.000851
    11 O     0.003901 -0.005827 -0.002577
    12 C    -0.003446  0.003710 -0.003135
    13 C     0.001459  0.002498  0.003041
    14 H     0.000111 -0.000426 -0.000270
    15 H    -0.000419 -0.000331 -0.000481
    16 H     0.000654 -0.000054  0.000472
    17 H    -0.000399  0.001031 -0.000175
    18 H     0.000130  0.000120  0.000191
    19 H    -0.000028  0.000134  0.000008
    20 H    -0.000271  0.000059  0.000154
    21 H    -0.000481  0.000017  0.000039
    22 H    -0.000563 -0.001828  0.000331
    23 H    -0.000266 -0.001085 -0.000329
    24 H    -0.000221  0.000126  0.000046
    25 H    -0.000679 -0.001079  0.001084
 ----------------------------------------

 dE(predicted):    -0.83913E-03, dE(actual):    -0.91243E-03, Trust radius:    0.800000, all in a.u.
 
----------------------------------------------------------------------
Geometry Convergence after Step   7       (Hartree/Angstrom,Angstrom)
----------------------------------------------------------------------
current energy                               -5.44256320 Hartree
energy change                      -0.00091243     0.00025000    F
constrained gradient max            0.00612926     0.00010000    F
constrained gradient rms            0.00195856     0.00006667    F
gradient max                        0.00612926
gradient rms                        0.00195856
cart. step max                      0.20719719     0.01000000    F
cart. step rms                      0.09805592     0.00666667    F
 

--------
Geometry
--------
Formula: C11H12O2
Atoms
  Index Symbol   x (angstrom)   y (angstrom)   z (angstrom)
      1      C    -2.83999365     2.95116244    -1.80711177
      2      C    -2.69662489     1.47497917    -1.40211699
      3      O    -3.44509392     0.64323941    -1.94279812
      4      C    -1.83994943     1.13489361    -0.26951403
      5      C    -2.03347286     0.04052806     0.67350386
      6      C    -3.17262104    -0.80464434     0.62643373
      7      C    -3.33423302    -1.82967984     1.55795597
      8      C    -2.38275208    -2.04999853     2.56099987
      9      C    -1.24792352    -1.23014355     2.61460354
     10      C    -1.06605858    -0.21068626     1.68328537
     11      O    -0.84222986     1.99705314     0.12430079
     12      C    -0.03506890     2.66599359    -0.67963454
     13      C     0.19700467     2.32016029    -2.09634830
     14      H    -2.29186470     3.66073139    -1.17850449
     15      H    -2.52501073     3.08524195    -2.85011957
     16      H    -3.91192095     3.17409434    -1.75974827
     17      H    -3.90754696    -0.65180574    -0.15421995
     18      H    -4.21597965    -2.46545538     1.49547064
     19      H    -2.51456121    -2.85482321     3.28134515
     20      H    -0.49056913    -1.39604783     3.37926144
     21      H    -0.16848330     0.39844654     1.73239301
     22      H     0.61681977     3.33079006    -0.12026317
     23      H    -0.38981724     2.89776365    -2.82711915
     24      H     1.25630118     2.47975288    -2.33669776
     25      H    -0.08596002     1.26306415    -2.25005727

Total System Charge              0.00000

 *** GO1_GOStep8 ***

 Energy gradients wrt nuclear displacements
 ==========================================

     Atom      Cartesian (a.u./angstrom)
                 X         Y         Z
 ----------------------------------------
     1 C     0.000037  0.002305 -0.000516
     2 C    -0.000966 -0.001758 -0.001894
     3 O     0.000741  0.002997 -0.001512
     4 C     0.002927  0.004810  0.003436
     5 C    -0.000225  0.000191  0.000498
     6 C    -0.001703 -0.001665  0.000361
     7 C     0.001582 -0.000349  0.002257
     8 C    -0.001912 -0.000626 -0.000451
     9 C     0.000183  0.001653 -0.001214
    10 C     0.001036 -0.001428  0.001499
    11 O    -0.000338 -0.007285 -0.004555
    12 C    -0.004632  0.004811 -0.002448
    13 C     0.001896  0.001294  0.002887
    14 H     0.000198  0.000096 -0.000499
    15 H    -0.000248 -0.000457  0.000079
    16 H    -0.000239 -0.000110  0.000375
    17 H     0.000932 -0.000041  0.000559
    18 H    -0.000147 -0.000190 -0.000353
    19 H     0.000171 -0.000278  0.000112
    20 H     0.000316 -0.000109  0.000278
    21 H    -0.000206 -0.000399  0.000479
    22 H     0.001211 -0.000878  0.000494
    23 H     0.000265 -0.001302 -0.000361
    24 H     0.000140  0.000185  0.000079
    25 H    -0.001017 -0.001468  0.000410
 ----------------------------------------

 dE(predicted):    -0.48508E-03, dE(actual):    -0.48165E-03, Trust radius:    0.800000, all in a.u.
 
----------------------------------------------------------------------
Geometry Convergence after Step   8       (Hartree/Angstrom,Angstrom)
----------------------------------------------------------------------
current energy                               -5.44304485 Hartree
energy change                      -0.00048165     0.00025000    F
constrained gradient max            0.00727263     0.00010000    F
constrained gradient rms            0.00180742     0.00006667    F
gradient max                        0.00727263
gradient rms                        0.00180742
cart. step max                      0.08610315     0.01000000    F
cart. step rms                      0.03818519     0.00666667    F
 

--------
Geometry
--------
Formula: C11H12O2
Atoms
  Index Symbol   x (angstrom)   y (angstrom)   z (angstrom)
      1      C    -2.83920425     2.90477809    -1.84675555
      2      C    -2.67670318     1.44212536    -1.41085029
      3      O    -3.40501622     0.58178395    -1.93817367
      4      C    -1.83529270     1.13426248    -0.26243853
      5      C    -2.02924191     0.03800693     0.67592321
      6      C    -3.19665646    -0.76712969     0.65831339
      7      C    -3.36468415    -1.78954106     1.59025650
      8      C    -2.38952799    -2.04602716     2.56295428
      9      C    -1.22473974    -1.26844350     2.58399927
     10      C    -1.03837022    -0.24980220     1.65170751
     11      O    -0.85616209     2.01632270     0.14580100
     12      C    -0.02589098     2.67432703    -0.64513865
     13      C     0.19446367     2.36620955    -2.07516619
     14      H    -2.33359841     3.63729342    -1.20855408
     15      H    -2.48599579     3.03237725    -2.87821729
     16      H    -3.91705030     3.10340247    -1.84585142
     17      H    -3.95105236    -0.58569062    -0.09783810
     18      H    -4.27216265    -2.39031578     1.55758955
     19      H    -2.52963625    -2.84587620     3.28713396
     20      H    -0.45010794    -1.46436112     3.32360080
     21      H    -0.11898150     0.32814676     1.67223336
     22      H     0.61217316     3.34954009    -0.08129125
     23      H    -0.38911542     2.98081956    -2.77872600
     24      H     1.25413884     2.52227366    -2.31629732
     25      H    -0.09919515     1.32012804    -2.26891451

Total System Charge              0.00000

 *** GO1_GOStep9 ***

 Energy gradients wrt nuclear displacements
 ==========================================

     Atom      Cartesian (a.u./angstrom)
                 X         Y         Z
 ----------------------------------------
     1 C     0.001139  0.000978  0.000500
     2 C     0.001316  0.000483 -0.002173
     3 O     0.000189 -0.000031  0.000460
     4 C     0.001698  0.001970  0.002669
     5 C    -0.001301 -0.001104 -0.000284
     6 C    -0.000991 -0.000235  0.000108
     7 C     0.001013 -0.000280  0.000631
     8 C    -0.000852 -0.000139 -0.000145
     9 C     0.000038  0.000900 -0.000751
    10 C     0.001398 -0.001505  0.001019
    11 O    -0.003452 -0.001994 -0.000882
    12 C    -0.000813  0.002330  0.000503
    13 C    -0.000113  0.000175 -0.000764
    14 H    -0.000105  0.000383 -0.000761
    15 H     0.000223 -0.000291  0.000334
    16 H    -0.000500 -0.000218  0.000280
    17 H     0.000218  0.000047 -0.000178
    18 H    -0.000385  0.000157 -0.000258
    19 H    -0.000009 -0.000019  0.000124
    20 H     0.000237  0.000045  0.000114
    21 H     0.000107 -0.000658  0.000317
    22 H     0.001689  0.000228  0.000363
    23 H    -0.000351 -0.000464 -0.000622
    24 H     0.000009  0.000053 -0.000165
    25 H    -0.000403 -0.000811 -0.000442
 ----------------------------------------

 dE(predicted):    -0.29750E-03, dE(actual):    -0.22110E-03, Trust radius:    0.800000, all in a.u.
 
----------------------------------------------------------------------
Geometry Convergence after Step   9       (Hartree/Angstrom,Angstrom)
----------------------------------------------------------------------
current energy                               -5.44326595 Hartree
energy change                      -0.00022110     0.00025000    T
constrained gradient max            0.00347862     0.00010000    F
constrained gradient rms            0.00094509     0.00006667    F
gradient max                        0.00347862
gradient rms                        0.00094509
cart. step max                      0.04460529     0.01000000    F
cart. step rms                      0.01910678     0.00666667    F
 

--------
Geometry
--------
Formula: C11H12O2
Atoms
  Index Symbol   x (angstrom)   y (angstrom)   z (angstrom)
      1      C    -2.84806621     2.90677384    -1.83082154
      2      C    -2.69788244     1.44228771    -1.40182129
      3      O    -3.44186109     0.58998760    -1.92010409
      4      C    -1.83199090     1.12140662    -0.27618755
      5      C    -2.03051845     0.03353638     0.66952063
      6      C    -3.18810248    -0.78399422     0.64173136
      7      C    -3.35644435    -1.80242203     1.57784817
      8      C    -2.38982321    -2.04162572     2.56382292
      9      C    -1.23808834    -1.24584583     2.59950566
     10      C    -1.05429178    -0.22797615     1.66509248
     11      O    -0.83973084     1.99069997     0.12947363
     12      C     0.00236993     2.64083282    -0.65187788
     13      C     0.20793369     2.36755158    -2.09073083
     14      H    -2.32031244     3.62659647    -1.19571402
     15      H    -2.51172230     3.03582997    -2.86800309
     16      H    -3.92235147     3.12277219    -1.80931631
     17      H    -3.93583700    -0.61563623    -0.12439827
     18      H    -4.25494126    -2.41609755     1.53714337
     19      H    -2.52893685    -2.84018344     3.28973844
     20      H    -0.47265518    -1.42556118     3.35263704
     21      H    -0.14673586     0.36846614     1.69693796
     22      H     0.63631021     3.31423568    -0.08209778
     23      H    -0.37495486     3.01185737    -2.76796028
     24      H     1.26725877     2.51982352    -2.33559893
     25      H    -0.09623526     1.33129450    -2.31351980

Total System Charge              0.00000

 *** GO1_GOStep10 ***

 Energy gradients wrt nuclear displacements
 ==========================================

     Atom      Cartesian (a.u./angstrom)
                 X         Y         Z
 ----------------------------------------
     1 C     0.000469 -0.000216 -0.000234
     2 C    -0.002942  0.000106  0.000945
     3 O     0.001007 -0.000652  0.000065
     4 C     0.002539  0.002490  0.000378
     5 C    -0.000572 -0.001857 -0.000016
     6 C     0.000896  0.001062 -0.000095
     7 C    -0.000013  0.000052  0.000198
     8 C    -0.000154  0.000086 -0.000588
     9 C     0.000160 -0.000114 -0.000299
    10 C    -0.000707  0.001165 -0.000215
    11 O    -0.001481 -0.002397 -0.000688
    12 C     0.000566 -0.000435  0.001961
    13 C     0.000456 -0.000069 -0.000975
    14 H     0.000147  0.000176 -0.000223
    15 H    -0.000235  0.000068  0.000143
    16 H    -0.000414 -0.000256  0.000296
    17 H    -0.000471  0.000172 -0.000346
    18 H    -0.000283 -0.000042 -0.000161
    19 H    -0.000117  0.000004  0.000203
    20 H     0.000237 -0.000081  0.000125
    21 H     0.000308  0.000432 -0.000019
    22 H     0.000203  0.000674  0.000079
    23 H    -0.000004 -0.000093  0.000003
    24 H     0.000092 -0.000029 -0.000020
    25 H     0.000314 -0.000246 -0.000516
 ----------------------------------------

 dE(predicted):    -0.11185E-03, dE(actual):    -0.59642E-04, Trust radius:    0.800000, all in a.u.
 
----------------------------------------------------------------------
Geometry Convergence after Step  10       (Hartree/Angstrom,Angstrom)
----------------------------------------------------------------------
current energy                               -5.44332559 Hartree
energy change                      -0.00005964     0.00025000    T
constrained gradient max            0.00294805     0.00010000    F
constrained gradient rms            0.00080448     0.00006667    F
gradient max                        0.00294805
gradient rms                        0.00080448
cart. step max                      0.01825551     0.01000000    F
cart. step rms                      0.00476162     0.00666667    T
 

--------
Geometry
--------
Formula: C11H12O2
Atoms
  Index Symbol   x (angstrom)   y (angstrom)   z (angstrom)
      1      C    -2.83941288     2.90838398    -1.83467684
      2      C    -2.69401995     1.44205162    -1.40792203
      3      O    -3.44399697     0.59487115    -1.92626591
      4      C    -1.83672506     1.12138599    -0.27537036
      5      C    -2.03342166     0.03402959     0.67123725
      6      C    -3.19019602    -0.78562620     0.64548609
      7      C    -3.35570565    -1.80453603     1.58167243
      8      C    -2.38763751    -2.04290243     2.56648828
      9      C    -1.23615465    -1.24691174     2.59939285
     10      C    -1.05343267    -0.23081490     1.66275838
     11      O    -0.84602574     1.99432107     0.13124805
     12      C    -0.00598604     2.64591131    -0.65199456
     13      C     0.20134006     2.36881390    -2.08903396
     14      H    -2.31603009     3.62537070    -1.19289445
     15      H    -2.49346680     3.03954987    -2.86842497
     16      H    -3.91301591     3.12672059    -1.82254318
     17      H    -3.93939677    -0.61787850    -0.11890973
     18      H    -4.25333031    -2.41916827     1.54259164
     19      H    -2.52407357    -2.84263555     3.29133486
     20      H    -0.46913598    -1.42653692     3.35057871
     21      H    -0.14491309     0.36381215     1.69147681
     22      H     0.63068270     3.31510155    -0.08126425
     23      H    -0.37613014     3.01381081    -2.77004166
     24      H     1.26202737     2.51379108    -2.33210602
     25      H    -0.10945267     1.33369519    -2.30751742

Total System Charge              0.00000

 *** GO1_GOStep11 ***

 Energy gradients wrt nuclear displacements
 ==========================================

     Atom      Cartesian (a.u./angstrom)
                 X         Y         Z
 ----------------------------------------
     1 C     0.000094  0.000004  0.000379
     2 C     0.000320 -0.000551 -0.001281
     3 O    -0.000323  0.000124 -0.000098
     4 C     0.001027  0.001166  0.000824
     5 C    -0.000534 -0.000349  0.000326
     6 C     0.000290  0.000261 -0.000147
     7 C    -0.000097 -0.000115  0.000161
     8 C    -0.000165 -0.000052 -0.000090
     9 C     0.000090  0.000047  0.000216
    10 C    -0.000013  0.000218 -0.000409
    11 O    -0.001341 -0.001251  0.000492
    12 C     0.000730  0.000463  0.000421
    13 C     0.000098  0.000313 -0.000780
    14 H     0.000139  0.000004 -0.000042
    15 H    -0.000099 -0.000159  0.000107
    16 H    -0.000087  0.000101  0.000157
    17 H    -0.000089  0.000008  0.000091
    18 H    -0.000036  0.000105 -0.000034
    19 H     0.000046  0.000011 -0.000079
    20 H    -0.000044 -0.000038 -0.000004
    21 H     0.000034  0.000131 -0.000041
    22 H     0.000012 -0.000161 -0.000016
    23 H    -0.000051 -0.000152 -0.000118
    24 H    -0.000074 -0.000037 -0.000008
    25 H     0.000073 -0.000090 -0.000027
 ----------------------------------------

 dE(predicted):    -0.37389E-04, dE(actual):    -0.31831E-04, Trust radius:    0.800000, all in a.u.
 
----------------------------------------------------------------------
Geometry Convergence after Step  11       (Hartree/Angstrom,Angstrom)
----------------------------------------------------------------------
current energy                               -5.44335743 Hartree
energy change                      -0.00003183     0.00025000    T
constrained gradient max            0.00135470     0.00010000    F
constrained gradient rms            0.00039925     0.00006667    F
gradient max                        0.00135470
gradient rms                        0.00039925
cart. step max                      0.02391141     0.01000000    F
cart. step rms                      0.00751056     0.00666667    F
 

--------
Geometry
--------
Formula: C11H12O2
Atoms
  Index Symbol   x (angstrom)   y (angstrom)   z (angstrom)
      1      C    -2.83941668     2.91074630    -1.84215319
      2      C    -2.69935647     1.44726632    -1.40360803
      3      O    -3.44507697     0.59717658    -1.92349019
      4      C    -1.84345109     1.12869998    -0.27015068
      5      C    -2.03496472     0.03798383     0.67339891
      6      C    -3.19289911    -0.78057959     0.65072755
      7      C    -3.35500766    -1.80269124     1.58387329
      8      C    -2.38265526    -2.04575216     2.56335775
      9      C    -1.22899518    -1.25302566     2.59172122
     10      C    -1.04929064    -0.23412417     1.65759862
     11      O    -0.85520700     2.00585370     0.13688284
     12      C    -0.01469993     2.65316218    -0.64867758
     13      C     0.20147787     2.36115136    -2.08071137
     14      H    -2.32495435     3.63211886    -1.19806085
     15      H    -2.47932343     3.03564289    -2.87198125
     16      H    -3.91299098     3.12889454    -1.84645458
     17      H    -3.94519497    -0.60976878    -0.10989935
     18      H    -4.25366339    -2.41598902     1.54733409
     19      H    -2.51731401    -2.84712684     3.28677187
     20      H    -0.45797654    -1.43701429     3.33771367
     21      H    -0.13841098     0.35689032     1.68246623
     22      H     0.61855402     3.32821316    -0.08109165
     23      H    -0.36939872     3.00123032    -2.77180478
     24      H     1.26424037     2.50070897    -2.31816962
     25      H    -0.11163417     1.32494246    -2.29029294

Total System Charge              0.00000

 *** GO1_GOStep12 ***

 Energy gradients wrt nuclear displacements
 ==========================================

     Atom      Cartesian (a.u./angstrom)
                 X         Y         Z
 ----------------------------------------
     1 C     0.000436 -0.000034 -0.000009
     2 C    -0.001001 -0.000020  0.000401
     3 O     0.000549  0.000112 -0.000409
     4 C     0.000786  0.000770  0.000649
     5 C    -0.000286  0.000021  0.000144
     6 C     0.000121  0.000183 -0.000011
     7 C     0.000051 -0.000135  0.000082
     8 C    -0.000116  0.000079  0.000060
     9 C    -0.000019 -0.000004  0.000044
    10 C     0.000139 -0.000401 -0.000074
    11 O    -0.000765 -0.000390 -0.000499
    12 C     0.000080  0.000326 -0.000045
    13 C     0.000107  0.000283 -0.000350
    14 H     0.000087 -0.000079 -0.000076
    15 H    -0.000009  0.000046 -0.000095
    16 H     0.000015  0.000055  0.000115
    17 H     0.000029 -0.000060  0.000023
    18 H    -0.000015  0.000066  0.000008
    19 H     0.000007 -0.000002 -0.000039
    20 H    -0.000090 -0.000010 -0.000008
    21 H    -0.000049 -0.000150 -0.000050
    22 H    -0.000014 -0.000322  0.000019
    23 H     0.000003 -0.000164  0.000010
    24 H    -0.000039 -0.000065  0.000012
    25 H    -0.000007 -0.000104  0.000098
 ----------------------------------------

 dE(predicted):    -0.10358E-04, dE(actual):    -0.37727E-05, Trust radius:    0.800000, all in a.u.
 
----------------------------------------------------------------------
Geometry Convergence after Step  12       (Hartree/Angstrom,Angstrom)
----------------------------------------------------------------------
current energy                               -5.44336120 Hartree
energy change                      -0.00000377     0.00025000    T
constrained gradient max            0.00100319     0.00010000    F
constrained gradient rms            0.00026832     0.00006667    F
gradient max                        0.00100319
gradient rms                        0.00026832
cart. step max                      0.00719702     0.01000000    T
cart. step rms                      0.00197543     0.00666667    T
 

--------
Geometry
--------
Formula: C11H12O2
Atoms
  Index Symbol   x (angstrom)   y (angstrom)   z (angstrom)
      1      C    -2.84072952     2.91186243    -1.84159829
      2      C    -2.70044742     1.44842431    -1.40308062
      3      O    -3.45227398     0.59995145    -1.91707293
      4      C    -1.84323425     1.12841180    -0.27144976
      5      C    -2.03425523     0.03781556     0.67207197
      6      C    -3.19175449    -0.78158758     0.64895221
      7      C    -3.35365613    -1.80357596     1.58214189
      8      C    -2.38153418    -2.04590126     2.56214456
      9      C    -1.22891161    -1.25178502     2.59161791
     10      C    -1.04989756    -0.23210298     1.65819078
     11      O    -0.85475134     2.00606368     0.13657077
     12      C    -0.01360020     2.65185446    -0.64888048
     13      C     0.20288897     2.35806618    -2.08013941
     14      H    -2.32796853     3.63334125    -1.19616239
     15      H    -2.47865363     3.03745833    -2.87067406
     16      H    -3.91432849     3.12953960    -1.84816529
     17      H    -3.94365840    -0.61143067    -0.11221963
     18      H    -4.25163847    -2.41785603     1.54514266
     19      H    -2.51638792    -2.84695610     3.28590848
     20      H    -0.45827175    -1.43489887     3.33822668
     21      H    -0.14009014     0.36052245     1.68446803
     22      H     0.61800259     3.32957102    -0.08249301
     23      H    -0.36538172     3.00032866    -2.77144432
     24      H     1.26627086     2.49452558    -2.31682867
     25      H    -0.11334746     1.32296770    -2.28992707

Total System Charge              0.00000

 *** GO1_GOStep13 ***

 Energy gradients wrt nuclear displacements
 ==========================================

     Atom      Cartesian (a.u./angstrom)
                 X         Y         Z
 ----------------------------------------
     1 C    -0.000048 -0.000088  0.000217
     2 C     0.000179 -0.000097 -0.000516
     3 O     0.000186  0.000190  0.000202
     4 C     0.000110  0.000352  0.000436
     5 C     0.000077 -0.000033 -0.000125
     6 C     0.000068  0.000250  0.000074
     7 C    -0.000102  0.000003 -0.000051
     8 C     0.000041  0.000040  0.000015
     9 C     0.000006 -0.000118 -0.000017
    10 C    -0.000027 -0.000133  0.000153
    11 O    -0.000173 -0.000049 -0.000490
    12 C     0.000034  0.000101 -0.000062
    13 C     0.000015  0.000060 -0.000006
    14 H    -0.000026 -0.000044 -0.000019
    15 H    -0.000082 -0.000016 -0.000063
    16 H     0.000013  0.000151  0.000053
    17 H    -0.000053 -0.000054 -0.000011
    18 H    -0.000001  0.000015  0.000011
    19 H    -0.000066  0.000041  0.000030
    20 H    -0.000061 -0.000037 -0.000032
    21 H    -0.000055 -0.000095 -0.000031
    22 H    -0.000041 -0.000201  0.000015
    23 H     0.000040 -0.000091  0.000084
    24 H    -0.000031 -0.000087  0.000062
    25 H    -0.000002 -0.000061  0.000071
 ----------------------------------------

 dE(predicted):    -0.52999E-05, dE(actual):    -0.10109E-04, Trust radius:    0.800000, all in a.u.
 
----------------------------------------------------------------------
Geometry Convergence after Step  13       (Hartree/Angstrom,Angstrom)
----------------------------------------------------------------------
current energy                               -5.44337131 Hartree
energy change                      -0.00001011     0.00025000    T
constrained gradient max            0.00052064     0.00010000    F
constrained gradient rms            0.00013613     0.00006667    F
gradient max                        0.00052064
gradient rms                        0.00013613
cart. step max                      0.01083024     0.01000000    F
cart. step rms                      0.00359649     0.00666667    T
 

--------
Geometry
--------
Formula: C11H12O2
Atoms
  Index Symbol   x (angstrom)   y (angstrom)   z (angstrom)
      1      C    -2.83805518     2.91316966    -1.84231936
      2      C    -2.70491605     1.44992772    -1.40071790
      3      O    -3.46310422     0.60459886    -1.91116745
      4      C    -1.84522632     1.12657034    -0.27219315
      5      C    -2.03584194     0.03655528     0.67177845
      6      C    -3.19149139    -0.78566751     0.64789254
      7      C    -3.35175973    -1.80736891     1.58159792
      8      C    -2.37989071    -2.04670479     2.56269082
      9      C    -1.22997403    -1.24872575     2.59381633
     10      C    -1.05242384    -0.22928968     1.65982172
     11      O    -0.85356177     2.00210905     0.13590210
     12      C    -0.01123688     2.64693041    -0.64900804
     13      C     0.20205986     2.35904192    -2.08180906
     14      H    -2.32598018     3.63374497    -1.19522844
     15      H    -2.47025774     3.03624131    -2.86966158
     16      H    -3.91077108     3.13448704    -1.85471175
     17      H    -3.94316385    -0.61719287    -0.11384481
     18      H    -4.24810766    -2.42400739     1.54419700
     19      H    -2.51317449    -2.84818294     3.28627291
     20      H    -0.45984159    -1.42904266     3.34163648
     21      H    -0.14479512     0.36667691     1.68758119
     22      H     0.62129370     3.32345096    -0.08206326
     23      H    -0.36371098     3.00851260    -2.76854948
     24      H     1.26579156     2.49184236    -2.31930174
     25      H    -0.11947036     1.32693312    -2.29731144

Total System Charge              0.00000

 *** GO1_GOStep14 ***

 Energy gradients wrt nuclear displacements
 ==========================================

     Atom      Cartesian (a.u./angstrom)
                 X         Y         Z
 ----------------------------------------
     1 C     0.000070 -0.000090  0.000051
     2 C     0.000148  0.000022 -0.000135
     3 O    -0.000078 -0.000039 -0.000039
     4 C    -0.000334 -0.000200  0.000074
     5 C     0.000218  0.000017 -0.000164
     6 C    -0.000007  0.000061  0.000050
     7 C    -0.000237  0.000111 -0.000158
     8 C     0.000135 -0.000023 -0.000005
     9 C    -0.000043 -0.000033  0.000115
    10 C    -0.000084  0.000163 -0.000073
    11 O     0.000330  0.000013  0.000394
    12 C     0.000222 -0.000109 -0.000265
    13 C    -0.000063  0.000044  0.000086
    14 H    -0.000036 -0.000023  0.000014
    15 H    -0.000038  0.000011 -0.000063
    16 H     0.000053  0.000121  0.000026
    17 H    -0.000090 -0.000024  0.000046
    18 H    -0.000010  0.000026  0.000040
    19 H    -0.000060  0.000020 -0.000006
    20 H    -0.000030 -0.000043 -0.000057
    21 H    -0.000009  0.000077 -0.000025
    22 H    -0.000074 -0.000078 -0.000000
    23 H     0.000006  0.000004  0.000054
    24 H    -0.000009 -0.000053 -0.000006
    25 H     0.000019  0.000027  0.000045
 ----------------------------------------

 dE(predicted):    -0.32695E-05, dE(actual):     0.38492E-05, Trust radius:    0.020000, all in a.u.
 
----------------------------------------------------------------------
Geometry Convergence after Step  14       (Hartree/Angstrom,Angstrom)
----------------------------------------------------------------------
current energy                               -5.44336746 Hartree
energy change                       0.00000385     0.00025000    T
constrained gradient max            0.00039503     0.00010000    F
constrained gradient rms            0.00011148     0.00006667    F
gradient max                        0.00039503
gradient rms                        0.00011148
cart. step max                      0.00466876     0.01000000    T
cart. step rms                      0.00181054     0.00666667    T
 

--------
Geometry
--------
Formula: C11H12O2
Atoms
  Index Symbol   x (angstrom)   y (angstrom)   z (angstrom)
      1      C    -2.83812575     2.91425766    -1.84303952
      2      C    -2.70723292     1.45143637    -1.39927766
      3      O    -3.46752493     0.60675982    -1.90774989
      4      C    -1.84669747     1.12780276    -0.27169006
      5      C    -2.03648017     0.03754555     0.67225394
      6      C    -3.19160711    -0.78544316     0.64817394
      7      C    -3.35098767    -1.80786658     1.58125503
      8      C    -2.37881530    -2.04724902     2.56198943
      9      C    -1.22883724    -1.24932931     2.59253891
     10      C    -1.05191219    -0.22948047     1.65890742
     11      O    -0.85602751     2.00469017     0.13638013
     12      C    -0.01339090     2.64848335    -0.64891839
     13      C     0.20319237     2.35641575    -2.08040159
     14      H    -2.32656846     3.63525403    -1.19592470
     15      H    -2.46785970     3.03559496    -2.86968776
     16      H    -3.91063733     3.13631670    -1.85810059
     17      H    -3.94353801    -0.61661279    -0.11322408
     18      H    -4.24717185    -2.42477546     1.54382254
     19      H    -2.51143226    -2.84927402     3.28510703
     20      H    -0.45825469    -1.42978310     3.33990229
     21      H    -0.14390064     0.36592092     1.68603978
     22      H     0.61747468     3.32751784    -0.08298344
     23      H    -0.36104925     3.00384384    -2.77037676
     24      H     1.26744670     2.48892706    -2.31588596
     25      H    -0.11767240     1.32365714    -2.29381005

Total System Charge              0.00000

 *** GO1_GOStep15 ***

 Energy gradients wrt nuclear displacements
 ==========================================

     Atom      Cartesian (a.u./angstrom)
                 X         Y         Z
 ----------------------------------------
     1 C     0.000049 -0.000061  0.000060
     2 C     0.000099  0.000017 -0.000075
     3 O    -0.000050 -0.000029  0.000047
     4 C    -0.000248 -0.000201 -0.000003
     5 C     0.000064  0.000193  0.000041
     6 C     0.000041 -0.000016 -0.000017
     7 C    -0.000124  0.000065 -0.000151
     8 C     0.000041  0.000049  0.000073
     9 C    -0.000060 -0.000040  0.000016
    10 C    -0.000013 -0.000029 -0.000073
    11 O     0.000197  0.000127  0.000105
    12 C     0.000076 -0.000108 -0.000220
    13 C     0.000006  0.000003  0.000128
    14 H     0.000020  0.000002  0.000039
    15 H    -0.000026  0.000002 -0.000030
    16 H     0.000033  0.000079  0.000030
    17 H    -0.000069  0.000006  0.000007
    18 H    -0.000035  0.000029  0.000042
    19 H    -0.000044 -0.000017 -0.000020
    20 H    -0.000029 -0.000010 -0.000006
    21 H     0.000002 -0.000005 -0.000024
    22 H    -0.000012 -0.000014  0.000013
    23 H     0.000046 -0.000009  0.000033
    24 H     0.000020 -0.000040 -0.000019
    25 H     0.000017  0.000008  0.000005
 ----------------------------------------
 
----------------------------------------------------------------------
Geometry Convergence after Step  15       (Hartree/Angstrom,Angstrom)
----------------------------------------------------------------------
current energy                               -5.44336795 Hartree
energy change                      -0.00000049     0.00025000    T
constrained gradient max            0.00025192     0.00010000    F
constrained gradient rms            0.00007281     0.00006667    F
gradient max                        0.00025192
gradient rms                        0.00007281
cart. step max                      0.00407156     0.01000000    T
cart. step rms                      0.00112767     0.00666667    T
 

--------
Geometry
--------
Formula: C11H12O2
Atoms
  Index Symbol   x (angstrom)   y (angstrom)   z (angstrom)
      1      C    -2.83804424     2.91508259    -1.84395730
      2      C    -2.70796871     1.45252879    -1.39883486
      3      O    -3.46811038     0.60785405    -1.90754307
      4      C    -1.84766605     1.12878909    -0.27111939
      5      C    -2.03682179     0.03792041     0.67238124
      6      C    -3.19205094    -0.78494125     0.64890851
      7      C    -3.35067338    -1.80789787     1.58158465
      8      C    -2.37776061    -2.04791556     2.56136441
      9      C    -1.22777857    -1.24996118     2.59149032
     10      C    -1.05169522    -0.22942866     1.65847849
     11      O    -0.85742476     2.00599697     0.13721736
     12      C    -0.01467048     2.64927619    -0.64836235
     13      C     0.20299770     2.35492034    -2.07929502
     14      H    -2.32830400     3.63678662    -1.19618041
     15      H    -2.46490891     3.03570444    -2.86963258
     16      H    -3.91059801     3.13664328    -1.86217215
     17      H    -3.94437778    -0.61564490    -0.11197266
     18      H    -4.24680853    -2.42489550     1.54424486
     19      H    -2.50997460    -2.85007546     3.28440546
     20      H    -0.45662481    -1.43079267     3.33819163
     21      H    -0.14362701     0.36588204     1.68537577
     22      H     0.61628751     3.32870627    -0.08294922
     23      H    -0.36042640     3.00138167    -2.77088543
     24      H     1.26750153     2.48676711    -2.31407558
     25      H    -0.11808155     1.32192317    -2.29136268

Total System Charge              0.00000

 *** GO1_GOStep16 ***

 Energy gradients wrt nuclear displacements
 ==========================================

     Atom      Cartesian (a.u./angstrom)
                 X         Y         Z
 ----------------------------------------
     1 C     0.000063 -0.000005  0.000003
     2 C     0.000006  0.000068  0.000049
     3 O     0.000017  0.000031 -0.000019
     4 C    -0.000132 -0.000131 -0.000019
     5 C     0.000098  0.000046 -0.000074
     6 C    -0.000069 -0.000004  0.000031
     7 C    -0.000046  0.000069 -0.000023
     8 C     0.000013 -0.000007  0.000018
     9 C    -0.000029 -0.000050 -0.000038
    10 C    -0.000039  0.000004  0.000056
    11 O     0.000100  0.000082  0.000021
    12 C    -0.000024 -0.000047 -0.000101
    13 C     0.000001 -0.000046  0.000091
    14 H     0.000025  0.000013  0.000003
    15 H     0.000009  0.000011 -0.000004
    16 H     0.000014  0.000043  0.000024
    17 H    -0.000018  0.000030  0.000009
    18 H    -0.000029  0.000014  0.000004
    19 H    -0.000056  0.000013  0.000012
    20 H    -0.000016 -0.000015 -0.000001
    21 H     0.000001 -0.000036 -0.000009
    22 H     0.000057 -0.000014  0.000010
    23 H     0.000031 -0.000012 -0.000004
    24 H     0.000026 -0.000040 -0.000020
    25 H    -0.000002 -0.000017 -0.000018
 ----------------------------------------
 
----------------------------------------------------------------------
Geometry Convergence after Step  16       (Hartree/Angstrom,Angstrom)
----------------------------------------------------------------------
current energy                               -5.44336730 Hartree
energy change                       0.00000065     0.00025000    T
constrained gradient max            0.00013552     0.00010000    F
constrained gradient rms            0.00004035     0.00006667    T
gradient max                        0.00013552
gradient rms                        0.00004035
cart. step max                      0.00079578     0.01000000    T
cart. step rms                      0.00024481     0.00666667    T
 

--------
Geometry
--------
Formula: C11H12O2
Atoms
  Index Symbol   x (angstrom)   y (angstrom)   z (angstrom)
      1      C    -2.83796960     2.91487386    -1.84426327
      2      C    -2.70809426     1.45240339    -1.39878228
      3      O    -3.46852560     0.60776292    -1.90712158
      4      C    -1.84769958     1.12873844    -0.27110212
      5      C    -2.03700806     0.03795235     0.67252034
      6      C    -3.19223004    -0.78487760     0.64911294
      7      C    -3.35078143    -1.80786935     1.58178149
      8      C    -2.37778709    -2.04789897     2.56145564
      9      C    -1.22776563    -1.24997445     2.59148956
     10      C    -1.05166668    -0.22956199     1.65835345
     11      O    -0.85736785     2.00576907     0.13720988
     12      C    -0.01449079     2.64914387    -0.64817490
     13      C     0.20302658     2.35534851    -2.07930091
     14      H    -2.32841137     3.63668864    -1.19646245
     15      H    -2.46439271     3.03527084    -2.86979775
     16      H    -3.91050818     3.13643474    -1.86296794
     17      H    -3.94459558    -0.61553917    -0.11171858
     18      H    -4.24702069    -2.42472379     1.54458147
     19      H    -2.50981793    -2.85020801     3.28435987
     20      H    -0.45645429    -1.43098594     3.33798310
     21      H    -0.14357315     0.36571771     1.68514974
     22      H     0.61654419     3.32834259    -0.08258990
     23      H    -0.36048856     3.00207387    -2.77057562
     24      H     1.26750705     2.48730420    -2.31410157
     25      H    -0.11803874     1.32242427    -2.29173863

Total System Charge              0.00000

 *** GO1_GOStep17 ***

 Energy gradients wrt nuclear displacements
 ==========================================

     Atom      Cartesian (a.u./angstrom)
                 X         Y         Z
 ----------------------------------------
     1 C     0.000053  0.000009  0.000002
     2 C     0.000012  0.000044  0.000035
     3 O     0.000002  0.000029 -0.000009
     4 C    -0.000081 -0.000091 -0.000025
     5 C     0.000022  0.000059 -0.000011
     6 C    -0.000051 -0.000005  0.000016
     7 C    -0.000025  0.000032 -0.000021
     8 C    -0.000015  0.000006  0.000015
     9 C    -0.000044 -0.000005  0.000004
    10 C    -0.000001 -0.000031 -0.000012
    11 O     0.000069  0.000040  0.000044
    12 C     0.000007 -0.000040 -0.000037
    13 C     0.000007 -0.000048  0.000035
    14 H     0.000028  0.000014 -0.000005
    15 H     0.000015  0.000010  0.000007
    16 H     0.000013  0.000035  0.000020
    17 H    -0.000014  0.000032  0.000001
    18 H    -0.000042  0.000031  0.000010
    19 H    -0.000042  0.000004 -0.000005
    20 H    -0.000010 -0.000023 -0.000010
    21 H     0.000001 -0.000027 -0.000003
    22 H     0.000051 -0.000014 -0.000002
    23 H     0.000021 -0.000008 -0.000013
    24 H     0.000024 -0.000037 -0.000017
    25 H    -0.000001 -0.000015 -0.000018
 ----------------------------------------
 
---------------------------------------------------------
Geometry Convergence after Step  17       ** CONVERGED **
---------------------------------------------------------
current energy                               -5.44336672 Hartree
energy change                       0.00000058     0.00025000    T
constrained gradient max            0.00009272     0.00010000    T
constrained gradient rms            0.00002342     0.00006667    T
gradient max                        0.00009272
gradient rms                        0.00002342
cart. step max                      0.00087819     0.01000000    T
cart. step rms                      0.00030156     0.00666667    T
 
Geometry optimization converged

Optimized geometry:

--------
Geometry
--------
Formula: C11H12O2
Atoms
  Index Symbol   x (angstrom)   y (angstrom)   z (angstrom)
      1      C    -2.83796960     2.91487386    -1.84426327
      2      C    -2.70809426     1.45240339    -1.39878228
      3      O    -3.46852560     0.60776292    -1.90712158
      4      C    -1.84769958     1.12873844    -0.27110212
      5      C    -2.03700806     0.03795235     0.67252034
      6      C    -3.19223004    -0.78487760     0.64911294
      7      C    -3.35078143    -1.80786935     1.58178149
      8      C    -2.37778709    -2.04789897     2.56145564
      9      C    -1.22776563    -1.24997445     2.59148956
     10      C    -1.05166668    -0.22956199     1.65835345
     11      O    -0.85736785     2.00576907     0.13720988
     12      C    -0.01449079     2.64914387    -0.64817490
     13      C     0.20302658     2.35534851    -2.07930091
     14      H    -2.32841137     3.63668864    -1.19646245
     15      H    -2.46439271     3.03527084    -2.86979775
     16      H    -3.91050818     3.13643474    -1.86296794
     17      H    -3.94459558    -0.61553917    -0.11171858
     18      H    -4.24702069    -2.42472379     1.54458147
     19      H    -2.50981793    -2.85020801     3.28435987
     20      H    -0.45645429    -1.43098594     3.33798310
     21      H    -0.14357315     0.36571771     1.68514974
     22      H     0.61654419     3.32834259    -0.08258990
     23      H    -0.36048856     3.00207387    -2.77057562
     24      H     1.26750705     2.48730420    -2.31410157
     25      H    -0.11803874     1.32242427    -2.29173863

Total System Charge              0.00000

Performing a single point calculation on the final geometry ...

 *** adf ***



 ===========================
 A T T A C H E D   F I L E S
 ===========================
  
 Restart/tmp/amstmp_c4_fragA_opt_kid0.891965670/GO1_GOStep17.rkf*** GO1_GOStep17 ***



 ===============================
 M O D E L   P A R A M E T E R S
 ===============================
  
 DENSITY FUNCTIONAL POTENTIAL (scf)
    LDA:                               Exchange only                           == Not Default ==
    Gradient Corrections:              Becke88 LYP                             == Not Default ==

 SPIN  (restricted / unrestr.)
    Molecule:                          Restricted                               
    Fragments:                         Restricted                               

 OTHER ASPECTS
    Relativistic Corrections:          scalar (ZORA,MAPA)                       

    Nuclear Charge Density Model:      Point Charge Nuclei                      
    Core Treatment:                    Frozen Orbital(s)                        

    Hyperfine or Zeeman Interaction:   ---                                      

 Settings for Grimme D3 dispersion correction

      damping                        BJ
      s6                          1.000
      s8                          2.700
      a1                          0.430
      a2                          4.236

 Other (technical) parameters

      alpha                      14.000
      version                         4
 



 ===============
 G E O M E T R Y  ***  3D  Molecule  ***
 ===============
  

 ATOMS
 =====                            X Y Z                    CHARGE
                                (Angstrom)             Nucl     +Core       At.Mass
                       --------------------------    ----------------       -------
    1  C              -2.8380    2.9149   -1.8443      6.00      6.00       12.0000
    2  C              -2.7081    1.4524   -1.3988      6.00      6.00       12.0000
    3  O              -3.4685    0.6078   -1.9071      8.00      8.00       15.9949
    4  C              -1.8477    1.1287   -0.2711      6.00      6.00       12.0000
    5  C              -2.0370    0.0380    0.6725      6.00      6.00       12.0000
    6  C              -3.1922   -0.7849    0.6491      6.00      6.00       12.0000
    7  C              -3.3508   -1.8079    1.5818      6.00      6.00       12.0000
    8  C              -2.3778   -2.0479    2.5615      6.00      6.00       12.0000
    9  C              -1.2278   -1.2500    2.5915      6.00      6.00       12.0000
   10  C              -1.0517   -0.2296    1.6584      6.00      6.00       12.0000
   11  O              -0.8574    2.0058    0.1372      8.00      8.00       15.9949
   12  C              -0.0145    2.6491   -0.6482      6.00      6.00       12.0000
   13  C               0.2030    2.3553   -2.0793      6.00      6.00       12.0000
   14  H              -2.3284    3.6367   -1.1965      1.00      1.00        1.0078
   15  H              -2.4644    3.0353   -2.8698      1.00      1.00        1.0078
   16  H              -3.9105    3.1364   -1.8630      1.00      1.00        1.0078
   17  H              -3.9446   -0.6155   -0.1117      1.00      1.00        1.0078
   18  H              -4.2470   -2.4247    1.5446      1.00      1.00        1.0078
   19  H              -2.5098   -2.8502    3.2844      1.00      1.00        1.0078
   20  H              -0.4565   -1.4310    3.3380      1.00      1.00        1.0078
   21  H              -0.1436    0.3657    1.6851      1.00      1.00        1.0078
   22  H               0.6165    3.3283   -0.0826      1.00      1.00        1.0078
   23  H              -0.3605    3.0021   -2.7706      1.00      1.00        1.0078
   24  H               1.2675    2.4873   -2.3141      1.00      1.00        1.0078
   25  H              -0.1180    1.3224   -2.2917      1.00      1.00        1.0078


 FRAGMENTS
 =========                                     Atoms in this Fragment     Cart. coord.s (Angstrom)
                                               -------------------------------------------------------
    1  C                                                 1  C           -2.8380    2.9149   -1.8443
    2  C                                                 2  C           -2.7081    1.4524   -1.3988
    3  C                                                 4  C           -1.8477    1.1287   -0.2711
    4  C                                                 5  C           -2.0370    0.0380    0.6725
    5  C                                                 6  C           -3.1922   -0.7849    0.6491
    6  C                                                 7  C           -3.3508   -1.8079    1.5818
    7  C                                                 8  C           -2.3778   -2.0479    2.5615
    8  C                                                 9  C           -1.2278   -1.2500    2.5915
    9  C                                                10  C           -1.0517   -0.2296    1.6584
   10  C                                                12  C           -0.0145    2.6491   -0.6482
   11  C                                                13  C            0.2030    2.3553   -2.0793
   12  O                                                 3  O           -3.4685    0.6078   -1.9071
   13  O                                                11  O           -0.8574    2.0058    0.1372
   14  H                                                14  H           -2.3284    3.6367   -1.1965
   15  H                                                15  H           -2.4644    3.0353   -2.8698
   16  H                                                16  H           -3.9105    3.1364   -1.8630
   17  H                                                17  H           -3.9446   -0.6155   -0.1117
   18  H                                                18  H           -4.2470   -2.4247    1.5446
   19  H                                                19  H           -2.5098   -2.8502    3.2844
   20  H                                                20  H           -0.4565   -1.4310    3.3380
   21  H                                                21  H           -0.1436    0.3657    1.6851
   22  H                                                22  H            0.6165    3.3283   -0.0826
   23  H                                                23  H           -0.3605    3.0021   -2.7706
   24  H                                                24  H            1.2675    2.4873   -2.3141
   25  H                                                25  H           -0.1180    1.3224   -2.2917



 =====================================
 S Y M M E T R Y ,   E L E C T R O N S
 =====================================
  
 Symmetry: NOSYM

 Irreducible Representations, including subspecies
 -------------------------------------------------
 A


 Configuration of Valence Electrons
 ==================================
 ( determined in the SCF procedure )

 Total:   94

 Net Charge: 0 (Nuclei minus Electrons)

 Aufbau principle for MO occupations will be applied through SCF cycle no.     100
 Thereafter, the program will assign electrons to MOs that are spatially
 similar to the occupied MOs in a "reference" cycle ("KeepOrbitals").
 The reference cycle is always the PREVIOUS cycle: it will evolve with
 the SCF procedure.
 ***************************************************************************************************



                                      ****************************************
                                      *  B U I L D : (Fragments, Functions)  *
                                      ****************************************
  



 =======
 S F O s  ***  (Symmetrized Fragment Orbitals)  ***
 =======
  
 SFOs are linear combinations of (valence) Fragment Orbitals (FOs), such that the SFOs transform as the
 irreducible representations of the (molecular) symmetry group. Each SFO is therefore characterized by
 an irrep of the molecule and by a few (or only one) generating FOs.
 The SFOs constitute a symmetry-adapted basis for the Fock matrix. The MO eigenvector coefficients in
 this basis provide a direct interpretation of the MOs in terms of Frontier Orbital Theory.

 The SFOs are combined with auxiliary Core Functions (CFs) to ensure orthogonalization on the (frozen)
 Core Orbitals (COs). The Core-orthogonalized SFOs (CSFOs) constitute the true Fock basis.

 The FOs, and hence also the (C)SFOs are combinations of the elementary basis functions (BAS). The basis
 functions that participate in the description of the SFOs depend on the irrep. The indices of the
 involved functions are printed below for each irrep.
 (The complete list of primitive basis functions is printed in another section)

 Total nr. of (C)SFOs (summation over all irreps) :   470

 NOTE: a (C)SFO that is defined as a combination of more than one FO is usually NOT normalized.



                                       === A ===
 Nr. of SFOs :  470
 Cartesian basis functions that participate in this irrep (total number =   534) :
      1     2     3     4     5     6     9    12     7    10
     13     8    11    14    15    16    17    18    19    20
     21    22    23    24    25    26    27    28    29    30
     31    32    33    34    35    36    39    42    37    40
     43    38    41    44    45    46    47    48    49    50
     51    52    53    54    55    56    57    58    59    60
     61    62    63    64    65    66    69    72    67    70
     73    68    71    74    75    76    77    78    79    80
[...]
                                    1.32%     2 S             -13.620  2.00     8 C
                                   -1.32%     2 P:z             4.589  0.00    10 C
                                   -1.24%     1 P:y            -5.239  0.67     7 C
                                   -1.21%     3 S              10.158  0.00     5 C
                                    1.21%     3 S              40.869  0.00    20 H
                                   -1.14%     2 P:z             4.589  0.00     5 C
                                    1.14%     3 S              40.869  0.00    15 H
                                    1.11%     2 S               2.394  0.00    22 H
                                   -1.09%     2 P:x             4.589  0.00     5 C
                                   -1.06%     2 P:x             4.589  0.00     3 C

 Energy gradients wrt nuclear displacements
 ==========================================

     Atom      Cartesian (a.u./angstrom)
                 X         Y         Z
 ----------------------------------------
     1 C     0.000053  0.000009  0.000002
     2 C     0.000012  0.000043  0.000035
     3 O     0.000003  0.000030 -0.000009
     4 C    -0.000081 -0.000091 -0.000025
     5 C     0.000022  0.000059 -0.000011
     6 C    -0.000051 -0.000005  0.000016
     7 C    -0.000025  0.000032 -0.000021
     8 C    -0.000015  0.000006  0.000015
     9 C    -0.000044 -0.000005  0.000004
    10 C    -0.000001 -0.000031 -0.000012
    11 O     0.000068  0.000039  0.000045
    12 C     0.000008 -0.000039 -0.000037
    13 C     0.000007 -0.000048  0.000034
    14 H     0.000029  0.000014 -0.000005
    15 H     0.000015  0.000010  0.000007
    16 H     0.000013  0.000035  0.000020
    17 H    -0.000013  0.000032  0.000001
    18 H    -0.000042  0.000031  0.000010
    19 H    -0.000042  0.000004 -0.000005
    20 H    -0.000010 -0.000023 -0.000010
    21 H     0.000001 -0.000026 -0.000003
    22 H     0.000051 -0.000014 -0.000002
    23 H     0.000020 -0.000008 -0.000013
    24 H     0.000024 -0.000037 -0.000017
    25 H    -0.000001 -0.000015 -0.000018
 ----------------------------------------



 =======================================================================
 Electrostatic potential at the Nuclei due to electrons and other nuclei
 =======================================================================
  
         Atom                  Potential
         ----                  ---------
     1)   C                  14.78660055
     2)   C                  14.71623115
     3)   O                  22.43871125
     4)   C                  14.72324349
     5)   C                  14.77106959
     6)   C                  14.79680143
     7)   C                  14.79370421
     8)   C                  14.79222286
     9)   C                  14.79069694
    10)   C                  14.78957515
    11)   O                  22.28760337
    12)   C                  14.68990149
    13)   C                  14.75392723
    14)   H                   1.10481716
    15)   H                   1.10068668
    16)   H                   1.10687371
    17)   H                   1.12337612
    18)   H                   1.11505859
    19)   H                   1.11171502
    20)   H                   1.11058914
    21)   H                   1.10971725
    22)   H                   1.06007931
    23)   H                   1.07467565
    24)   H                   1.07747879
    25)   H                   1.07376556
 Mulliken charges used for AMS results%charges...


    =====================
     CALCULATION RESULTS
    =====================

Energy (hartree)            -5.44336672

Gradients (hartree/bohr)
  Index   Atom            d/dx            d/dy            d/dz
      1      C    0.0000280822    0.0000047253    0.0000011037
      2      C    0.0000061706    0.0000227389    0.0000184110
      3      O    0.0000015375    0.0000157515   -0.0000048006
      4      C   -0.0000428943   -0.0000480787   -0.0000132909
      5      C    0.0000114418    0.0000311854   -0.0000060428
      6      C   -0.0000271337   -0.0000028975    0.0000084602
      7      C   -0.0000129837    0.0000168312   -0.0000111338
      8      C   -0.0000077793    0.0000033007    0.0000077979
      9      C   -0.0000233164   -0.0000025965    0.0000021425
     10      C   -0.0000006955   -0.0000165344   -0.0000063504
     11      O    0.0000358005    0.0000206194    0.0000237542
     12      C    0.0000041028   -0.0000208180   -0.0000196283
     13      C    0.0000039182   -0.0000252071    0.0000181918
     14      H    0.0000150900    0.0000073503   -0.0000023891
     15      H    0.0000079922    0.0000053698    0.0000035481
     16      H    0.0000066705    0.0000185249    0.0000105656
     17      H   -0.0000071191    0.0000166736    0.0000004276
     18      H   -0.0000220788    0.0000164903    0.0000051065
     19      H   -0.0000220564    0.0000020830   -0.0000026163
     20      H   -0.0000055175   -0.0000122230   -0.0000055365
     21      H    0.0000004199   -0.0000140101   -0.0000016502
     22      H    0.0000271539   -0.0000073615   -0.0000010131
     23      H    0.0000108396   -0.0000043185   -0.0000068684
     24      H    0.0000128560   -0.0000194881   -0.0000088376
     25      H   -0.0000005010   -0.0000081110   -0.0000093511


--------------
Atomic charges
--------------
  Index   Atom    Charge
      1      C    0.6098
      2      C    0.3994
      3      O   -0.5557
      4      C    0.2328
      5      C   -0.0614
      6      C    0.2341
      7      C    0.2163
      8      C    0.2078
      9      C    0.2166
     10      C    0.2323
     11      O   -0.4403
     12      C    0.5239
     13      C    0.6099
     14      H   -0.2221
     15      H   -0.1905
     16      H   -0.2135
     17      H   -0.1736
     18      H   -0.2246
     19      H   -0.2181
     20      H   -0.2269
     21      H   -0.2256
     22      H   -0.2069
     23      H   -0.1446
     24      H   -0.2188
     25      H   -0.1604


Dipole moment vector    (Debye):     3.69832614    2.84984751    0.29189624
              magnitude (Debye):     4.67808193


-----------------------
Molecular orbitals info
-----------------------
n orbitals:              470
n spin:                    1

Note: only printing virtual orbitals with
      energy smaller than HOMO + 100. eV

HOMO (eV):              -4.6161
LUMO (eV):              -3.2866
HOMO-LUMO gap (eV):      1.3295

   Index   Energy (eV)    Occupation
     302       95.3156         0.000       
     301       94.8875         0.000       
     300       94.6516         0.000       
     299       94.4559         0.000       
     298       93.6811         0.000       
     297       92.8886         0.000       
     296       92.8674         0.000       
     295       92.8226         0.000       
     294       92.5356         0.000       
     293       91.9969         0.000       
     292       91.8048         0.000       
     291       91.4287         0.000       
     290       91.2629         0.000       
     289       90.1611         0.000       
     288       89.8983         0.000       
     287       88.9660         0.000       
     286       88.6752         0.000       
     285       88.4385         0.000       
     284       87.4431         0.000       
     283       86.7454         0.000       
     282       86.3671         0.000       
     281       86.3208         0.000       
     280       85.7526         0.000       
     279       84.7536         0.000       
     278       84.3302         0.000       
     277       83.6372         0.000       
     276       83.5860         0.000       
     275       83.1469         0.000       
     274       82.9988         0.000       
     273       82.4851         0.000       
     272       81.7741         0.000       
     271       81.4906         0.000       
     270       80.6695         0.000       
     269       80.4759         0.000       
     268       80.2456         0.000       
     267       80.1567         0.000       
     266       79.7874         0.000       
     265       79.4939         0.000       
     264       79.0415         0.000       
     263       78.5737         0.000       
     262       78.0563         0.000       
     261       77.4804         0.000       
     260       77.3113         0.000       
     259       76.6587         0.000       
     258       76.4519         0.000       
     257       76.0440         0.000       
     256       75.6717         0.000       
     255       75.2118         0.000       
     254       75.0095         0.000       
     253       74.6156         0.000       
     252       74.3832         0.000       
     251       73.8077         0.000       
     250       73.4604         0.000       
     249       72.9728         0.000       
     248       72.4925         0.000       
     247       72.2584         0.000       
     246       71.6530         0.000       
     245       70.5005         0.000       
     244       69.1851         0.000       
     243       68.5702         0.000       
     242       68.3443         0.000       
     241       68.2386         0.000       
     240       67.3946         0.000       
     239       66.5551         0.000       
     238       66.0076         0.000       
     237       65.4416         0.000       
     236       64.9512         0.000       
     235       64.4956         0.000       
     234       63.8594         0.000       
     233       63.4888         0.000       
     232       63.2395         0.000       
     231       62.5144         0.000       
     230       62.0087         0.000       
     229       61.5173         0.000       
     228       61.1504         0.000       
     227       60.8427         0.000       
     226       60.5937         0.000       
     225       59.6164         0.000       
     224       59.2967         0.000       
     223       58.0997         0.000       
     222       57.5989         0.000       
     221       57.0466         0.000       
     220       56.3925         0.000       
     219       56.2124         0.000       
     218       55.8828         0.000       
     217       55.4799         0.000       
     216       55.1993         0.000       
     215       54.8938         0.000       
     214       53.9862         0.000       
     213       53.5725         0.000       
     212       53.1060         0.000       
     211       53.0282         0.000       
     210       52.4028         0.000       
     209       52.3311         0.000       
     208       51.7650         0.000       
     207       51.0613         0.000       
     206       50.8393         0.000       
     205       50.5017         0.000       
     204       50.1250         0.000       
     203       49.9998         0.000       
     202       49.7498         0.000       
     201       49.4244         0.000       
     200       48.9936         0.000       
     199       48.2747         0.000       
     198       47.8930         0.000       
     197       47.2963         0.000       
     196       46.8568         0.000       
     195       45.9293         0.000       
     194       45.5951         0.000       
     193       44.4903         0.000       
     192       44.1899         0.000       
     191       43.7580         0.000       
     190       43.2375         0.000       
     189       42.7437         0.000       
     188       42.3972         0.000       
     187       41.3308         0.000       
     186       40.9486         0.000       
     185       40.7398         0.000       
     184       40.1919         0.000       
     183       39.7352         0.000       
     182       39.4142         0.000       
     181       39.0910         0.000       
     180       38.6752         0.000       
     179       38.0499         0.000       
     178       37.9524         0.000       
     177       37.6230         0.000       
     176       37.2655         0.000       
     175       36.7546         0.000       
     174       36.3373         0.000       
     173       36.1317         0.000       
     172       35.9667         0.000       
     171       35.8981         0.000       
     170       34.9906         0.000       
     169       34.7933         0.000       
     168       34.4410         0.000       
     167       33.7435         0.000       
     166       33.2642         0.000       
     165       32.5640         0.000       
     164       32.3888         0.000       
     163       32.1033         0.000       
     162       31.9289         0.000       
     161       31.1630         0.000       
     160       31.1280         0.000       
     159       30.6288         0.000       
     158       30.5272         0.000       
     157       30.2376         0.000       
     156       29.8437         0.000       
     155       29.5321         0.000       
     154       29.1613         0.000       
     153       28.6204         0.000       
     152       28.3260         0.000       
     151       28.1755         0.000       
     150       27.9166         0.000       
     149       27.7232         0.000       
     148       27.5399         0.000       
     147       27.1345         0.000       
     146       26.5814         0.000       
     145       26.5049         0.000       
     144       26.1053         0.000       
     143       25.7966         0.000       
     142       25.3932         0.000       
     141       25.0245         0.000       
     140       24.6166         0.000       
     139       24.1900         0.000       
     138       24.0640         0.000       
     137       23.3610         0.000       
     136       22.8345         0.000       
     135       22.7588         0.000       
     134       22.2649         0.000       
     133       22.1381         0.000       
     132       21.7045         0.000       
     131       21.3538         0.000       
     130       20.9110         0.000       
     129       20.6245         0.000       
     128       20.2128         0.000       
     127       19.8265         0.000       
     126       19.2970         0.000       
     125       19.0002         0.000       
     124       18.5523         0.000       
     123       17.9400         0.000       
     122       17.6972         0.000       
     121       17.4415         0.000       
     120       17.2832         0.000       
     119       16.8904         0.000       
     118       16.5848         0.000       
     117       16.2236         0.000       
     116       15.2775         0.000       
     115       14.7655         0.000       
     114       14.2720         0.000       
     113       14.1670         0.000       
     112       13.6348         0.000       
     111       13.3202         0.000       
     110       13.2375         0.000       
     109       12.4836         0.000       
     108       12.4314         0.000       
     107       11.9504         0.000       
     106       11.8618         0.000       
     105       11.6395         0.000       
     104       11.4229         0.000       
     103       11.0237         0.000       
     102       10.9695         0.000       
     101       10.6230         0.000       
     100       10.4574         0.000       
      99       10.1307         0.000       
      98        9.9692         0.000       
      97        9.7756         0.000       
      96        9.6754         0.000       
      95        9.4439         0.000       
      94        9.2996         0.000       
      93        9.1403         0.000       
      92        8.9441         0.000       
      91        8.8976         0.000       
      90        8.5377         0.000       
      89        8.3412         0.000       
      88        8.1231         0.000       
      87        8.0863         0.000       
      86        7.8095         0.000       
      85        7.4545         0.000       
      84        7.3204         0.000       
      83        7.0252         0.000       
      82        6.8416         0.000       
      81        6.5756         0.000       
      80        6.2167         0.000       
      79        5.8996         0.000       
      78        5.7292         0.000       
      77        5.6408         0.000       
      76        5.4088         0.000       
      75        5.2320         0.000       
      74        5.1309         0.000       
      73        4.8462         0.000       
      72        4.8075         0.000       
      71        4.3490         0.000       
      70        4.1282         0.000       
      69        3.7886         0.000       
      68        3.5196         0.000       
      67        3.3736         0.000       
      66        3.1378         0.000       
      65        2.9467         0.000       
      64        2.7589         0.000       
      63        2.6439         0.000       
      62        2.3317         0.000       
      61        1.8603         0.000       
      60        1.6187         0.000       
      59        1.4207         0.000       
      58        1.3692         0.000       
      57        1.0240         0.000       
      56        0.7750         0.000       
      55        0.4765         0.000       
      54        0.3141         0.000       
      53        0.1406         0.000       
      52        0.0059         0.000       
      51       -0.5174         0.000       
      50       -0.9885         0.000       
      49       -1.4047         0.000       
      48       -3.2866         0.000 < LUMO
      47       -4.6161         2.000 < HOMO
      46       -5.3437         2.000       
      45       -6.1037         2.000       
      44       -6.6341         2.000       
      43       -8.0433         2.000       
      42       -8.2501         2.000       
      41       -8.4397         2.000       
      40       -8.8600         2.000       
      39       -9.1068         2.000       
      38       -9.6688         2.000       
      37       -9.6922         2.000       
      36       -9.7904         2.000       
      35      -10.0435         2.000       
      34      -10.3235         2.000       
      33      -10.3715         2.000       
      32      -10.6254         2.000       
      31      -10.9177         2.000       
      30      -11.1165         2.000       
      29      -11.6187         2.000       
      28      -11.9481         2.000       
      27      -12.6919         2.000       
      26      -12.9168         2.000       
      25      -13.6169         2.000       
      24      -14.4725         2.000       
      23      -14.8781         2.000       
      22      -15.8058         2.000       
      21      -17.4836         2.000       
      20      -18.2013         2.000       
      19      -18.2999         2.000       
      18      -19.0665         2.000       
      17      -20.0629         2.000       
      16      -21.1449         2.000       
      15      -25.0723         2.000       
      14      -28.4980         2.000       
      13     -269.8228         2.000       
      12     -269.9040         2.000       
      11     -269.9405         2.000       
      10     -269.9829         2.000       
       9     -270.0075         2.000       
       8     -270.0104         2.000       
       7     -270.4734         2.000       
       6     -270.8601         2.000       
       5     -271.7454         2.000       
       4     -271.9939         2.000       
       3     -272.6747         2.000       
       2     -510.4499         2.000       
       1     -514.4306         2.000       

AMS application finished. Exiting.
NORMAL TERMINATION
     Total cpu time:    1574.78
  Total system time:       4.59
 Total elapsed time:    1588.31
NORMAL TERMINATION
