
 *******************************************************************************
 *                                                                             *
 *  --------------------------------                                           *
 *   Amsterdam Modeling Suite (AMS)              2026.103                      *
 *  --------------------------------                                           *
 *                                               r260501 2026-05-01 873454b5   *
 *                                                                             *
 *                                                                             *
 *                              =================                              *
 *                              |               |                              *
 *                              |     A M S     |                              *
 *                              |               |                              *
 *                              =================                              *
 *                                                                             *
 *                                                                             *
 *   Online information and documentation:  https://www.scm.com/support/       *
 *   E-mail:  support@scm.com   info@scm.com                                   *
 *                                                                             *
 *   Scientific publications using AMS results must be properly referenced     *
 *   See the User Manuals (or the web site) for recommended citations          *
 *   The terms and conditions of the End User License Agreement apply to       *
 *   the use of AMS, https://www.scm.com/license-terms/                        *
 *                                                                             *
 **********************  x86_64_linux_intel / intelmpi  ************************
 
 Licensed to: Jong-June Jeon / University of Seoul 2026-06-02 13:44:15
 SCM User ID: u30731
  
 AMS 2026.103  RunTime: Jun03-2026 23:45:09  ShM Nodes: 1  Procs: 1

 AMS jobname: c2_fragB_ts
 AMS jobid  : 1487936211

 Start   directory: /gpfs/home1/yeseo1ee/projects/eda-asm-prediction/ADF_800/adf_outputs/batch_007/qmrxn20_sn2_C_E_A_C_C_C/
 Results directory: /gpfs/home1/yeseo1ee/projects/eda-asm-prediction/ADF_800/adf_outputs/batch_007/qmrxn20_sn2_C_E_A_C_C_C/c2_fragB_ts.results/
 Scratch directory: /tmp/amstmp_c2_fragB_ts_kid0.1487936211/

 RNG seed: -1052840210 1841480552 -1166683223 -2132255445 142947240 920493309 106029487 769552146



                      ************************************************************************
                      *  ADF 2026.103  RunTime: Jun03-2026 23:45:09  ShM Nodes: 1  Procs: 1  *
                      ************************************************************************
  

       ****************************
       * SINGLE POINT CALCULATION *
       ****************************

--------
Geometry
--------
Formula: C4H4ClN3
Atoms
  Index Symbol   x (angstrom)   y (angstrom)   z (angstrom)
      1      C     0.62317698    -0.07163383     0.00535505
      2      H     1.45525913     1.82452027     0.51394287
      3     Cl     2.96945370     0.03975567    -0.46116381
      4      C     0.54458254     1.45158032     0.04696107
      5      H    -0.30404293     1.74024238     0.66584499
      6      C     0.50639753    -0.81473732    -1.22805287
      7      N     0.42650304    -1.46763057    -2.20689259
      8      N     0.84166412    -0.71043727     1.26975188
      9      H     1.75768568    -1.13937416     1.25807007
     10      H     0.12456116    -1.40772998     1.41503260
     11      C     0.40070070     2.06806717    -1.26638930
     12      N     0.26814066     2.60544531    -2.30141008

Total System Charge              0.00000


----------------
ADF Engine Input
----------------
 
   Basis
     Type TZ2P
     Core None
   End
   XC
     GGA BLYP
     Dispersion GRIMME3 BJDAMP
   End
   Symmetry NOSYM
   NumericalQuality Normal
   Unrestricted No
   SCF
     Iterations 200
     Converge 1.0e-6
   End
   Save TAPE21
 

 Title: *** (NO TITLE) ***

 *** adf ***



 ===========================
 A T T A C H E D   F I L E S
 ===========================
  



 ===============================
 M O D E L   P A R A M E T E R S
 ===============================
  
 DENSITY FUNCTIONAL POTENTIAL (scf)
    LDA:                               Exchange only                           == Not Default ==
    Gradient Corrections:              Becke88 LYP                             == Not Default ==

 SPIN  (restricted / unrestr.)
    Molecule:                          Restricted                               
    Fragments:                         Restricted                               

 OTHER ASPECTS
    Relativistic Corrections:          scalar (ZORA,MAPA)                       

    Nuclear Charge Density Model:      Point Charge Nuclei                      
    Core Treatment:                    Frozen Orbital(s)                        

    Hyperfine or Zeeman Interaction:   ---                                      

 Settings for Grimme D3 dispersion correction

      damping                        BJ
      s6                          1.000
      s8                          2.700
      a1                          0.430
      a2                          4.236

 Other (technical) parameters

      alpha                      14.000
      version                         4
 


 Fragment File(s)
 ----------------
 C:
         file : /gpfs/home1/yeseo1ee/projects/eda-asm-prediction/ADF_800/adf_outputs/batch_007/qmrxn20_sn2_C_E_A_C_C_C/c2_fragB_ts.results/t21.50BA88D5.C
         jobid: 0
         title: Carbon (TZ2P)
 H:
         file : /gpfs/home1/yeseo1ee/projects/eda-asm-prediction/ADF_800/adf_outputs/batch_007/qmrxn20_sn2_C_E_A_C_C_C/c2_fragB_ts.results/t21.6F35CCAB.H
         jobid: 0
         title: Hydrogen (TZ2P)
 Cl:
         file : /gpfs/home1/yeseo1ee/projects/eda-asm-prediction/ADF_800/adf_outputs/batch_007/qmrxn20_sn2_C_E_A_C_C_C/c2_fragB_ts.results/t21.3FD35465.Cl
         jobid: 0
         title: Chlorine (TZ2P)
 N:
         file : /gpfs/home1/yeseo1ee/projects/eda-asm-prediction/ADF_800/adf_outputs/batch_007/qmrxn20_sn2_C_E_A_C_C_C/c2_fragB_ts.results/t21.44EAA48D.N
         jobid: 0
         title: Nitrogen (TZ2P)



 ===============
 G E O M E T R Y  ***  3D  Molecule  ***
 ===============
  

 ATOMS
 =====                            X Y Z                    CHARGE
                                (Angstrom)             Nucl     +Core       At.Mass
                       --------------------------    ----------------       -------
    1  C               0.6232   -0.0716    0.0054      6.00      6.00       12.0000
    2  H               1.4553    1.8245    0.5139      1.00      1.00        1.0078
    3  Cl              2.9695    0.0398   -0.4612     17.00     17.00       34.9689
    4  C               0.5446    1.4516    0.0470      6.00      6.00       12.0000
    5  H              -0.3040    1.7402    0.6658      1.00      1.00        1.0078
    6  C               0.5064   -0.8147   -1.2281      6.00      6.00       12.0000
    7  N               0.4265   -1.4676   -2.2069      7.00      7.00       14.0031
    8  N               0.8417   -0.7104    1.2698      7.00      7.00       14.0031
    9  H               1.7577   -1.1394    1.2581      1.00      1.00        1.0078
   10  H               0.1246   -1.4077    1.4150      1.00      1.00        1.0078
   11  C               0.4007    2.0681   -1.2664      6.00      6.00       12.0000
   12  N               0.2681    2.6054   -2.3014      7.00      7.00       14.0031


 FRAGMENTS
 =========                                     Atoms in this Fragment     Cart. coord.s (Angstrom)
                                               -------------------------------------------------------
    1  C                                                 1  C            0.6232   -0.0716    0.0054
    2  C                                                 4  C            0.5446    1.4516    0.0470
    3  C                                                 6  C            0.5064   -0.8147   -1.2281
    4  C                                                11  C            0.4007    2.0681   -1.2664
    5  H                                                 2  H            1.4553    1.8245    0.5139
    6  H                                                 5  H           -0.3040    1.7402    0.6658
    7  H                                                 9  H            1.7577   -1.1394    1.2581
    8  H                                                10  H            0.1246   -1.4077    1.4150
    9  Cl                                                3  Cl           2.9695    0.0398   -0.4612
   10  N                                                 7  N            0.4265   -1.4676   -2.2069
   11  N                                                 8  N            0.8417   -0.7104    1.2698
   12  N                                                12  N            0.2681    2.6054   -2.3014


 Interatomic Distance Matrix (Angstrom)
 --------------------------------------

   1)     0.000
   2)     2.132   0.000
   3)     2.395   2.536   0.000
   4)     1.526   1.089   2.852   0.000
   5)     2.140   1.768   3.857   1.089   0.000
   6)     1.445   3.302   2.718   2.601   3.282   0.000
   7)     2.623   4.393   3.433   3.690   4.368   1.179   0.000
   8)     1.433   2.715   2.844   2.502   2.772   2.522   3.582   0.000
   9)     1.999   3.071   2.411   3.107   3.591   2.802   3.726   1.012   0.000
  10)     2.005   3.610   3.703   3.197   3.264   2.736   3.635   1.011   1.662   0.000
  11)     2.499   2.084   3.371   1.458   2.083   2.885   3.659   3.788   4.301   4.399
          0.000
  12)     3.552   3.154   4.155   2.631   3.143   3.593   4.077   4.907   5.377   5.472
          1.174   0.000

 Min. Distance =    1.0107
 Max. Distance =    5.4716



 =====================================
 S Y M M E T R Y ,   E L E C T R O N S
 =====================================
  
 Symmetry: NOSYM

 Irreducible Representations, including subspecies
 -------------------------------------------------
 A


 Configuration of Valence Electrons
 ==================================
 ( determined in the SCF procedure )

 Total:   66

 Net Charge: 0 (Nuclei minus Electrons)

 Aufbau principle for MO occupations will be applied through SCF cycle no.     100
 Thereafter, the program will assign electrons to MOs that are spatially
 similar to the occupied MOs in a "reference" cycle ("KeepOrbitals").
 The reference cycle is always the PREVIOUS cycle: it will evolve with
 the SCF procedure.
 ***************************************************************************************************



                                      ****************************************
                                      *  B U I L D : (Fragments, Functions)  *
                                      ****************************************
  



 =======
 S F O s  ***  (Symmetrized Fragment Orbitals)  ***
 =======
  
 SFOs are linear combinations of (valence) Fragment Orbitals (FOs), such that the SFOs transform as the
 irreducible representations of the (molecular) symmetry group. Each SFO is therefore characterized by
 an irrep of the molecule and by a few (or only one) generating FOs.
 The SFOs constitute a symmetry-adapted basis for the Fock matrix. The MO eigenvector coefficients in
 this basis provide a direct interpretation of the MOs in terms of Frontier Orbital Theory.

 The SFOs are combined with auxiliary Core Functions (CFs) to ensure orthogonalization on the (frozen)
 Core Orbitals (COs). The Core-orthogonalized SFOs (CSFOs) constitute the true Fock basis.

 The FOs, and hence also the (C)SFOs are combinations of the elementary basis functions (BAS). The basis
 functions that participate in the description of the SFOs depend on the irrep. The indices of the
 involved functions are printed below for each irrep.
 (The complete list of primitive basis functions is printed in another section)

 Total nr. of (C)SFOs (summation over all irreps) :   260

 NOTE: a (C)SFO that is defined as a combination of more than one FO is usually NOT normalized.



                                       === A ===
 Nr. of SFOs :  260
 Cartesian basis functions that participate in this irrep (total number =   296) :
      1     2     3     4     5     6     9    12     7    10
     13     8    11    14    15    16    17    18    19    20
     21    22    23    24    25    26    27    28    29    30
     31    32    33    34    35    36    39    42    37    40
     43    38    41    44    45    46    47    48    49    50
     51    52    53    54    55    56    57    58    59    60
     61    62    63    64    65    66    69    72    67    70
     73    68    71    74    75    76    77    78    79    80
     81    82    83    84    85    86    87    88    89    90
     91    92    93    94    95    96    99   102    97   100
    103    98   101   104   105   106   107   108   109   110
    111   112   113   114   115   116   117   118   119   120
    121   122   123   124   125   126   127   128   129   130
    131   132   133   134   135   136   137   138   139   140
    141   142   143   144   145   146   147   148   149   150
    151   152   153   154   155   156   157   158   159   160
    161   162   163   164   165   166   167   168   169   170
    171   172   179   180   181   173   176   182   185   188
    174   177   183   186   189   175   178   184   187   190
    191   192   193   194   195   196   197   198   199   200
    201   202   203   204   205   206   207   208   209   210
    211   212   215   218   213   216   219   214   217   220
    221   222   223   224   225   226   227   228   229   230
    231   232   233   234   235   236   237   238   239   240
    241   242   245   248   243   246   249   244   247   250
    251   252   253   254   255   256   257   258   259   260
    261   262   263   264   265   266   267   268   269   270
    271   272   275   278   273   276   279   274   277   280
    281   282   283   284   285   286   287   288   289   290
    291   292   293   294   295   296

    SFO  (index         Fragment          Generating    Expansion in Fragment Orbitals
  indx  incl.CFs)   Occup   Orb.Energy   FragmentType  Coeff.   Orbital     on Fragment
 --------------------------------------------------------------------------------------
     1       1      2.000     -10.066 au  C             1.00      1 S               1
                        (    -273.921 eV)
     2       2      2.000      -0.501 au  C             1.00      2 S               1
                        (     -13.620 eV)
     3       3       --         0.373 au  C             1.00      3 S               1
                        (      10.158 eV)
     4       4       --         5.405 au  C             1.00      4 S               1
                        (     147.073 eV)
     5       5       --        49.848 au  C             1.00      5 S               1
                        (    1356.422 eV)
     6       6      0.667      -0.193 au  C             1.00      1 P:x             1
                        (      -5.239 eV)
     7       7       --         0.169 au  C             1.00      2 P:x             1
                        (       4.589 eV)
     8       8       --         2.013 au  C             1.00      3 P:x             1
                        (      54.789 eV)
     9       9      0.667      -0.193 au  C             1.00      1 P:y             1
                        (      -5.239 eV)
    10      10       --         0.169 au  C             1.00      2 P:y             1
                        (       4.589 eV)
    11      11       --         2.013 au  C             1.00      3 P:y             1
                        (      54.789 eV)
    12      12      0.667      -0.193 au  C             1.00      1 P:z             1
                        (      -5.239 eV)
    13      13       --         0.169 au  C             1.00      2 P:z             1
                        (       4.589 eV)
    14      14       --         2.013 au  C             1.00      3 P:z             1
                        (      54.789 eV)
    15      15       --         1.243 au  C             1.00      1 D:z2            1
                        (      33.824 eV)
    16      16       --         1.243 au  C             1.00      1 D:x2-y2         1
                        (      33.824 eV)
    17      17       --         1.243 au  C             1.00      1 D:xy            1
                        (      33.824 eV)
    18      18       --         1.243 au  C             1.00      1 D:xz            1
                        (      33.824 eV)
    19      19       --         1.243 au  C             1.00      1 D:yz            1
                        (      33.824 eV)
    20      20       --         4.016 au  C             1.00      1 F:z3            1
                        (     109.271 eV)
    21      21       --         4.016 au  C             1.00      1 F:z             1
                        (     109.271 eV)
    22      22       --         4.016 au  C             1.00      1 F:xyz           1
                        (     109.271 eV)
    23      23       --         4.016 au  C             1.00      1 F:z2x           1
                        (     109.271 eV)
    24      24       --         4.016 au  C             1.00      1 F:z2y           1
                        (     109.271 eV)
    25      25       --         4.016 au  C             1.00      1 F:x             1
                        (     109.271 eV)
    26      26       --         4.016 au  C             1.00      1 F:y             1
                        (     109.271 eV)
    27      27      2.000     -10.066 au  C             1.00      1 S               2
                        (    -273.921 eV)
    28      28      2.000      -0.501 au  C             1.00      2 S               2
                        (     -13.620 eV)
    29      29       --         0.373 au  C             1.00      3 S               2
                        (      10.158 eV)
    30      30       --         5.405 au  C             1.00      4 S               2
                        (     147.073 eV)
    31      31       --        49.848 au  C             1.00      5 S               2
                        (    1356.422 eV)
    32      32      0.667      -0.193 au  C             1.00      1 P:x             2
                        (      -5.239 eV)
    33      33       --         0.169 au  C             1.00      2 P:x             2
                        (       4.589 eV)
    34      34       --         2.013 au  C             1.00      3 P:x             2
                        (      54.789 eV)
    35      35      0.667      -0.193 au  C             1.00      1 P:y             2
                        (      -5.239 eV)
    36      36       --         0.169 au  C             1.00      2 P:y             2
                        (       4.589 eV)
    37      37       --         2.013 au  C             1.00      3 P:y             2
                        (      54.789 eV)
    38      38      0.667      -0.193 au  C             1.00      1 P:z             2
                        (      -5.239 eV)
    39      39       --         0.169 au  C             1.00      2 P:z             2
                        (       4.589 eV)
    40      40       --         2.013 au  C             1.00      3 P:z             2
                        (      54.789 eV)
    41      41       --         1.243 au  C             1.00      1 D:z2            2
                        (      33.824 eV)
    42      42       --         1.243 au  C             1.00      1 D:x2-y2         2
                        (      33.824 eV)
    43      43       --         1.243 au  C             1.00      1 D:xy            2
                        (      33.824 eV)
    44      44       --         1.243 au  C             1.00      1 D:xz            2
                        (      33.824 eV)
    45      45       --         1.243 au  C             1.00      1 D:yz            2
                        (      33.824 eV)
    46      46       --         4.016 au  C             1.00      1 F:z3            2
                        (     109.271 eV)
    47      47       --         4.016 au  C             1.00      1 F:z             2
                        (     109.271 eV)
    48      48       --         4.016 au  C             1.00      1 F:xyz           2
                        (     109.271 eV)
    49      49       --         4.016 au  C             1.00      1 F:z2x           2
                        (     109.271 eV)
    50      50       --         4.016 au  C             1.00      1 F:z2y           2
                        (     109.271 eV)
    51      51       --         4.016 au  C             1.00      1 F:x             2
                        (     109.271 eV)
    52      52       --         4.016 au  C             1.00      1 F:y             2
                        (     109.271 eV)
    53      53      2.000     -10.066 au  C             1.00      1 S               3
                        (    -273.921 eV)
    54      54      2.000      -0.501 au  C             1.00      2 S               3
                        (     -13.620 eV)
    55      55       --         0.373 au  C             1.00      3 S               3
                        (      10.158 eV)
    56      56       --         5.405 au  C             1.00      4 S               3
                        (     147.073 eV)
    57      57       --        49.848 au  C             1.00      5 S               3
                        (    1356.422 eV)
    58      58      0.667      -0.193 au  C             1.00      1 P:x             3
                        (      -5.239 eV)
    59      59       --         0.169 au  C             1.00      2 P:x             3
                        (       4.589 eV)
    60      60       --         2.013 au  C             1.00      3 P:x             3
                        (      54.789 eV)
    61      61      0.667      -0.193 au  C             1.00      1 P:y             3
                        (      -5.239 eV)
    62      62       --         0.169 au  C             1.00      2 P:y             3
                        (       4.589 eV)
    63      63       --         2.013 au  C             1.00      3 P:y             3
                        (      54.789 eV)
    64      64      0.667      -0.193 au  C             1.00      1 P:z             3
                        (      -5.239 eV)
    65      65       --         0.169 au  C             1.00      2 P:z             3
                        (       4.589 eV)
    66      66       --         2.013 au  C             1.00      3 P:z             3
                        (      54.789 eV)
    67      67       --         1.243 au  C             1.00      1 D:z2            3
                        (      33.824 eV)
    68      68       --         1.243 au  C             1.00      1 D:x2-y2         3
                        (      33.824 eV)
    69      69       --         1.243 au  C             1.00      1 D:xy            3
                        (      33.824 eV)
    70      70       --         1.243 au  C             1.00      1 D:xz            3
                        (      33.824 eV)
    71      71       --         1.243 au  C             1.00      1 D:yz            3
                        (      33.824 eV)
    72      72       --         4.016 au  C             1.00      1 F:z3            3
                        (     109.271 eV)
    73      73       --         4.016 au  C             1.00      1 F:z             3
                        (     109.271 eV)
    74      74       --         4.016 au  C             1.00      1 F:xyz           3
                        (     109.271 eV)
    75      75       --         4.016 au  C             1.00      1 F:z2x           3
                        (     109.271 eV)
    76      76       --         4.016 au  C             1.00      1 F:z2y           3
                        (     109.271 eV)
    77      77       --         4.016 au  C             1.00      1 F:x             3
                        (     109.271 eV)
    78      78       --         4.016 au  C             1.00      1 F:y             3
                        (     109.271 eV)
    79      79      2.000     -10.066 au  C             1.00      1 S               4
                        (    -273.921 eV)
    80      80      2.000      -0.501 au  C             1.00      2 S               4
                        (     -13.620 eV)
    81      81       --         0.373 au  C             1.00      3 S               4
                        (      10.158 eV)
    82      82       --         5.405 au  C             1.00      4 S               4
                        (     147.073 eV)
    83      83       --        49.848 au  C             1.00      5 S               4
                        (    1356.422 eV)
    84      84      0.667      -0.193 au  C             1.00      1 P:x             4
                        (      -5.239 eV)
    85      85       --         0.169 au  C             1.00      2 P:x             4
                        (       4.589 eV)
    86      86       --         2.013 au  C             1.00      3 P:x             4
                        (      54.789 eV)
    87      87      0.667      -0.193 au  C             1.00      1 P:y             4
                        (      -5.239 eV)
    88      88       --         0.169 au  C             1.00      2 P:y             4
                        (       4.589 eV)
    89      89       --         2.013 au  C             1.00      3 P:y             4
                        (      54.789 eV)
    90      90      0.667      -0.193 au  C             1.00      1 P:z             4
                        (      -5.239 eV)
    91      91       --         0.169 au  C             1.00      2 P:z             4
                        (       4.589 eV)
    92      92       --         2.013 au  C             1.00      3 P:z             4
                        (      54.789 eV)
    93      93       --         1.243 au  C             1.00      1 D:z2            4
                        (      33.824 eV)
    94      94       --         1.243 au  C             1.00      1 D:x2-y2         4
                        (      33.824 eV)
    95      95       --         1.243 au  C             1.00      1 D:xy            4
                        (      33.824 eV)
    96      96       --         1.243 au  C             1.00      1 D:xz            4
                        (      33.824 eV)
    97      97       --         1.243 au  C             1.00      1 D:yz            4
                        (      33.824 eV)
    98      98       --         4.016 au  C             1.00      1 F:z3            4
                        (     109.271 eV)
    99      99       --         4.016 au  C             1.00      1 F:z             4
                        (     109.271 eV)
   100     100       --         4.016 au  C             1.00      1 F:xyz           4
                        (     109.271 eV)
   101     101       --         4.016 au  C             1.00      1 F:z2x           4
                        (     109.271 eV)
   102     102       --         4.016 au  C             1.00      1 F:z2y           4
                        (     109.271 eV)
   103     103       --         4.016 au  C             1.00      1 F:x             4
                        (     109.271 eV)
   104     104       --         4.016 au  C             1.00      1 F:y             4
                        (     109.271 eV)
   105     105      1.000      -0.240 au  H             1.00      1 S               5
                        (      -6.532 eV)
   106     106       --         0.088 au  H             1.00      2 S               5
                        (       2.394 eV)
   107     107       --         1.502 au  H             1.00      3 S               5
                        (      40.869 eV)
   108     108       --         0.406 au  H             1.00      1 P:x             5
                        (      11.051 eV)
   109     109       --         0.406 au  H             1.00      1 P:y             5
                        (      11.051 eV)
   110     110       --         0.406 au  H             1.00      1 P:z             5
                        (      11.051 eV)
   111     111       --         2.569 au  H             1.00      1 D:z2            5
                        (      69.917 eV)
   112     112       --         2.569 au  H             1.00      1 D:x2-y2         5
                        (      69.917 eV)
   113     113       --         2.569 au  H             1.00      1 D:xy            5
                        (      69.917 eV)
   114     114       --         2.569 au  H             1.00      1 D:xz            5
                        (      69.917 eV)
   115     115       --         2.569 au  H             1.00      1 D:yz            5
                        (      69.917 eV)
   116     116      1.000      -0.240 au  H             1.00      1 S               6
                        (      -6.532 eV)
   117     117       --         0.088 au  H             1.00      2 S               6
                        (       2.394 eV)
   118     118       --         1.502 au  H             1.00      3 S               6
                        (      40.869 eV)
   119     119       --         0.406 au  H             1.00      1 P:x             6
                        (      11.051 eV)
   120     120       --         0.406 au  H             1.00      1 P:y             6
                        (      11.051 eV)
   121     121       --         0.406 au  H             1.00      1 P:z             6
                        (      11.051 eV)
   122     122       --         2.569 au  H             1.00      1 D:z2            6
                        (      69.917 eV)
   123     123       --         2.569 au  H             1.00      1 D:x2-y2         6
                        (      69.917 eV)
   124     124       --         2.569 au  H             1.00      1 D:xy            6
                        (      69.917 eV)
   125     125       --         2.569 au  H             1.00      1 D:xz            6
                        (      69.917 eV)
   126     126       --         2.569 au  H             1.00      1 D:yz            6
                        (      69.917 eV)
   127     127      1.000      -0.240 au  H             1.00      1 S               7
                        (      -6.532 eV)
   128     128       --         0.088 au  H             1.00      2 S               7
                        (       2.394 eV)
   129     129       --         1.502 au  H             1.00      3 S               7
                        (      40.869 eV)
   130     130       --         0.406 au  H             1.00      1 P:x             7
                        (      11.051 eV)
   131     131       --         0.406 au  H             1.00      1 P:y             7
                        (      11.051 eV)
   132     132       --         0.406 au  H             1.00      1 P:z             7
                        (      11.051 eV)
   133     133       --         2.569 au  H             1.00      1 D:z2            7
                        (      69.917 eV)
   134     134       --         2.569 au  H             1.00      1 D:x2-y2         7
                        (      69.917 eV)
   135     135       --         2.569 au  H             1.00      1 D:xy            7
                        (      69.917 eV)
   136     136       --         2.569 au  H             1.00      1 D:xz            7
                        (      69.917 eV)
   137     137       --         2.569 au  H             1.00      1 D:yz            7
                        (      69.917 eV)
   138     138      1.000      -0.240 au  H             1.00      1 S               8
                        (      -6.532 eV)
   139     139       --         0.088 au  H             1.00      2 S               8
                        (       2.394 eV)
   140     140       --         1.502 au  H             1.00      3 S               8
                        (      40.869 eV)
   141     141       --         0.406 au  H             1.00      1 P:x             8
                        (      11.051 eV)
   142     142       --         0.406 au  H             1.00      1 P:y             8
                        (      11.051 eV)
   143     143       --         0.406 au  H             1.00      1 P:z             8
                        (      11.051 eV)
   144     144       --         2.569 au  H             1.00      1 D:z2            8
                        (      69.917 eV)
   145     145       --         2.569 au  H             1.00      1 D:x2-y2         8
                        (      69.917 eV)
   146     146       --         2.569 au  H             1.00      1 D:xy            8
                        (      69.917 eV)
   147     147       --         2.569 au  H             1.00      1 D:xz            8
                        (      69.917 eV)
   148     148       --         2.569 au  H             1.00      1 D:yz            8
                        (      69.917 eV)
   149     149      2.000    -101.116 au  Cl            1.00      1 S               9
                        (   -2751.516 eV)
   150     150      2.000      -9.276 au  Cl            1.00      2 S               9
                        (    -252.419 eV)
   151     151      2.000      -0.754 au  Cl            1.00      3 S               9
                        (     -20.523 eV)
   152     152       --         0.194 au  Cl            1.00      4 S               9
                        (       5.292 eV)
   153     153       --         1.998 au  Cl            1.00      5 S               9
                        (      54.377 eV)
   154     154       --        12.618 au  Cl            1.00      6 S               9
                        (     343.355 eV)
   155     155       --       205.328 au  Cl            1.00      7 S               9
                        (    5587.258 eV)
   156     156      2.000      -7.038 au  Cl            1.00      1 P:x             9
                        (    -191.503 eV)
   157     157      1.667      -0.310 au  Cl            1.00      2 P:x             9
                        (      -8.439 eV)
   158     158       --         0.226 au  Cl            1.00      3 P:x             9
                        (       6.147 eV)
   159     159       --         2.102 au  Cl            1.00      4 P:x             9
                        (      57.194 eV)
   160     160       --        18.665 au  Cl            1.00      5 P:x             9
                        (     507.904 eV)
   161     161      2.000      -7.038 au  Cl            1.00      1 P:y             9
                        (    -191.503 eV)
   162     162      1.667      -0.310 au  Cl            1.00      2 P:y             9
                        (      -8.439 eV)
   163     163       --         0.226 au  Cl            1.00      3 P:y             9
                        (       6.147 eV)
   164     164       --         2.102 au  Cl            1.00      4 P:y             9
                        (      57.194 eV)
   165     165       --        18.665 au  Cl            1.00      5 P:y             9
                        (     507.904 eV)
   166     166      2.000      -7.038 au  Cl            1.00      1 P:z             9
                        (    -191.503 eV)
   167     167      1.667      -0.310 au  Cl            1.00      2 P:z             9
                        (      -8.439 eV)
   168     168       --         0.226 au  Cl            1.00      3 P:z             9
                        (       6.147 eV)
   169     169       --         2.102 au  Cl            1.00      4 P:z             9
                        (      57.194 eV)
   170     170       --        18.665 au  Cl            1.00      5 P:z             9
                        (     507.904 eV)
   171     171       --         0.388 au  Cl            1.00      1 D:z2            9
                        (      10.568 eV)
   172     172       --         0.388 au  Cl            1.00      1 D:x2-y2         9
                        (      10.568 eV)
   173     173       --         0.388 au  Cl            1.00      1 D:xy            9
                        (      10.568 eV)
   174     174       --         0.388 au  Cl            1.00      1 D:xz            9
                        (      10.568 eV)
   175     175       --         0.388 au  Cl            1.00      1 D:yz            9
                        (      10.568 eV)
   176     176       --         1.191 au  Cl            1.00      1 F:z3            9
                        (      32.399 eV)
   177     177       --         1.191 au  Cl            1.00      1 F:z             9
                        (      32.399 eV)
   178     178       --         1.191 au  Cl            1.00      1 F:xyz           9
                        (      32.399 eV)
   179     179       --         1.191 au  Cl            1.00      1 F:z2x           9
                        (      32.399 eV)
   180     180       --         1.191 au  Cl            1.00      1 F:z2y           9
                        (      32.399 eV)
   181     181       --         1.191 au  Cl            1.00      1 F:x             9
                        (      32.399 eV)
   182     182       --         1.191 au  Cl            1.00      1 F:y             9
                        (      32.399 eV)
   183     183      2.000     -14.160 au  N             1.00      1 S              10
                        (    -385.319 eV)
   184     184      2.000      -0.678 au  N             1.00      2 S              10
                        (     -18.450 eV)
   185     185       --         0.517 au  N             1.00      3 S              10
                        (      14.073 eV)
   186     186       --         6.872 au  N             1.00      4 S              10
                        (     186.990 eV)
   187     187       --        63.432 au  N             1.00      5 S              10
                        (    1726.082 eV)
   188     188      1.000      -0.260 au  N             1.00      1 P:x            10
                        (      -7.062 eV)
   189     189       --         0.281 au  N             1.00      2 P:x            10
                        (       7.649 eV)
   190     190       --         3.275 au  N             1.00      3 P:x            10
                        (      89.105 eV)
   191     191      1.000      -0.260 au  N             1.00      1 P:y            10
                        (      -7.062 eV)
   192     192       --         0.281 au  N             1.00      2 P:y            10
                        (       7.649 eV)
   193     193       --         3.275 au  N             1.00      3 P:y            10
                        (      89.105 eV)
   194     194      1.000      -0.260 au  N             1.00      1 P:z            10
                        (      -7.062 eV)
   195     195       --         0.281 au  N             1.00      2 P:z            10
                        (       7.649 eV)
   196     196       --         3.275 au  N             1.00      3 P:z            10
                        (      89.105 eV)
   197     197       --         1.250 au  N             1.00      1 D:z2           10
                        (      34.005 eV)
   198     198       --         1.250 au  N             1.00      1 D:x2-y2        10
                        (      34.005 eV)
   199     199       --         1.250 au  N             1.00      1 D:xy           10
                        (      34.005 eV)
   200     200       --         1.250 au  N             1.00      1 D:xz           10
                        (      34.005 eV)
   201     201       --         1.250 au  N             1.00      1 D:yz           10
                        (      34.005 eV)
   202     202       --         4.013 au  N             1.00      1 F:z3           10
                        (     109.190 eV)
   203     203       --         4.013 au  N             1.00      1 F:z            10
                        (     109.190 eV)
   204     204       --         4.013 au  N             1.00      1 F:xyz          10
                        (     109.190 eV)
   205     205       --         4.013 au  N             1.00      1 F:z2x          10
                        (     109.190 eV)
   206     206       --         4.013 au  N             1.00      1 F:z2y          10
                        (     109.190 eV)
   207     207       --         4.013 au  N             1.00      1 F:x            10
                        (     109.190 eV)
   208     208       --         4.013 au  N             1.00      1 F:y            10
                        (     109.190 eV)
   209     209      2.000     -14.160 au  N             1.00      1 S              11
                        (    -385.319 eV)
   210     210      2.000      -0.678 au  N             1.00      2 S              11
                        (     -18.450 eV)
   211     211       --         0.517 au  N             1.00      3 S              11
                        (      14.073 eV)
   212     212       --         6.872 au  N             1.00      4 S              11
                        (     186.990 eV)
   213     213       --        63.432 au  N             1.00      5 S              11
                        (    1726.082 eV)
   214     214      1.000      -0.260 au  N             1.00      1 P:x            11
                        (      -7.062 eV)
   215     215       --         0.281 au  N             1.00      2 P:x            11
                        (       7.649 eV)
   216     216       --         3.275 au  N             1.00      3 P:x            11
                        (      89.105 eV)
   217     217      1.000      -0.260 au  N             1.00      1 P:y            11
                        (      -7.062 eV)
   218     218       --         0.281 au  N             1.00      2 P:y            11
                        (       7.649 eV)
   219     219       --         3.275 au  N             1.00      3 P:y            11
                        (      89.105 eV)
   220     220      1.000      -0.260 au  N             1.00      1 P:z            11
                        (      -7.062 eV)
   221     221       --         0.281 au  N             1.00      2 P:z            11
                        (       7.649 eV)
   222     222       --         3.275 au  N             1.00      3 P:z            11
                        (      89.105 eV)
   223     223       --         1.250 au  N             1.00      1 D:z2           11
                        (      34.005 eV)
   224     224       --         1.250 au  N             1.00      1 D:x2-y2        11
                        (      34.005 eV)
   225     225       --         1.250 au  N             1.00      1 D:xy           11
                        (      34.005 eV)
   226     226       --         1.250 au  N             1.00      1 D:xz           11
                        (      34.005 eV)
   227     227       --         1.250 au  N             1.00      1 D:yz           11
                        (      34.005 eV)
   228     228       --         4.013 au  N             1.00      1 F:z3           11
                        (     109.190 eV)
   229     229       --         4.013 au  N             1.00      1 F:z            11
                        (     109.190 eV)
   230     230       --         4.013 au  N             1.00      1 F:xyz          11
                        (     109.190 eV)
   231     231       --         4.013 au  N             1.00      1 F:z2x          11
                        (     109.190 eV)
   232     232       --         4.013 au  N             1.00      1 F:z2y          11
                        (     109.190 eV)
   233     233       --         4.013 au  N             1.00      1 F:x            11
                        (     109.190 eV)
   234     234       --         4.013 au  N             1.00      1 F:y            11
                        (     109.190 eV)
   235     235      2.000     -14.160 au  N             1.00      1 S              12
                        (    -385.319 eV)
   236     236      2.000      -0.678 au  N             1.00      2 S              12
                        (     -18.450 eV)
   237     237       --         0.517 au  N             1.00      3 S              12
                        (      14.073 eV)
   238     238       --         6.872 au  N             1.00      4 S              12
                        (     186.990 eV)
   239     239       --        63.432 au  N             1.00      5 S              12
                        (    1726.082 eV)
   240     240      1.000      -0.260 au  N             1.00      1 P:x            12
                        (      -7.062 eV)
   241     241       --         0.281 au  N             1.00      2 P:x            12
                        (       7.649 eV)
   242     242       --         3.275 au  N             1.00      3 P:x            12
                        (      89.105 eV)
   243     243      1.000      -0.260 au  N             1.00      1 P:y            12
                        (      -7.062 eV)
   244     244       --         0.281 au  N             1.00      2 P:y            12
                        (       7.649 eV)
   245     245       --         3.275 au  N             1.00      3 P:y            12
                        (      89.105 eV)
   246     246      1.000      -0.260 au  N             1.00      1 P:z            12
                        (      -7.062 eV)
   247     247       --         0.281 au  N             1.00      2 P:z            12
                        (       7.649 eV)
   248     248       --         3.275 au  N             1.00      3 P:z            12
                        (      89.105 eV)
   249     249       --         1.250 au  N             1.00      1 D:z2           12
                        (      34.005 eV)
   250     250       --         1.250 au  N             1.00      1 D:x2-y2        12
                        (      34.005 eV)
   251     251       --         1.250 au  N             1.00      1 D:xy           12
                        (      34.005 eV)
   252     252       --         1.250 au  N             1.00      1 D:xz           12
                        (      34.005 eV)
   253     253       --         1.250 au  N             1.00      1 D:yz           12
                        (      34.005 eV)
   254     254       --         4.013 au  N             1.00      1 F:z3           12
                        (     109.190 eV)
   255     255       --         4.013 au  N             1.00      1 F:z            12
                        (     109.190 eV)
   256     256       --         4.013 au  N             1.00      1 F:xyz          12
                        (     109.190 eV)
   257     257       --         4.013 au  N             1.00      1 F:z2x          12
                        (     109.190 eV)
   258     258       --         4.013 au  N             1.00      1 F:z2y          12
                        (     109.190 eV)
   259     259       --         4.013 au  N             1.00      1 F:x            12
                        (     109.190 eV)
   260     260       --         4.013 au  N             1.00      1 F:y            12
                        (     109.190 eV)



 ================================
 (Slater-type)  F U N C T I O N S  ***  (Basis and Fit)  ***
 ================================
  

 Atom Type    1  (C)
 ==============

 Valence Basis Sets:  10
 -----------------------
   1 S    7.680000
   1 S    5.000000
   2 S    1.280000
   2 S    2.100000
   2 S    4.600000
   2 P    0.820000
   2 P    1.480000
   2 P    2.940000
   3 D    2.200000
   4 F    3.300000

 Atom Type    2  (H)
 ==============

 Valence Basis Sets:   5
 -----------------------
   1 S    0.690000
   1 S    0.920000
   1 S    1.580000
   2 P    1.250000
   3 D    2.500000

 Atom Type    3  (Cl)
 ==============

 Valence Basis Sets:  14
 -----------------------
   1 S   20.300000
   1 S   15.250000
   2 S    6.250000
   2 S    4.450000
   2 P    8.850000
   2 P    5.050000
   3 S    3.450000
   3 S    2.300000
   3 S    1.600000
   3 P    3.350000
   3 P    2.050000
   3 P    1.200000
   3 D    2.000000
   4 F    2.000000

 Atom Type    4  (N)
 ==============

 Valence Basis Sets:  10
 -----------------------
   1 S    8.740000
   1 S    5.900000
   2 S    5.150000
   2 S    2.500000
   2 S    1.500000
   2 P    3.680000
   2 P    1.880000
   2 P    1.000000
   3 D    2.200000
   4 F    3.300000


 BAS: List of all Elementary Cartesian Basis Functions
 =====================================================

 The numbering in the list below (to the right of the function characteristics) is referred
 to in print-outs of MO eigenvectors and Mulliken populations in the BAS representation
 (as contrasted to the SFO representation).

 Notes:
 1. The functions are characterized by a polynomial prefactor (powers of x,y,z and r) and
    an exponential decay factor alpha.
 2. Since the basis sets are specific for an atom TYPE, the individual functions occur on
    all atoms of that type.
 3. The word 'Core' in the left margin signals that it is a Core Function (CF) : not a
    degree of freedom in the valence set, but only used to ensure orthogonalization of
    the other valence basis functions on the frozen Core Orbitals.


 (power of) X  Y  Z  R     Alpha  on Atom
            ==========     =====     ==========

 C                                    1    2    3    4
                                  ---------------------------------------------------------------------------
            0  0  0  0     7.680      1   31   61   91
            0  0  0  0     5.000      2   32   62   92
            0  0  0  1     1.280      3   33   63   93
            0  0  0  1     2.100      4   34   64   94
            0  0  0  1     4.600      5   35   65   95
            1  0  0  0     0.820      6   36   66   96
            0  1  0  0     0.820      7   37   67   97
            0  0  1  0     0.820      8   38   68   98
            1  0  0  0     1.480      9   39   69   99
            0  1  0  0     1.480     10   40   70  100
            0  0  1  0     1.480     11   41   71  101
            1  0  0  0     2.940     12   42   72  102
            0  1  0  0     2.940     13   43   73  103
            0  0  1  0     2.940     14   44   74  104
            2  0  0  0     2.200     15   45   75  105
            1  1  0  0     2.200     16   46   76  106
            1  0  1  0     2.200     17   47   77  107
            0  2  0  0     2.200     18   48   78  108
            0  1  1  0     2.200     19   49   79  109
            0  0  2  0     2.200     20   50   80  110
            3  0  0  0     3.300     21   51   81  111
            2  1  0  0     3.300     22   52   82  112
            2  0  1  0     3.300     23   53   83  113
            1  2  0  0     3.300     24   54   84  114
            1  1  1  0     3.300     25   55   85  115
            1  0  2  0     3.300     26   56   86  116
            0  3  0  0     3.300     27   57   87  117
            0  2  1  0     3.300     28   58   88  118
            0  1  2  0     3.300     29   59   89  119
            0  0  3  0     3.300     30   60   90  120

 H                                    5    6    7    8
                                  ---------------------------------------------------------------------------
            0  0  0  0     0.690    121  133  145  157
            0  0  0  0     0.920    122  134  146  158
            0  0  0  0     1.580    123  135  147  159
            1  0  0  0     1.250    124  136  148  160
            0  1  0  0     1.250    125  137  149  161
            0  0  1  0     1.250    126  138  150  162
            2  0  0  0     2.500    127  139  151  163
            1  1  0  0     2.500    128  140  152  164
            1  0  1  0     2.500    129  141  153  165
            0  2  0  0     2.500    130  142  154  166
            0  1  1  0     2.500    131  143  155  167
            0  0  2  0     2.500    132  144  156  168

 Cl                                   9
                                  ---------------------------------------------------------------------------
            0  0  0  0    20.300    169
            0  0  0  0    15.250    170
            0  0  0  1     6.250    171
            0  0  0  1     4.450    172
            1  0  0  0     8.850    173
            0  1  0  0     8.850    174
            0  0  1  0     8.850    175
            1  0  0  0     5.050    176
            0  1  0  0     5.050    177
            0  0  1  0     5.050    178
            0  0  0  2     3.450    179
            0  0  0  2     2.300    180
            0  0  0  2     1.600    181
            1  0  0  1     3.350    182
            0  1  0  1     3.350    183
            0  0  1  1     3.350    184
            1  0  0  1     2.050    185
            0  1  0  1     2.050    186
            0  0  1  1     2.050    187
            1  0  0  1     1.200    188
            0  1  0  1     1.200    189
            0  0  1  1     1.200    190
            2  0  0  0     2.000    191
            1  1  0  0     2.000    192
            1  0  1  0     2.000    193
            0  2  0  0     2.000    194
            0  1  1  0     2.000    195
            0  0  2  0     2.000    196
            3  0  0  0     2.000    197
            2  1  0  0     2.000    198
            2  0  1  0     2.000    199
            1  2  0  0     2.000    200
            1  1  1  0     2.000    201
            1  0  2  0     2.000    202
            0  3  0  0     2.000    203
            0  2  1  0     2.000    204
            0  1  2  0     2.000    205
            0  0  3  0     2.000    206

 N                                   10   11   12
                                  ---------------------------------------------------------------------------
            0  0  0  0     8.740    207  237  267
            0  0  0  0     5.900    208  238  268
            0  0  0  1     5.150    209  239  269
            0  0  0  1     2.500    210  240  270
            0  0  0  1     1.500    211  241  271
            1  0  0  0     3.680    212  242  272
            0  1  0  0     3.680    213  243  273
            0  0  1  0     3.680    214  244  274
            1  0  0  0     1.880    215  245  275
            0  1  0  0     1.880    216  246  276
            0  0  1  0     1.880    217  247  277
            1  0  0  0     1.000    218  248  278
            0  1  0  0     1.000    219  249  279
            0  0  1  0     1.000    220  250  280
            2  0  0  0     2.200    221  251  281
            1  1  0  0     2.200    222  252  282
            1  0  1  0     2.200    223  253  283
            0  2  0  0     2.200    224  254  284
            0  1  1  0     2.200    225  255  285
            0  0  2  0     2.200    226  256  286
            3  0  0  0     3.300    227  257  287
            2  1  0  0     3.300    228  258  288
            2  0  1  0     3.300    229  259  289
            1  2  0  0     3.300    230  260  290
            1  1  1  0     3.300    231  261  291
            1  0  2  0     3.300    232  262  292
            0  3  0  0     3.300    233  263  293
            0  2  1  0     3.300    234  264  294
            0  1  2  0     3.300    235  265  295
            0  0  3  0     3.300    236  266  296

 Total number of charge fitting functions (nprimf)       894
 Total number of Cartesian basis functions (naos)        296
 Total number of Cartesian core functions  (ncos)          0

 ***************************************************************************************************



                                              ***********************
                                              *  T E C H N I C A L  *
                                              ***********************
  



 =============================================================
 P A R A L L E L I Z A T I O N  and  V E C T O R I Z A T I O N
 =============================================================
  
 Nr of parallel processes:                                1
 Maximum vector length in NumInt loops:                 128



 =====================
 S C F   U P D A T E S
 =====================
  
 Max. nr. of cycles:                               200
 Convergence criterion:                              0.0000010000
   secondary criterion:                              0.0010000000

 Mix parameter (when DIIS does not apply):           0.2000000000
 Mixed ADIIS+SDIIS will be used                  
    Max number of expansion vectors:                10
    Pure ADIIS when Max([F,P]) is above              0.1000000000
    Pure SDIIS when Max([F,P]) is below              0.0010000000
 Automatic ElectronSmearing (in case of problematic SCF convergence) disabled



 =================
 P R E C I S I O N  ***  (General: NumInt, NeglectFunctionTails, ...)  ***
 =================
  

 NumInt:           Target precision:                 4.0000000000
 -------           Initial precision:                4.0000000000
                   Min. precision (optimization):    4.0000000000

 Neglect Functions:          Basis functions:        0.1000000000E-05
 ------------------          Fit functions:          0.1000000000E-05



 ===========================
 L I N E A R   S C A L I N G
 ===========================
  

 Cut-off radii density fit:                        0.1000000000E-07
 Overlap cut-off criterion AO matrix elements:     0.1000000000E-05
 Cut-offs for Coulomb potential and fitted density:0.1000000000E-07
 Cut-off criterion for Coulomb multipole terms:    0.1000000000E-07
 Progressive Convergence parameter:                 0.000000000    
 ***************************************************************************************************



                                            ***************************
                                            *  C O M P U T A T I O N  *
                                            ***************************
  

 Number of elements of the density matrix on this node (used, total):     43956     43956



 ===========================================
 Numerical Integration : Fuzzy Cells (Becke)
 ===========================================
  
 Becke grid quality: NORMAL         
  
 Lebedev angular grid order:             min:  11 max:  23
 Nr. of radial points:                   min:  46 max:  67

 Total nr. of points:      82438
 Nr. of blocks:              645
 Block length:               128
 Nr. of dummy points:        122


 Test of Precision of the Numerical Integration Grid
 ===================================================

 Integral of the Total Core Density:                   0.00000000000000



 ========================
 Density Fitting (zlmFit)
 ========================
  
 ZlmFit Fit Quality: NORMAL         
  
 Max L-expansion:                        min:   6 max:   7
 Nr. of radial interpolation points:     min:  39 max:  60



 =====
 S C F  ***  ScaSCF  ***
 =====
  
 Initial density matrix is calculated as sum of fragments

 CYCLE    1
 SCF Error: norm([F,P])=      6.145758359548, max([F,P])=      1.439010621211
 orbitals (Q,E):
 ---------------
 A :24...43          ( 2.00    -0.4901)  ( 2.00    -0.4875)  ( 2.00    -0.4657)  ( 2.00    -0.4519)
                     ( 2.00    -0.4481)  ( 2.00    -0.4458)  ( 2.00    -0.4117)  ( 2.00    -0.3507)
                     ( 2.00    -0.3217)  ( 2.00    -0.3198)  ( 0.00    -0.2476)  ( 0.00    -0.1615)
                     ( 0.00    -0.1480)  ( 0.00    -0.1405)  ( 0.00    -0.0941)  ( 0.00    -0.0629)
                     ( 0.00    -0.0325)  ( 0.00    -0.0214)  ( 0.00     0.0011)  ( 0.00     0.0051)

 CYCLE    2
   MIX coefficients:  0.8000  0.2000
 SCF Error: norm([F,P])=      1.224601835955, max([F,P])=      0.224907463502
 orbitals (Q,E):
 ---------------
 A :24...34          ( 2.00    -0.4272)  ( 2.00    -0.4213)  ( 2.00    -0.4181)  ( 2.00    -0.4012)
                     ( 2.00    -0.3961)  ( 2.00    -0.3928)  ( 2.00    -0.3556)  ( 2.00    -0.3363)
                     ( 2.00    -0.3183)  ( 2.00    -0.3149)  ( 0.00    -0.2403)

 CYCLE    3
  SDIIS (wt  0.000): -0.3012  1.3012
 A-DIIS (wt  1.000):  0.0000  1.0000
  DIIS coefficients:  0.0000  1.0000
 SCF Error: norm([F,P])=      0.547198723055, max([F,P])=      0.091545575630
 orbitals (Q,E):
 ---------------
 A :24...34          ( 2.00    -0.3321)  ( 2.00    -0.3154)  ( 2.00    -0.2913)  ( 2.00    -0.2686)
                     ( 2.00    -0.2635)  ( 2.00    -0.2545)  ( 2.00    -0.2473)  ( 2.00    -0.2418)
                     ( 2.00    -0.2337)  ( 2.00    -0.2093)  ( 0.00    -0.1780)

 CYCLE    4
  SDIIS (wt  0.000):  0.0387  0.5303  0.4310
 A-DIIS (wt  1.000):  0.0000  0.6292  0.3708
  DIIS coefficients:  0.0000  0.6292  0.3708
 SCF Error: norm([F,P])=      0.754248615931, max([F,P])=      0.165214925493
 orbitals (Q,E):
 ---------------
 A :24...34          ( 2.00    -0.3639)  ( 2.00    -0.3460)  ( 2.00    -0.3292)  ( 2.00    -0.3249)
                     ( 2.00    -0.3100)  ( 2.00    -0.3066)  ( 2.00    -0.2905)  ( 2.00    -0.2807)
                     ( 2.00    -0.2639)  ( 2.00    -0.2582)  ( 0.00    -0.1936)

 CYCLE    5
  SDIIS (wt  0.782): -0.0024  0.2876  0.1782  0.5366
 A-DIIS (wt  0.218):  0.0000  0.0000  0.0000  1.0000
  DIIS coefficients: -0.0019  0.2248  0.1393  0.6378
 SCF Error: norm([F,P])=      0.122984910370, max([F,P])=      0.022619537350
 orbitals (Q,E):
 ---------------
 A :24...34          ( 2.00    -0.3817)  ( 2.00    -0.3669)  ( 2.00    -0.3504)  ( 2.00    -0.3349)
                     ( 2.00    -0.3252)  ( 2.00    -0.3221)  ( 2.00    -0.2986)  ( 2.00    -0.2854)
                     ( 2.00    -0.2723)  ( 2.00    -0.2688)  ( 0.00    -0.2076)

 CYCLE    6
  SDIIS (wt  0.782):  0.0008  0.1416  0.0780  0.4697  0.3098
 A-DIIS (wt  0.218):  0.0000  0.0000  0.0000  0.5051  0.4949
  DIIS coefficients:  0.0007  0.1107  0.0610  0.4774  0.3503
 SCF Error: norm([F,P])=      0.122787176585, max([F,P])=      0.044220047741
 orbitals (Q,E):
 ---------------
 A :24...34          ( 2.00    -0.3759)  ( 2.00    -0.3575)  ( 2.00    -0.3420)  ( 2.00    -0.3387)
                     ( 2.00    -0.3236)  ( 2.00    -0.3207)  ( 2.00    -0.2974)  ( 2.00    -0.2857)
                     ( 2.00    -0.2755)  ( 2.00    -0.2714)  ( 0.00    -0.2045)

 CYCLE    7
  SDIIS (wt  0.791):  0.0048  0.0533  0.0296  0.3032  0.3140  0.2951
 A-DIIS (wt  0.209):  0.0000  0.0000  0.0000  0.0539  0.3235  0.6226
  DIIS coefficients:  0.0038  0.0422  0.0234  0.2512  0.3160  0.3635
 SCF Error: norm([F,P])=      0.073248091781, max([F,P])=      0.021664479210
 orbitals (Q,E):
 ---------------
 A :24...34          ( 2.00    -0.3749)  ( 2.00    -0.3587)  ( 2.00    -0.3418)  ( 2.00    -0.3341)
                     ( 2.00    -0.3205)  ( 2.00    -0.3173)  ( 2.00    -0.2958)  ( 2.00    -0.2865)
                     ( 2.00    -0.2704)  ( 2.00    -0.2659)  ( 0.00    -0.2031)

 CYCLE    8
  SDIIS (wt  0.891):  0.0005  0.0275  0.0129  0.1709  0.2100  0.2772  0.3011
 A-DIIS (wt  0.109):  0.0000  0.0000  0.0000  0.0000  0.0000  0.2107  0.7893
  DIIS coefficients:  0.0005  0.0245  0.0115  0.1522  0.1870  0.2699  0.3544
 SCF Error: norm([F,P])=      0.027852687838, max([F,P])=      0.011822972771
 orbitals (Q,E):
 ---------------
 A :24...34          ( 2.00    -0.3749)  ( 2.00    -0.3586)  ( 2.00    -0.3417)  ( 2.00    -0.3342)
                     ( 2.00    -0.3207)  ( 2.00    -0.3177)  ( 2.00    -0.2958)  ( 2.00    -0.2858)
                     ( 2.00    -0.2724)  ( 2.00    -0.2680)  ( 0.00    -0.2030)

 CYCLE    9
  SDIIS (wt  0.953): -0.0005  0.0123  0.0051  0.0780  0.1082  0.1845  0.3263  0.2861
 A-DIIS (wt  0.047):  0.0000  0.0000  0.0000  0.0000  0.0000  0.0000  0.2424  0.7576
  DIIS coefficients: -0.0005  0.0117  0.0049  0.0743  0.1031  0.1757  0.3224  0.3084
 SCF Error: norm([F,P])=      0.013250039087, max([F,P])=      0.005692731666
 orbitals (Q,E):
 ---------------
 A :24...34          ( 2.00    -0.3751)  ( 2.00    -0.3586)  ( 2.00    -0.3419)  ( 2.00    -0.3349)
                     ( 2.00    -0.3210)  ( 2.00    -0.3180)  ( 2.00    -0.2957)  ( 2.00    -0.2858)
                     ( 2.00    -0.2718)  ( 2.00    -0.2674)  ( 0.00    -0.2032)

 CYCLE   10
  SDIIS (wt  1.000): -0.0007  0.0037  0.0008  0.0216  0.0337  0.0632  0.1510  0.1971  0.5297
  DIIS coefficients: -0.0007  0.0037  0.0008  0.0216  0.0337  0.0632  0.1510  0.1971  0.5297
 SCF Error: norm([F,P])=      0.002209093151, max([F,P])=      0.000754877016
 orbitals (Q,E):
 ---------------
 A :24...34          ( 2.00    -0.3751)  ( 2.00    -0.3586)  ( 2.00    -0.3419)  ( 2.00    -0.3348)
                     ( 2.00    -0.3210)  ( 2.00    -0.3180)  ( 2.00    -0.2958)  ( 2.00    -0.2859)
                     ( 2.00    -0.2719)  ( 2.00    -0.2675)  ( 0.00    -0.2032)

 CYCLE   11
  SDIIS (wt  1.000): -0.0003  0.0012  0.0002  0.0059  0.0098  0.0180  0.0513  0.0713  0.2512  0.5916
  DIIS coefficients: -0.0003  0.0012  0.0002  0.0059  0.0098  0.0180  0.0513  0.0713  0.2512  0.5916
 SCF Error: norm([F,P])=      0.000355018538, max([F,P])=      0.000086623971
 orbitals (Q,E):
 ---------------
 A :24...34          ( 2.00    -0.3751)  ( 2.00    -0.3586)  ( 2.00    -0.3419)  ( 2.00    -0.3348)
                     ( 2.00    -0.3210)  ( 2.00    -0.3180)  ( 2.00    -0.2958)  ( 2.00    -0.2859)
                     ( 2.00    -0.2719)  ( 2.00    -0.2674)  ( 0.00    -0.2032)

 CYCLE   12
  SDIIS (wt  1.000): -0.0000 -0.0000 -0.0002 -0.0003 -0.0008 -0.0004  0.0026  0.0290  0.2931  0.6771
  DIIS coefficients: -0.0000 -0.0000 -0.0002 -0.0003 -0.0008 -0.0004  0.0026  0.0290  0.2931  0.6771
 SCF Error: norm([F,P])=      0.000134565358, max([F,P])=      0.000028307333
 orbitals (Q,E):
 ---------------
 A :24...34          ( 2.00    -0.3751)  ( 2.00    -0.3586)  ( 2.00    -0.3419)  ( 2.00    -0.3348)
                     ( 2.00    -0.3210)  ( 2.00    -0.3180)  ( 2.00    -0.2958)  ( 2.00    -0.2859)
                     ( 2.00    -0.2719)  ( 2.00    -0.2674)  ( 0.00    -0.2032)

 CYCLE   13
  SDIIS (wt  1.000): -0.0000  0.0002  0.0006  0.0014  0.0049  0.0098  0.0394  0.1879  0.4008  0.3550
  DIIS coefficients: -0.0000  0.0002  0.0006  0.0014  0.0049  0.0098  0.0394  0.1879  0.4008  0.3550
 SCF Error: norm([F,P])=      0.000123055220, max([F,P])=      0.000041385564
 orbitals (Q,E):
 ---------------
 A :24...34          ( 2.00    -0.3751)  ( 2.00    -0.3586)  ( 2.00    -0.3419)  ( 2.00    -0.3348)
                     ( 2.00    -0.3210)  ( 2.00    -0.3180)  ( 2.00    -0.2958)  ( 2.00    -0.2859)
                     ( 2.00    -0.2719)  ( 2.00    -0.2674)  ( 0.00    -0.2032)

 CYCLE   14
  SDIIS (wt  1.000): -0.0000  0.0000  0.0002  0.0005  0.0019  0.0065  0.0465  0.1186  0.1413  0.6846
  DIIS coefficients: -0.0000  0.0000  0.0002  0.0005  0.0019  0.0065  0.0465  0.1186  0.1413  0.6846
 SCF Error: norm([F,P])=      0.000021246520, max([F,P])=      0.000007225503
 orbitals (Q,E):
 ---------------
 A :24...34          ( 2.00    -0.3751)  ( 2.00    -0.3586)  ( 2.00    -0.3419)  ( 2.00    -0.3348)
                     ( 2.00    -0.3210)  ( 2.00    -0.3180)  ( 2.00    -0.2958)  ( 2.00    -0.2859)
                     ( 2.00    -0.2719)  ( 2.00    -0.2674)  ( 0.00    -0.2032)

 CYCLE   15
  SDIIS (wt  1.000):  0.0000  0.0001  0.0002  0.0009  0.0029  0.0228  0.0601  0.0692  0.3835  0.4605
  DIIS coefficients:  0.0000  0.0001  0.0002  0.0009  0.0029  0.0228  0.0601  0.0692  0.3835  0.4605
 SCF Error: norm([F,P])=      0.000004425449, max([F,P])=      0.000000976798
 orbitals (Q,E):
 ---------------
 A :24...34          ( 2.00    -0.3751)  ( 2.00    -0.3586)  ( 2.00    -0.3419)  ( 2.00    -0.3348)
                     ( 2.00    -0.3210)  ( 2.00    -0.3180)  ( 2.00    -0.2958)  ( 2.00    -0.2859)
                     ( 2.00    -0.2719)  ( 2.00    -0.2674)  ( 0.00    -0.2032)

 SCF CONVERGED

 CYCLE   16
 ***************************************************************************************************



                                                *******************
                                                *  R E S U L T S  *
                                                *******************
  
 *** Using FIT density in Focky
  SDIIS (wt  1.000):  0.0000  0.0000  0.0002  0.0007  0.0046  0.0123  0.0140  0.0955  0.1683  0.7043
  DIIS coefficients:  0.0000  0.0000  0.0002  0.0007  0.0046  0.0123  0.0140  0.0955  0.1683  0.7043
 SCF Error: norm([F,P])=      0.000000721638, max([F,P])=      0.000000151052

 Scaled ZORA Orbital Energies, per Irrep and Spin:
 =================================================
                        Occup              E (au)              E (eV)       Diff (eV) with prev. cycle
                        -----      --------------------        ------       --------------------------
 A
              24        2.000     -0.37509783615597E+00       -10.207               6.38E-07
              25        2.000     -0.35860572389211E+00        -9.758              -9.36E-09
              26        2.000     -0.34191859733531E+00        -9.304               1.23E-07
              27        2.000     -0.33481233382659E+00        -9.111              -1.62E-06
              28        2.000     -0.32097707435336E+00        -8.734              -9.32E-07
              29        2.000     -0.31797552897123E+00        -8.653              -8.05E-07
              30        2.000     -0.29577508931925E+00        -8.048               3.16E-07
              31        2.000     -0.28591855006268E+00        -7.780              -1.67E-07
              32        2.000     -0.27187288942270E+00        -7.398               1.02E-06
              33        2.000     -0.26744960648194E+00        -7.278               1.09E-06
              34        0.000     -0.20321426849156E+00        -5.530
              35        0.000     -0.70620047241934E-01        -1.922
              36        0.000     -0.49894194689457E-01        -1.358
              37        0.000     -0.39219480436627E-01        -1.067
              38        0.000     -0.37035060110130E-01        -1.008
              39        0.000     -0.17806776766489E-01        -0.485
              40        0.000     -0.60371281095568E-02        -0.164
              41        0.000      0.28967188788260E-01         0.788
              42        0.000      0.38580251633790E-01         1.050
              43        0.000      0.43438751206901E-01         1.182
  
 HOMO :       33 A                -0.26744960648194E+00
 LUMO :       34 A                -0.20321426849156E+00
  


 All Electron Calculation, thus no Orbital Energies of the Core Orbitals are calculated


 Fit test: (difference of exact and fit density, squared integrated, result summed over spins)
         Sum-of-Fragments:                             0.00000000090228
         Orthogonalized Fragments:                     0.00012333564045
         SCF:                                          0.00022301440536



 ==========================
 Electron Density at Nuclei
 ==========================
  
 The electron density is calculated at points on a small sphere around the center of a nucleus.
 The printed electron density is the average electron density on these points.
 The radius of the sphere is the printed approximate finite nuclear radius.
 Note: ZORA-4 density is used, which includes small component density

         Atom        Nuclear Radius (Angstrom)             Electron Density (a.u.)
         ----        -------------------------             -----------------------
     1)   C                 0.0000320678                              127.24129
     2)   H                 0.0000181514                                0.49904
     3)   Cl                0.0000426624                             3312.53973
     4)   C                 0.0000320678                              127.00859
     5)   H                 0.0000181514                                0.50379
     6)   C                 0.0000320678                              127.36428
     7)   N                 0.0000333706                              207.05031
     8)   N                 0.0000333706                              205.97984
     9)   H                 0.0000181514                                0.48693
    10)   H                 0.0000181514                                0.50075
    11)   C                 0.0000320678                              127.38241
    12)   N                 0.0000333706                              206.98782



 =======================================
 M U L L I K E N   P O P U L A T I O N S
 =======================================
  
 The survey below gives for each atom:
 a) the total charge (Z minus electrons)
 b) the net spin polarization (nr of electrons spin-A minus spin-B)
 c) for each spin the atomic electron valence density (integrated) per L-value.

 Atom              Charge    Spin density          S         P         D         F
 ----              ------    ------------       ------    ------    ------    ------
 1 C               0.1948                       3.2053    2.4877    0.1056    0.0066
 2 H              -0.0628                       0.9694    0.0868    0.0066    0.0000
 3 Cl             -0.2700                       5.9919   11.2560    0.0169    0.0052
 4 C               0.4520                       2.8960    2.5898    0.0590    0.0032
 5 H              -0.1235                       1.0404    0.0771    0.0059    0.0000
 6 C               0.1457                       3.0521    2.7321    0.0609    0.0093
 7 N              -0.1848                       3.7553    3.3688    0.0563    0.0044
 8 N               0.0013                       3.3692    3.5840    0.0425    0.0031
 9 H               0.0110                       0.8467    0.1318    0.0105    0.0000
 10 H             -0.0250                       0.8987    0.1167    0.0096    0.0000
 11 C              0.0814                       3.0896    2.7590    0.0613    0.0088
 12 N             -0.2202                       3.7368    3.4227    0.0563    0.0044

 Populations of individual BAS functions
 ----------------------------------------
 1 C            0.5050  1.4853  0.3550  0.8960 -0.0360  0.1176 -0.1422 -0.1257  0.5333  0.8475
                0.7750  0.1104  0.1905  0.1812 -0.0129  0.0127  0.0150  0.0287  0.0297  0.0323
               -0.0031 -0.0044 -0.0044  0.0018  0.0007  0.0027  0.0038  0.0020  0.0024  0.0050
 4 C            0.5076  1.4819  0.0319  0.9157 -0.0412 -0.0774 -0.1418 -0.1253  0.8237  0.7559
                0.7871  0.2086  0.1728  0.1861  0.0025  0.0083  0.0110  0.0151  0.0122  0.0099
               -0.0022 -0.0022 -0.0010  0.0012  0.0002  0.0016  0.0039  0.0006 -0.0005  0.0016
 6 C            0.5055  1.4805  0.2517  0.8444 -0.0300  0.0651  0.0368 -0.0082  0.6907  0.6930
                0.6930  0.1586  0.1850  0.2181 -0.0176  0.0070  0.0127  0.0049  0.0150  0.0390
               -0.0066 -0.0035 -0.0055  0.0012  0.0017  0.0070 -0.0011  0.0002  0.0070  0.0089
 11 C           0.5048  1.4815  0.2874  0.8467 -0.0308  0.0742  0.0753  0.0023  0.6692  0.6800
                0.6950  0.1585  0.1768  0.2276 -0.0195  0.0042  0.0185 -0.0010  0.0153  0.0437
               -0.0062 -0.0031 -0.0061  0.0002  0.0012  0.0077 -0.0027 -0.0015  0.0080  0.0112
 2 H           -0.0114  0.6609  0.3199  0.0433  0.0214  0.0220  0.0081  0.0016  0.0016 -0.0030
                0.0008 -0.0025
 5 H            0.0426  0.6861  0.3117  0.0317  0.0205  0.0249  0.0061  0.0010  0.0014 -0.0040
                0.0009  0.0005
 9 H           -0.0498  0.5710  0.3255  0.0493  0.0399  0.0426  0.0116  0.0029  0.0032 -0.0024
                0.0008 -0.0056
 10 H          -0.0278  0.6007  0.3258  0.0349  0.0419  0.0399  0.0051  0.0019  0.0018  0.0046
                0.0018 -0.0055
 3 Cl           0.5878  1.3675  1.7518  0.2142  0.7335  0.7423  0.7423  1.2625  1.2517  1.2518
                0.6308  1.0381  0.4016  0.2090  0.3069  0.3061  0.8535  1.1369  1.1397  0.2955
                0.5133  0.5109  0.0230  0.0036  0.0036 -0.0069  0.0013 -0.0076  0.0161  0.0099
                0.0107 -0.0066  0.0006 -0.0070 -0.0063 -0.0019 -0.0026 -0.0078
 7 N            0.5467  1.4321 -0.0259  1.0341  0.7682  0.1452  0.1688  0.1984  0.6633  0.7334
                0.8169  0.2167  0.2200  0.2060 -0.0035  0.0055  0.0131  0.0077  0.0144  0.0191
               -0.0049 -0.0028 -0.0044  0.0009  0.0008  0.0047 -0.0007 -0.0001  0.0044  0.0063
 8 N            0.5503  1.4303 -0.0321  0.9879  0.4328  0.1785  0.2000  0.1848  0.8348  0.8817
                0.8366  0.0287  0.2199  0.2187  0.0115  0.0121  0.0059 -0.0005  0.0069  0.0066
                0.0012  0.0037 -0.0008  0.0009  0.0003 -0.0013 -0.0030 -0.0023  0.0008  0.0039
 12 N           0.5466  1.4324 -0.0258  1.0281  0.7556  0.1500  0.1607  0.2073  0.6807  0.7084
                0.8329  0.2428  0.2251  0.2146 -0.0038  0.0042  0.0152  0.0045  0.0151  0.0211
               -0.0051 -0.0025 -0.0048  0.0001  0.0007  0.0059 -0.0021 -0.0015  0.0055  0.0082

 Gross Charges per Atom (Z minus electrons)
 ==========================================
             0.1948   -0.0628   -0.2700    0.4520   -0.1235    0.1457   -0.1848    0.0013    0.0110   -0.0250
             0.0814   -0.2202
 Net Total:  0.00000000


 Atom-Atom Population Matrix (off-diagonal elements not doubled)
 ===============================================================

     1 :     4.7682
     2 :    -0.0358    0.8301
     3 :     0.1813   -0.0326   17.2460
     4 :     0.3628    0.4071   -0.0283    4.1965
     5 :    -0.0441   -0.0473    0.0171    0.3353    0.9325
     6 :     0.4120    0.0015   -0.0342   -0.0545   -0.0032    4.7236
     7 :     0.0103   -0.0001   -0.0254   -0.0022   -0.0000    0.8569    6.3509
     8 :     0.2966   -0.0121   -0.0507   -0.0486   -0.0158   -0.0357   -0.0015    5.9637
     9 :    -0.0563   -0.0006   -0.0041   -0.0014   -0.0059   -0.0049   -0.0003    0.4673    0.6359
    10 :    -0.0548   -0.0036    0.0105   -0.0044    0.0003   -0.0126    0.0000    0.4318   -0.0410    0.6988
    11 :    -0.0284   -0.0396   -0.0085    0.3857   -0.0415    0.0050   -0.0027    0.0039    0.0003    0.0000
             4.7350
    12 :    -0.0064   -0.0042   -0.0010   -0.0001   -0.0040    0.0004   -0.0011   -0.0003   -0.0001   -0.0000
             0.9093    6.3278



 =================================================
 H I R S H F E L D   C H A R G E   A N A L Y S I S
 =================================================
  
 For each fragment: the (numerical) integral of rho(scf) * rho(fragment)/rho(sum-of-fragments)
 (nuclear charges are included, electrons are counted negative)

 The fragments and their ordering are defined in the early G E O M E T R Y output section.
 If you use single-atom fragments, this usually implies that all atoms of the same
 chemical type are grouped together. This may not be the order in which you listed them
 in the input file!

  Fragment                       Charge
 ------------------------------------------
    1  C                         0.1809
    2  C                        -0.0329
    3  C                         0.0624
    4  C                         0.0737
    5  H                         0.0701
    6  H                         0.0763
    7  H                         0.1119
    8  H                         0.1260
[...]
                                    9.32%     1 P:z            -5.239  0.67     3 C
                                    5.63%     1 P:z            -7.062  1.00    11 N
                                    3.42%     1 P:y            -5.239  0.67     1 C
                                    3.32%     1 P:z            -5.239  0.67     1 C
                                   -2.28%     2 P:y             7.649  0.00    10 N
                                    2.22%     2 P:y             4.589  0.00     1 C
                                    2.14%     1 P:y            -7.062  1.00    12 N
                                    2.06%     2 P:z             4.589  0.00     1 C
                                   -1.63%     3 S              14.073  0.00    11 N
                                    1.46%     2 S               2.394  0.00     8 H
                                    1.35%     1 S              -6.532  1.00     5 H
                                    1.31%     1 P:y            -5.239  0.67     2 C
                                   -1.30%     3 S              10.158  0.00     2 C
                                    1.27%     1 P:y            -5.239  0.67     4 C
                                    1.18%     1 D:z2           33.824  0.00     3 C
                                    1.03%     1 S              -6.532  1.00     8 H
      -1.358  0.00    36 A         22.39%     1 P:y            -7.062  1.00    12 N
                                   18.88%     1 P:y            -5.239  0.67     4 C
                                   10.29%     1 S              -6.532  1.00     6 H
                                    8.45%     1 P:y            -5.239  0.67     2 C
                                    8.28%     2 S               2.394  0.00     6 H
                                    8.23%     2 S               2.394  0.00     8 H
                                   -5.90%     3 S              10.158  0.00     1 C
                                    5.23%     1 P:z            -7.062  1.00    12 N
                                    5.03%     1 S              -6.532  1.00     8 H
                                    4.34%     1 P:z            -5.239  0.67     4 C
                                    3.04%     1 S              -6.532  1.00     5 H
                                    2.97%     2 S             -13.620  2.00     1 C
                                    2.50%     2 S               2.394  0.00     5 H
                                    2.40%     1 P:y            -5.239  0.67     1 C
                                   -2.19%     2 P:y             7.649  0.00    12 N
                                    1.64%     2 S               2.394  0.00     7 H
                                    1.40%     2 P:y             4.589  0.00     2 C
                                    1.13%     1 P:y            -7.062  1.00    11 N
                                   -1.01%     2 P:z             4.589  0.00     4 C
      -1.067  0.00    37 A         16.69%     1 P:x            -7.062  1.00    12 N
                                   15.83%     1 S              -6.532  1.00     6 H
                                   14.99%     1 P:x            -5.239  0.67     4 C
                                   12.67%     2 S               2.394  0.00     8 H
                                   11.56%     2 S               2.394  0.00     6 H
                                   10.26%     1 S              -6.532  1.00     8 H
                                   -8.36%     2 S               2.394  0.00     5 H
                                    6.53%     1 P:y            -5.239  0.67     4 C
                                    6.04%     1 P:y            -7.062  1.00    12 N
                                   -4.70%     2 P:x             4.589  0.00     2 C
                                    4.63%     1 S              -6.532  1.00     7 H
                                    3.60%     2 S               2.394  0.00     7 H
                                    2.46%     1 S              -6.532  1.00     5 H
                                    2.01%     1 P:y            -5.239  0.67     2 C
                                   -1.79%     3 S              10.158  0.00     2 C
                                    1.77%     2 S             -13.620  2.00     1 C
                                    1.69%     1 P:x            -5.239  0.67     2 C
                                   -1.68%     2 P:y             4.589  0.00     1 C
                                    1.58%     1 P:y            -5.239  0.67     1 C
                                    1.47%     2 P:x             4.589  0.00     1 C
                                    1.36%     2 S             -13.620  2.00     2 C
                                   -1.31%     2 P:x             7.649  0.00    12 N
                                   -1.29%     2 P:x             4.589  0.00     4 C
                                   -1.27%     2 P:z             4.589  0.00     1 C
      -1.008  0.00    38 A         21.87%     1 P:x            -5.239  0.67     4 C
                                   21.71%     1 P:x            -7.062  1.00    12 N
                                   20.63%     1 S              -6.532  1.00     8 H
                                   13.43%     2 S               2.394  0.00     8 H
                                    5.97%     1 S              -6.532  1.00     5 H
                                    4.96%     1 P:x            -5.239  0.67     3 C
                                   -3.86%     2 S               2.394  0.00     6 H
                                    3.28%     1 P:x            -7.062  1.00    10 N
                                    2.93%     2 S               2.394  0.00     5 H
                                    2.41%     1 P:y            -5.239  0.67     4 C
                                   -2.17%     2 P:x             7.649  0.00    12 N
                                    2.01%     1 P:z            -7.062  1.00    12 N
                                    2.01%     1 P:y            -7.062  1.00    12 N
                                   -1.56%     2 P:x             4.589  0.00     4 C
                                    1.52%     1 P:x            -5.239  0.67     2 C
                                    1.46%     1 P:z            -5.239  0.67     4 C
                                   -1.45%     2 P:y             4.589  0.00     1 C
                                   -1.27%     2 P:x             7.649  0.00    11 N
                                   -1.14%     2 P:y             7.649  0.00    11 N
                                    1.05%     1 P:x            -5.239  0.67     1 C
                                    1.02%     2 P:x             4.589  0.00     2 C
                                    1.01%     1 S              -6.532  1.00     6 H
      -0.485  0.00    39 A         38.57%     1 P:x            -5.239  0.67     3 C
                                   26.60%     1 P:x            -7.062  1.00    10 N
                                   14.26%     1 S              -6.532  1.00     7 H
                                   12.58%     1 S              -6.532  1.00     5 H
                                    8.05%     2 S               2.394  0.00     7 H
                                    7.70%     2 S               2.394  0.00     5 H
                                   -5.42%     2 P:x             4.589  0.00     2 C
                                   -3.92%     2 P:x             7.649  0.00    10 N
                                   -3.49%     2 P:x             7.649  0.00    11 N
                                   -3.46%     2 S               2.394  0.00     6 H
                                    3.16%     1 P:x            -5.239  0.67     1 C
                                   -2.92%     2 P:x             4.589  0.00     3 C
                                   -1.98%     2 S               2.394  0.00     8 H
                                    1.88%     1 S              -6.532  1.00     6 H
                                   -1.17%     4 S               5.292  0.00     9 Cl
      -0.164  0.00    40 A         37.16%     2 S               2.394  0.00     6 H
                                   28.26%     1 S              -6.532  1.00     6 H
                                   11.89%     2 S               2.394  0.00     5 H
                                  -10.60%     2 P:y             4.589  0.00     1 C
                                   10.53%     1 S              -6.532  1.00     8 H
                                    9.98%     1 S              -6.532  1.00     5 H
                                   -7.27%     2 P:z             4.589  0.00     2 C
                                    7.07%     2 S               2.394  0.00     8 H
                                    5.16%     1 S              -6.532  1.00     7 H
                                   -5.05%     2 P:y             4.589  0.00     2 C
                                    4.44%     2 S               2.394  0.00     7 H
                                    3.29%     2 P:y             4.589  0.00     3 C
                                   -3.23%     2 P:y             7.649  0.00    11 N
                                    2.79%     2 P:y             4.589  0.00     4 C
                                   -2.69%     1 P:y            -5.239  0.67     1 C
                                   -2.26%     3 S              10.158  0.00     4 C
                                    2.11%     1 P:z            -5.239  0.67     2 C
                                   -2.00%     3 S              10.158  0.00     2 C
                                    1.98%     1 P:y            -7.062  1.00    10 N
                                   -1.86%     2 S             -13.620  2.00     4 C
                                    1.78%     2 P:z             4.589  0.00     1 C
                                    1.69%     2 S             -13.620  2.00     3 C
                                    1.68%     1 P:y            -5.239  0.67     4 C
                                   -1.58%     2 P:z             4.589  0.00     4 C
                                   -1.50%     2 P:x             4.589  0.00     2 C
                                   -1.46%     2 P:z             7.649  0.00    11 N
                                    1.20%     1 P:x            11.051  0.00     6 H
                                    1.16%     1 P:x            -5.239  0.67     4 C
                                    1.06%     1 P:y            -5.239  0.67     3 C
                                    1.03%     2 S             -13.620  2.00     1 C



 =======================================================================
 Electrostatic potential at the Nuclei due to electrons and other nuclei
 =======================================================================
  
         Atom                  Potential
         ----                  ---------
     1)   C                  14.59394175
     2)   H                   1.02594401
     3)   Cl                 64.87491451
     4)   C                  14.68795784
     5)   H                   1.02412828
     6)   C                  14.71210549
     7)   N                  18.39037494
     8)   N                  18.35673756
     9)   H                   0.97695912
    10)   H                   0.98121501
    11)   C                  14.73741479
    12)   N                  18.41375948
 Mulliken charges used for AMS results%charges...


    =====================
     CALCULATION RESULTS
    =====================

Energy (hartree)            -2.61722884


--------------
Atomic charges
--------------
  Index   Atom    Charge
      1      C    0.1948
      2      H   -0.0628
      3     Cl   -0.2700
      4      C    0.4520
      5      H   -0.1235
      6      C    0.1457
      7      N   -0.1848
      8      N    0.0013
      9      H    0.0110
     10      H   -0.0250
     11      C    0.0814
     12      N   -0.2202


Dipole moment vector    (Debye):    -2.08301164   -1.03810504    5.71586804
              magnitude (Debye):     6.17152712


-----------------------
Molecular orbitals info
-----------------------
n orbitals:              260
n spin:                    1

Note: only printing virtual orbitals with
      energy smaller than HOMO + 100. eV

HOMO (eV):              -7.2777
LUMO (eV):              -5.5297
HOMO-LUMO gap (eV):      1.7479

   Index   Energy (eV)    Occupation
     168       92.4885         0.000       
     167       91.2230         0.000       
     166       90.3999         0.000       
     165       87.5430         0.000       
     164       87.1223         0.000       
     163       85.4171         0.000       
     162       83.4196         0.000       
     161       82.6119         0.000       
     160       82.0336         0.000       
     159       81.1003         0.000       
     158       79.3214         0.000       
     157       78.8353         0.000       
     156       77.6835         0.000       
     155       76.7238         0.000       
     154       75.8761         0.000       
     153       74.7030         0.000       
     152       72.6301         0.000       
     151       71.4677         0.000       
     150       71.3451         0.000       
     149       69.8612         0.000       
     148       69.5418         0.000       
     147       68.9801         0.000       
     146       68.1284         0.000       
     145       66.1506         0.000       
     144       65.7329         0.000       
     143       64.6842         0.000       
     142       63.7774         0.000       
     141       63.3108         0.000       
     140       62.8161         0.000       
     139       61.8300         0.000       
     138       60.6281         0.000       
     137       60.4588         0.000       
     136       59.2450         0.000       
     135       58.8439         0.000       
     134       57.9772         0.000       
     133       56.9754         0.000       
     132       55.7666         0.000       
     131       55.4856         0.000       
     130       54.7537         0.000       
     129       52.6024         0.000       
     128       50.1677         0.000       
     127       49.7619         0.000       
     126       49.1958         0.000       
     125       48.3902         0.000       
     124       47.0182         0.000       
     123       45.3571         0.000       
     122       44.7287         0.000       
     121       44.1992         0.000       
     120       43.5592         0.000       
     119       43.2353         0.000       
     118       42.4839         0.000       
     117       41.5984         0.000       
     116       40.6084         0.000       
     115       39.2060         0.000       
     114       39.0221         0.000       
     113       38.1085         0.000       
     112       37.9068         0.000       
     111       36.8221         0.000       
     110       36.5879         0.000       
     109       35.9036         0.000       
     108       35.2508         0.000       
     107       35.0344         0.000       
     106       34.9502         0.000       
     105       34.4083         0.000       
     104       33.8672         0.000       
     103       33.4515         0.000       
     102       32.9938         0.000       
     101       32.6000         0.000       
     100       32.3285         0.000       
      99       31.8938         0.000       
      98       31.3212         0.000       
      97       30.1052         0.000       
      96       29.8869         0.000       
      95       29.1513         0.000       
      94       28.7029         0.000       
      93       27.9351         0.000       
      92       27.3495         0.000       
      91       26.6996         0.000       
      90       26.5197         0.000       
      89       25.2280         0.000       
      88       24.5459         0.000       
      87       24.3693         0.000       
      86       23.9085         0.000       
      85       22.1435         0.000       
      84       21.2737         0.000       
      83       20.6055         0.000       
      82       18.9438         0.000       
      81       18.3715         0.000       
      80       17.5187         0.000       
      79       17.2983         0.000       
      78       17.2338         0.000       
      77       15.8956         0.000       
      76       15.4765         0.000       
      75       14.2278         0.000       
      74       13.9181         0.000       
      73       13.2792         0.000       
      72       12.8962         0.000       
      71       12.5760         0.000       
      70       11.7511         0.000       
      69       11.2459         0.000       
      68       11.0068         0.000       
      67       10.7090         0.000       
      66       10.3155         0.000       
      65       10.2010         0.000       
      64       10.0276         0.000       
      63        9.4117         0.000       
      62        9.0623         0.000       
      61        8.4336         0.000       
      60        8.0519         0.000       
      59        7.7836         0.000       
      58        7.4694         0.000       
      57        7.1357         0.000       
      56        6.5854         0.000       
      55        6.3315         0.000       
      54        5.9625         0.000       
      53        5.7322         0.000       
      52        5.4019         0.000       
      51        5.3871         0.000       
      50        4.8629         0.000       
      49        4.5144         0.000       
      48        4.1941         0.000       
      47        3.6472         0.000       
      46        3.2313         0.000       
      45        2.7209         0.000       
      44        2.1754         0.000       
      43        1.1820         0.000       
      42        1.0498         0.000       
      41        0.7882         0.000       
      40       -0.1643         0.000       
      39       -0.4845         0.000       
      38       -1.0078         0.000       
      37       -1.0672         0.000       
      36       -1.3577         0.000       
      35       -1.9217         0.000       
      34       -5.5297         0.000 < LUMO
      33       -7.2777         2.000 < HOMO
      32       -7.3980         2.000       
      31       -7.7802         2.000       
      30       -8.0484         2.000       
      29       -8.6526         2.000       
      28       -8.7342         2.000       
      27       -9.1107         2.000       
      26       -9.3041         2.000       
      25       -9.7582         2.000       
      24      -10.2069         2.000       
      23      -12.6850         2.000       
      22      -12.8895         2.000       
      21      -13.0515         2.000       
      20      -14.1928         2.000       
      19      -15.3819         2.000       
      18      -18.3434         2.000       
      17      -19.6219         2.000       
      16      -21.1224         2.000       
      15      -22.9505         2.000       
      14      -23.3305         2.000       
      13      -24.7184         2.000       
      12     -189.9465         2.000       
      11     -189.9517         2.000       
      10     -190.2089         2.000       
       9     -250.9791         2.000       
       8     -271.7264         2.000       
       7     -272.3887         2.000       
       6     -272.6649         2.000       
       5     -275.3189         2.000       
       4     -382.2223         2.000       
       3     -382.8853         2.000       
       2     -383.1897         2.000       
       1    -2750.2531         2.000       

AMS application finished. Exiting.
NORMAL TERMINATION
     Total cpu time:      38.67
  Total system time:       0.34
 Total elapsed time:      39.16
NORMAL TERMINATION
