
 *******************************************************************************
 *                                                                             *
 *  --------------------------------                                           *
 *   Amsterdam Modeling Suite (AMS)              2026.103                      *
 *  --------------------------------                                           *
 *                                               r260501 2026-05-01 873454b5   *
 *                                                                             *
 *                                                                             *
 *                              =================                              *
 *                              |               |                              *
 *                              |     A M S     |                              *
 *                              |               |                              *
 *                              =================                              *
 *                                                                             *
 *                                                                             *
 *   Online information and documentation:  https://www.scm.com/support/       *
 *   E-mail:  support@scm.com   info@scm.com                                   *
 *                                                                             *
 *   Scientific publications using AMS results must be properly referenced     *
 *   See the User Manuals (or the web site) for recommended citations          *
 *   The terms and conditions of the End User License Agreement apply to       *
 *   the use of AMS, https://www.scm.com/license-terms/                        *
 *                                                                             *
 **********************  x86_64_linux_intel / intelmpi  ************************
 
 Licensed to: Jong-June Jeon / University of Seoul 2026-06-02 13:44:15
 SCM User ID: u30731
  
 AMS 2026.103  RunTime: Jun03-2026 23:45:48  ShM Nodes: 1  Procs: 1

 AMS jobname: c3_eda
 AMS jobid  : 412941419

 Start   directory: /gpfs/home1/yeseo1ee/projects/eda-asm-prediction/ADF_800/adf_outputs/batch_007/qmrxn20_sn2_C_E_A_C_C_C/
 Results directory: /gpfs/home1/yeseo1ee/projects/eda-asm-prediction/ADF_800/adf_outputs/batch_007/qmrxn20_sn2_C_E_A_C_C_C/c3_eda.results/
 Scratch directory: /tmp/amstmp_c3_eda_kid0.412941419/

 RNG seed: 724043020 -352281944 -917863232 2136858780 2133481556 1016672401 -2006766788 -142512515



                      ************************************************************************
                      *  ADF 2026.103  RunTime: Jun03-2026 23:45:49  ShM Nodes: 1  Procs: 1  *
                      ************************************************************************
  

       ****************************
       * SINGLE POINT CALCULATION *
       ****************************

--------
Geometry
--------
Formula: C4H4BrClN3
Atoms
  Index Symbol   x (angstrom)   y (angstrom)   z (angstrom)
      1     Br    -1.88521231    -0.32189798     0.21573014 adf.f=fA
      2      C     0.62317698    -0.07163383     0.00535505 adf.f=fB
      3      H     1.45525913     1.82452027     0.51394287 adf.f=fB
      4     Cl     2.96945370     0.03975567    -0.46116381 adf.f=fB
      5      C     0.54458254     1.45158032     0.04696107 adf.f=fB
      6      H    -0.30404293     1.74024238     0.66584499 adf.f=fB
      7      C     0.50639753    -0.81473732    -1.22805287 adf.f=fB
      8      N     0.42650304    -1.46763057    -2.20689259 adf.f=fB
      9      N     0.84166412    -0.71043727     1.26975188 adf.f=fB
     10      H     1.75768568    -1.13937416     1.25807007 adf.f=fB
     11      H     0.12456116    -1.40772998     1.41503260 adf.f=fB
     12      C     0.40070070     2.06806717    -1.26638930 adf.f=fB
     13      N     0.26814066     2.60544531    -2.30141008 adf.f=fB

Total System Charge             -1.00000


----------------
ADF Engine Input
----------------
 
   Basis
     Type TZ2P
     Core None
   End
   XC
     GGA BLYP
     Dispersion GRIMME3 BJDAMP
   End
   Symmetry NOSYM
   NumericalQuality Normal
   Unrestricted No
   SCF
     Iterations 200
     Converge 1.0e-6
   End
   fragments
     fA c1_fragA_ts.results/adf.rkf
     fB c2_fragB_ts.results/adf.rkf
   end
   etsnocv
     enocv 0.05
     ekmin 0.5
   end
   print etslowdin
   Save TAPE21
 

 Title: *** (NO TITLE) ***

 *** adf ***



 ===========================
 A T T A C H E D   F I L E S
 ===========================
  



 ===============================
 M O D E L   P A R A M E T E R S
 ===============================
  
 DENSITY FUNCTIONAL POTENTIAL (scf)
    LDA:                               Exchange only                           == Not Default ==
    Gradient Corrections:              Becke88 LYP                             == Not Default ==

 SPIN  (restricted / unrestr.)
    Molecule:                          Restricted                               
    Fragments:                         Restricted                               

 OTHER ASPECTS
    Relativistic Corrections:          scalar (ZORA,MAPA)                       

    Nuclear Charge Density Model:      Point Charge Nuclei                      
    Core Treatment:                    Frozen Orbital(s)                        

    Hyperfine or Zeeman Interaction:   ---                                      

 Settings for Grimme D3 dispersion correction

      damping                        BJ
      s6                          1.000
      s8                          2.700
      a1                          0.430
      a2                          4.236

 Other (technical) parameters

      alpha                      14.000
      version                         4
 


 Fragment File(s)
 ----------------
 fA:
         file : c1_fragA_ts.results/adf.rkf
         jobid: 1580766264
         title: *** adf ***
 fB:
         file : c2_fragB_ts.results/adf.rkf
         jobid: 1487936211
         title: *** adf ***



 ===============
 G E O M E T R Y  ***  3D  Molecule  ***
 ===============
  

 ATOMS
 =====                            X Y Z                    CHARGE
                                (Angstrom)             Nucl     +Core       At.Mass
                       --------------------------    ----------------       -------
    1  Br             -1.8852   -0.3219    0.2157     35.00     35.00       78.9183
    2  C               0.6232   -0.0716    0.0054      6.00      6.00       12.0000
    3  H               1.4553    1.8245    0.5139      1.00      1.00        1.0078
    4  Cl              2.9695    0.0398   -0.4612     17.00     17.00       34.9689
    5  C               0.5446    1.4516    0.0470      6.00      6.00       12.0000
    6  H              -0.3040    1.7402    0.6658      1.00      1.00        1.0078
    7  C               0.5064   -0.8147   -1.2281      6.00      6.00       12.0000
    8  N               0.4265   -1.4676   -2.2069      7.00      7.00       14.0031
    9  N               0.8417   -0.7104    1.2698      7.00      7.00       14.0031
   10  H               1.7577   -1.1394    1.2581      1.00      1.00        1.0078
   11  H               0.1246   -1.4077    1.4150      1.00      1.00        1.0078
   12  C               0.4007    2.0681   -1.2664      6.00      6.00       12.0000
   13  N               0.2681    2.6054   -2.3014      7.00      7.00       14.0031


 FRAGMENTS
 =========                                     Atoms in this Fragment     Cart. coord.s (Angstrom)
                                               -------------------------------------------------------
    1  fA                                                1  Br          -1.8852   -0.3219    0.2157
    2  fB                                                2  C            0.6232   -0.0716    0.0054
                                                         5  C            0.5446    1.4516    0.0470
                                                         7  C            0.5064   -0.8147   -1.2281
                                                        12  C            0.4007    2.0681   -1.2664
                                                         3  H            1.4553    1.8245    0.5139
                                                         6  H           -0.3040    1.7402    0.6658
                                                        10  H            1.7577   -1.1394    1.2581
                                                        11  H            0.1246   -1.4077    1.4150
                                                         4  Cl           2.9695    0.0398   -0.4612
                                                         8  N            0.4265   -1.4676   -2.2069
                                                         9  N            0.8417   -0.7104    1.2698
                                                        13  N            0.2681    2.6054   -2.3014


 Interatomic Distance Matrix (Angstrom)
 --------------------------------------

   1)     0.000
   2)     2.530   0.000
   3)     3.982   2.132   0.000
   4)     4.915   2.395   2.536   0.000
   5)     3.013   1.526   1.089   2.852   0.000
   6)     2.637   2.140   1.768   3.857   1.089   0.000
   7)     2.837   1.445   3.302   2.718   2.601   3.282   0.000
   8)     3.539   2.623   4.393   3.433   3.690   4.368   1.179   0.000
   9)     2.949   1.433   2.715   2.844   2.502   2.772   2.522   3.582   0.000
  10)     3.876   1.999   3.071   2.411   3.107   3.591   2.802   3.726   1.012   0.000
  11)     2.580   2.005   3.610   3.703   3.197   3.264   2.736   3.635   1.011   1.662
          0.000
  12)     3.624   2.499   2.084   3.371   1.458   2.083   2.885   3.659   3.788   4.301
          4.399   0.000
  13)     4.421   3.552   3.154   4.155   2.631   3.143   3.593   4.077   4.907   5.377
          5.472   1.174   0.000

 Min. Distance =    1.0107
 Max. Distance =    5.4716



 =====================================
 S Y M M E T R Y ,   E L E C T R O N S
 =====================================
  
 Symmetry: NOSYM

 Irreducible Representations, including subspecies
 -------------------------------------------------
 A


 Configuration of Valence Electrons
 ==================================
 ( determined in the SCF procedure )

 Total:   102

 Net Charge: -1 (Nuclei minus Electrons)

 Aufbau principle for MO occupations will be applied through SCF cycle no.     100
 Thereafter, the program will assign electrons to MOs that are spatially
 similar to the occupied MOs in a "reference" cycle ("KeepOrbitals").
 The reference cycle is always the PREVIOUS cycle: it will evolve with
 the SCF procedure.
 ***************************************************************************************************



                                      ****************************************
                                      *  B U I L D : (Fragments, Functions)  *
                                      ****************************************
  

 The individual fragments are copies of the corresponding 'Master' fragments defined on the fragment files.
 However, they may have been rotated (and translated) with respect to the Master. The local coordinate axes
 of each fragment (which define for instance the spatial orientation in the current molecule of a fragment
 P:x orbital) are not necessarily those of the molecule.
 The local frame (if different from the molecular one) is printed to enable an interpretation of the expan-
 sion of an MO in Fragment Orbitals.



                                              ************************
                                              *  Fragment Type : fA  *
                                              ************************
  

 Fragment no.    1   (in the list of all fragments)
 -----------------
 The local coordinate frame is identical to the molecular frame.

 Check Atomic Coordinates:

                  Master (on file)          After Computed Tranformation               As specified on Input
           ----------------------------     ----------------------------     ---------------------------------
     1)    -1.88521  -0.32190   0.21573     -1.88521  -0.32190   0.21573       1  -1.88521  -0.32190   0.21573



                                              ************************
                                              *  Fragment Type : fB  *
                                              ************************
  

 Fragment no.    2   (in the list of all fragments)
 -----------------
 The local coordinate frame is identical to the molecular frame.

 Check Atomic Coordinates:

                  Master (on file)          After Computed Tranformation               As specified on Input
           ----------------------------     ----------------------------     ---------------------------------
     1)     0.62318  -0.07163   0.00536      0.62318  -0.07163   0.00536       2   0.62318  -0.07163   0.00536
     2)     0.54458   1.45158   0.04696      0.54458   1.45158   0.04696       5   0.54458   1.45158   0.04696
     3)     0.50640  -0.81474  -1.22805      0.50640  -0.81474  -1.22805       7   0.50640  -0.81474  -1.22805
     4)     0.40070   2.06807  -1.26639      0.40070   2.06807  -1.26639      12   0.40070   2.06807  -1.26639
     5)     1.45526   1.82452   0.51394      1.45526   1.82452   0.51394       3   1.45526   1.82452   0.51394
     6)    -0.30404   1.74024   0.66584     -0.30404   1.74024   0.66584       6  -0.30404   1.74024   0.66584
     7)     1.75769  -1.13937   1.25807      1.75769  -1.13937   1.25807      10   1.75769  -1.13937   1.25807
     8)     0.12456  -1.40773   1.41503      0.12456  -1.40773   1.41503      11   0.12456  -1.40773   1.41503
     9)     2.96945   0.03976  -0.46116      2.96945   0.03976  -0.46116       4   2.96945   0.03976  -0.46116
    10)     0.42650  -1.46763  -2.20689      0.42650  -1.46763  -2.20689       8   0.42650  -1.46763  -2.20689
    11)     0.84166  -0.71044   1.26975      0.84166  -0.71044   1.26975       9   0.84166  -0.71044   1.26975
    12)     0.26814   2.60545  -2.30141      0.26814   2.60545  -2.30141      13   0.26814   2.60545  -2.30141



 =======
 S F O s  ***  (Symmetrized Fragment Orbitals)  ***
 =======
  
 SFOs are linear combinations of (valence) Fragment Orbitals (FOs), such that the SFOs transform as the
 irreducible representations of the (molecular) symmetry group. Each SFO is therefore characterized by
 an irrep of the molecule and by a few (or only one) generating FOs.
 The SFOs constitute a symmetry-adapted basis for the Fock matrix. The MO eigenvector coefficients in
 this basis provide a direct interpretation of the MOs in terms of Frontier Orbital Theory.

 The SFOs are combined with auxiliary Core Functions (CFs) to ensure orthogonalization on the (frozen)
 Core Orbitals (COs). The Core-orthogonalized SFOs (CSFOs) constitute the true Fock basis.

 The FOs, and hence also the (C)SFOs are combinations of the elementary basis functions (BAS). The basis
 functions that participate in the description of the SFOs depend on the irrep. The indices of the
 involved functions are printed below for each irrep.
 (The complete list of primitive basis functions is printed in another section)

 Total nr. of (C)SFOs (summation over all irreps) :   316

 NOTE: a (C)SFO that is defined as a combination of more than one FO is usually NOT normalized.



                                       === A ===
 Nr. of SFOs :  316
 Cartesian basis functions that participate in this irrep (total number =   359) :
      1     2     3    10    11    36    37    38     4     7
     12    15    39    42    45     5     8    13    16    40
     43    46     6     9    14    17    41    44    47    18
     24    30    48    19    25    31    49    20    26    32
     50    21    27    33    51    22    28    34    52    23
     29    35    53    54    55    56    57    58    59    60
     61    62    63    64    65    66    67    68    69    72
     75    70    73    76    71    74    77    78    79    80
     81    82    83    84    85    86    87    88    89    90
     91    92    93    94    95    96    97    98    99   102
    105   100   103   106   101   104   107   108   109   110
    111   112   113   114   115   116   117   118   119   120
    121   122   123   124   125   126   127   128   129   132
    135   130   133   136   131   134   137   138   139   140
    141   142   143   144   145   146   147   148   149   150
    151   152   153   154   155   156   157   158   159   162
    165   160   163   166   161   164   167   168   169   170
    171   172   173   174   175   176   177   178   179   180
    181   182   183   184   185   186   187   188   189   190
    191   192   193   194   195   196   197   198   199   200
    201   202   203   204   205   206   207   208   209   210
    211   212   213   214   215   216   217   218   219   220
    221   222   223   224   225   226   227   228   229   230
    231   232   233   234   235   242   243   244   236   239
    245   248   251   237   240   246   249   252   238   241
    247   250   253   254   255   256   257   258   259   260
    261   262   263   264   265   266   267   268   269   270
    271   272   273   274   275   278   281   276   279   282
    277   280   283   284   285   286   287   288   289   290
    291   292   293   294   295   296   297   298   299   300
    301   302   303   304   305   308   311   306   309   312
    307   310   313   314   315   316   317   318   319   320
    321   322   323   324   325   326   327   328   329   330
    331   332   333   334   335   338   341   336   339   342
    337   340   343   344   345   346   347   348   349   350
    351   352   353   354   355   356   357   358   359

    SFO  (index         Fragment          Generating    Expansion in Fragment Orbitals
  indx  incl.CFs)   Occup   Orb.Energy   FragmentType  Coeff.   Orbital     on Fragment
 --------------------------------------------------------------------------------------
     1       1      2.000    -488.318 au  fA            1.00      1 A               1
                        (  -13287.798 eV)
     2       2      2.000     -63.253 au  fA            1.00      2 A               1
                        (   -1721.191 eV)
     3       3      2.000     -55.790 au  fA            1.00      3 A               1
                        (   -1518.110 eV)
     4       4      2.000     -55.790 au  fA            1.00      4 A               1
                        (   -1518.110 eV)
     5       5      2.000     -55.790 au  fA            1.00      5 A               1
                        (   -1518.110 eV)
     6       6      2.000      -8.371 au  fA            1.00      6 A               1
                        (    -227.798 eV)
     7       7      2.000      -6.028 au  fA            1.00      7 A               1
                        (    -164.026 eV)
     8       8      2.000      -6.028 au  fA            1.00      8 A               1
                        (    -164.026 eV)
     9       9      2.000      -6.028 au  fA            1.00      9 A               1
                        (    -164.026 eV)
    10      10      2.000      -2.113 au  fA            1.00     10 A               1
                        (     -57.501 eV)
    11      11      2.000      -2.113 au  fA            1.00     11 A               1
                        (     -57.501 eV)
    12      12      2.000      -2.113 au  fA            1.00     12 A               1
                        (     -57.501 eV)
    13      13      2.000      -2.113 au  fA            1.00     13 A               1
                        (     -57.501 eV)
    14      14      2.000      -2.113 au  fA            1.00     14 A               1
                        (     -57.501 eV)
    15      15      2.000      -0.411 au  fA            1.00     15 A               1
                        (     -11.197 eV)
    16      16      2.000       0.018 au  fA            1.00     16 A               1
                        (       0.483 eV)
    17      17      2.000       0.018 au  fA            1.00     17 A               1
                        (       0.483 eV)
    18      18      2.000       0.018 au  fA            1.00     18 A               1
                        (       0.483 eV)
    19      19       --         0.352 au  fA            1.00     19 A               1
                        (       9.586 eV)
    20      20       --         0.352 au  fA            1.00     20 A               1
                        (       9.586 eV)
    21      21       --         0.352 au  fA            1.00     21 A               1
                        (       9.586 eV)
    22      22       --         0.486 au  fA            1.00     22 A               1
                        (      13.238 eV)
    23      23       --         0.558 au  fA            1.00     23 A               1
                        (      15.187 eV)
    24      24       --         0.558 au  fA            1.00     24 A               1
                        (      15.187 eV)
    25      25       --         0.558 au  fA            1.00     25 A               1
                        (      15.187 eV)
    26      26       --         0.558 au  fA            1.00     26 A               1
                        (      15.187 eV)
    27      27       --         0.558 au  fA            1.00     27 A               1
                        (      15.187 eV)
    28      28       --         1.147 au  fA            1.00     28 A               1
                        (      31.199 eV)
    29      29       --         1.147 au  fA            1.00     29 A               1
                        (      31.199 eV)
    30      30       --         1.147 au  fA            1.00     30 A               1
                        (      31.199 eV)
    31      31       --         1.147 au  fA            1.00     31 A               1
                        (      31.199 eV)
    32      32       --         1.147 au  fA            1.00     32 A               1
                        (      31.199 eV)
    33      33       --         1.147 au  fA            1.00     33 A               1
                        (      31.199 eV)
    34      34       --         1.147 au  fA            1.00     34 A               1
                        (      31.199 eV)
    35      35       --         1.498 au  fA            1.00     35 A               1
                        (      40.750 eV)
    36      36       --         1.498 au  fA            1.00     36 A               1
                        (      40.750 eV)
    37      37       --         1.498 au  fA            1.00     37 A               1
                        (      40.750 eV)
    38      38       --         2.724 au  fA            1.00     38 A               1
                        (      74.134 eV)
    39      39       --         3.031 au  fA            1.00     39 A               1
                        (      82.480 eV)
    40      40       --         3.031 au  fA            1.00     40 A               1
                        (      82.480 eV)
    41      41       --         3.031 au  fA            1.00     41 A               1
                        (      82.480 eV)
    42      42       --         3.031 au  fA            1.00     42 A               1
                        (      82.480 eV)
    43      43       --         3.031 au  fA            1.00     43 A               1
                        (      82.480 eV)
    44      44       --         9.061 au  fA            1.00     44 A               1
                        (     246.549 eV)
    45      45       --         9.061 au  fA            1.00     45 A               1
                        (     246.549 eV)
    46      46       --         9.061 au  fA            1.00     46 A               1
                        (     246.549 eV)
    47      47       --        13.874 au  fA            1.00     47 A               1
                        (     377.522 eV)
    48      48       --        20.860 au  fA            1.00     48 A               1
                        (     567.625 eV)
    49      49       --        20.860 au  fA            1.00     49 A               1
                        (     567.625 eV)
    50      50       --        20.860 au  fA            1.00     50 A               1
                        (     567.625 eV)
    51      51       --        20.860 au  fA            1.00     51 A               1
                        (     567.625 eV)
    52      52       --        20.860 au  fA            1.00     52 A               1
                        (     567.625 eV)
    53      53       --        95.950 au  fA            1.00     53 A               1
                        (    2610.937 eV)
    54      54       --        95.950 au  fA            1.00     54 A               1
                        (    2610.937 eV)
    55      55       --        95.950 au  fA            1.00     55 A               1
                        (    2610.937 eV)
    56      56       --       615.512 au  fA            1.00     56 A               1
                        (   16748.929 eV)
    57      57      2.000    -101.070 au  fB            1.00      1 A               2
                        (   -2750.253 eV)
    58      58      2.000     -14.082 au  fB            1.00      2 A               2
                        (    -383.190 eV)
    59      59      2.000     -14.071 au  fB            1.00      3 A               2
                        (    -382.885 eV)
    60      60      2.000     -14.046 au  fB            1.00      4 A               2
                        (    -382.222 eV)
    61      61      2.000     -10.118 au  fB            1.00      5 A               2
                        (    -275.319 eV)
    62      62      2.000     -10.020 au  fB            1.00      6 A               2
                        (    -272.665 eV)
    63      63      2.000     -10.010 au  fB            1.00      7 A               2
                        (    -272.389 eV)
    64      64      2.000      -9.986 au  fB            1.00      8 A               2
                        (    -271.726 eV)
    65      65      2.000      -9.223 au  fB            1.00      9 A               2
                        (    -250.979 eV)
    66      66      2.000      -6.990 au  fB            1.00     10 A               2
                        (    -190.209 eV)
    67      67      2.000      -6.981 au  fB            1.00     11 A               2
                        (    -189.952 eV)
    68      68      2.000      -6.980 au  fB            1.00     12 A               2
                        (    -189.947 eV)
    69      69      2.000      -0.908 au  fB            1.00     13 A               2
                        (     -24.718 eV)
    70      70      2.000      -0.857 au  fB            1.00     14 A               2
                        (     -23.331 eV)
    71      71      2.000      -0.843 au  fB            1.00     15 A               2
                        (     -22.951 eV)
    72      72      2.000      -0.776 au  fB            1.00     16 A               2
                        (     -21.122 eV)
    73      73      2.000      -0.721 au  fB            1.00     17 A               2
                        (     -19.622 eV)
    74      74      2.000      -0.674 au  fB            1.00     18 A               2
                        (     -18.343 eV)
    75      75      2.000      -0.565 au  fB            1.00     19 A               2
                        (     -15.382 eV)
    76      76      2.000      -0.522 au  fB            1.00     20 A               2
                        (     -14.193 eV)
    77      77      2.000      -0.480 au  fB            1.00     21 A               2
                        (     -13.052 eV)
    78      78      2.000      -0.474 au  fB            1.00     22 A               2
                        (     -12.890 eV)
    79      79      2.000      -0.466 au  fB            1.00     23 A               2
                        (     -12.685 eV)
    80      80      2.000      -0.375 au  fB            1.00     24 A               2
                        (     -10.207 eV)
    81      81      2.000      -0.359 au  fB            1.00     25 A               2
                        (      -9.758 eV)
    82      82      2.000      -0.342 au  fB            1.00     26 A               2
                        (      -9.304 eV)
    83      83      2.000      -0.335 au  fB            1.00     27 A               2
                        (      -9.111 eV)
    84      84      2.000      -0.321 au  fB            1.00     28 A               2
                        (      -8.734 eV)
    85      85      2.000      -0.318 au  fB            1.00     29 A               2
                        (      -8.653 eV)
    86      86      2.000      -0.296 au  fB            1.00     30 A               2
                        (      -8.048 eV)
    87      87      2.000      -0.286 au  fB            1.00     31 A               2
                        (      -7.780 eV)
    88      88      2.000      -0.272 au  fB            1.00     32 A               2
                        (      -7.398 eV)
    89      89      2.000      -0.267 au  fB            1.00     33 A               2
                        (      -7.278 eV)
    90      90       --        -0.203 au  fB            1.00     34 A               2
                        (      -5.530 eV)
    91      91       --        -0.071 au  fB            1.00     35 A               2
                        (      -1.922 eV)
    92      92       --        -0.050 au  fB            1.00     36 A               2
                        (      -1.358 eV)
    93      93       --        -0.039 au  fB            1.00     37 A               2
                        (      -1.067 eV)
    94      94       --        -0.037 au  fB            1.00     38 A               2
                        (      -1.008 eV)
    95      95       --        -0.018 au  fB            1.00     39 A               2
                        (      -0.485 eV)
    96      96       --        -0.006 au  fB            1.00     40 A               2
                        (      -0.164 eV)
    97      97       --         0.029 au  fB            1.00     41 A               2
                        (       0.788 eV)
    98      98       --         0.039 au  fB            1.00     42 A               2
                        (       1.050 eV)
    99      99       --         0.043 au  fB            1.00     43 A               2
                        (       1.182 eV)
   100     100       --         0.080 au  fB            1.00     44 A               2
                        (       2.175 eV)
   101     101       --         0.100 au  fB            1.00     45 A               2
                        (       2.721 eV)
   102     102       --         0.119 au  fB            1.00     46 A               2
                        (       3.231 eV)
   103     103       --         0.134 au  fB            1.00     47 A               2
                        (       3.647 eV)
   104     104       --         0.154 au  fB            1.00     48 A               2
                        (       4.194 eV)
   105     105       --         0.166 au  fB            1.00     49 A               2
                        (       4.514 eV)
   106     106       --         0.179 au  fB            1.00     50 A               2
                        (       4.863 eV)
   107     107       --         0.198 au  fB            1.00     51 A               2
                        (       5.387 eV)
   108     108       --         0.199 au  fB            1.00     52 A               2
                        (       5.402 eV)
   109     109       --         0.211 au  fB            1.00     53 A               2
                        (       5.732 eV)
   110     110       --         0.219 au  fB            1.00     54 A               2
                        (       5.963 eV)
   111     111       --         0.233 au  fB            1.00     55 A               2
                        (       6.332 eV)
   112     112       --         0.242 au  fB            1.00     56 A               2
                        (       6.585 eV)
   113     113       --         0.262 au  fB            1.00     57 A               2
                        (       7.136 eV)
   114     114       --         0.274 au  fB            1.00     58 A               2
                        (       7.469 eV)
   115     115       --         0.286 au  fB            1.00     59 A               2
                        (       7.784 eV)
   116     116       --         0.296 au  fB            1.00     60 A               2
                        (       8.052 eV)
   117     117       --         0.310 au  fB            1.00     61 A               2
                        (       8.434 eV)
   118     118       --         0.333 au  fB            1.00     62 A               2
                        (       9.062 eV)
   119     119       --         0.346 au  fB            1.00     63 A               2
                        (       9.412 eV)
   120     120       --         0.369 au  fB            1.00     64 A               2
                        (      10.028 eV)
   121     121       --         0.375 au  fB            1.00     65 A               2
                        (      10.201 eV)
   122     122       --         0.379 au  fB            1.00     66 A               2
                        (      10.315 eV)
   123     123       --         0.394 au  fB            1.00     67 A               2
                        (      10.709 eV)
   124     124       --         0.404 au  fB            1.00     68 A               2
                        (      11.007 eV)
   125     125       --         0.413 au  fB            1.00     69 A               2
                        (      11.246 eV)
   126     126       --         0.432 au  fB            1.00     70 A               2
                        (      11.751 eV)
   127     127       --         0.462 au  fB            1.00     71 A               2
                        (      12.576 eV)
   128     128       --         0.474 au  fB            1.00     72 A               2
                        (      12.896 eV)
   129     129       --         0.488 au  fB            1.00     73 A               2
                        (      13.279 eV)
   130     130       --         0.511 au  fB            1.00     74 A               2
                        (      13.918 eV)
   131     131       --         0.523 au  fB            1.00     75 A               2
                        (      14.228 eV)
   132     132       --         0.569 au  fB            1.00     76 A               2
                        (      15.476 eV)
   133     133       --         0.584 au  fB            1.00     77 A               2
                        (      15.896 eV)
   134     134       --         0.633 au  fB            1.00     78 A               2
                        (      17.234 eV)
   135     135       --         0.636 au  fB            1.00     79 A               2
                        (      17.298 eV)
   136     136       --         0.644 au  fB            1.00     80 A               2
                        (      17.519 eV)
   137     137       --         0.675 au  fB            1.00     81 A               2
                        (      18.372 eV)
   138     138       --         0.696 au  fB            1.00     82 A               2
                        (      18.944 eV)
   139     139       --         0.757 au  fB            1.00     83 A               2
                        (      20.605 eV)
   140     140       --         0.782 au  fB            1.00     84 A               2
                        (      21.274 eV)
   141     141       --         0.814 au  fB            1.00     85 A               2
                        (      22.144 eV)
   142     142       --         0.879 au  fB            1.00     86 A               2
                        (      23.909 eV)
   143     143       --         0.896 au  fB            1.00     87 A               2
                        (      24.369 eV)
   144     144       --         0.902 au  fB            1.00     88 A               2
                        (      24.546 eV)
   145     145       --         0.927 au  fB            1.00     89 A               2
                        (      25.228 eV)
   146     146       --         0.975 au  fB            1.00     90 A               2
                        (      26.520 eV)
   147     147       --         0.981 au  fB            1.00     91 A               2
                        (      26.700 eV)
   148     148       --         1.005 au  fB            1.00     92 A               2
                        (      27.350 eV)
   149     149       --         1.027 au  fB            1.00     93 A               2
                        (      27.935 eV)
   150     150       --         1.055 au  fB            1.00     94 A               2
                        (      28.703 eV)
   151     151       --         1.071 au  fB            1.00     95 A               2
                        (      29.151 eV)
   152     152       --         1.098 au  fB            1.00     96 A               2
                        (      29.887 eV)
   153     153       --         1.106 au  fB            1.00     97 A               2
                        (      30.105 eV)
   154     154       --         1.151 au  fB            1.00     98 A               2
                        (      31.321 eV)
   155     155       --         1.172 au  fB            1.00     99 A               2
                        (      31.894 eV)
   156     156       --         1.188 au  fB            1.00    100 A               2
                        (      32.329 eV)
   157     157       --         1.198 au  fB            1.00    101 A               2
                        (      32.600 eV)
   158     158       --         1.213 au  fB            1.00    102 A               2
                        (      32.994 eV)
   159     159       --         1.229 au  fB            1.00    103 A               2
                        (      33.452 eV)
   160     160       --         1.245 au  fB            1.00    104 A               2
                        (      33.867 eV)
   161     161       --         1.264 au  fB            1.00    105 A               2
                        (      34.408 eV)
   162     162       --         1.284 au  fB            1.00    106 A               2
                        (      34.950 eV)
   163     163       --         1.287 au  fB            1.00    107 A               2
                        (      35.034 eV)
   164     164       --         1.295 au  fB            1.00    108 A               2
                        (      35.251 eV)
   165     165       --         1.319 au  fB            1.00    109 A               2
                        (      35.904 eV)
   166     166       --         1.345 au  fB            1.00    110 A               2
                        (      36.588 eV)
   167     167       --         1.353 au  fB            1.00    111 A               2
                        (      36.822 eV)
   168     168       --         1.393 au  fB            1.00    112 A               2
                        (      37.907 eV)
   169     169       --         1.400 au  fB            1.00    113 A               2
                        (      38.109 eV)
   170     170       --         1.434 au  fB            1.00    114 A               2
                        (      39.022 eV)
   171     171       --         1.441 au  fB            1.00    115 A               2
                        (      39.206 eV)
   172     172       --         1.492 au  fB            1.00    116 A               2
                        (      40.608 eV)
   173     173       --         1.529 au  fB            1.00    117 A               2
                        (      41.598 eV)
   174     174       --         1.561 au  fB            1.00    118 A               2
                        (      42.484 eV)
   175     175       --         1.589 au  fB            1.00    119 A               2
                        (      43.235 eV)
   176     176       --         1.601 au  fB            1.00    120 A               2
                        (      43.559 eV)
   177     177       --         1.624 au  fB            1.00    121 A               2
                        (      44.199 eV)
   178     178       --         1.644 au  fB            1.00    122 A               2
                        (      44.729 eV)
   179     179       --         1.667 au  fB            1.00    123 A               2
                        (      45.357 eV)
   180     180       --         1.728 au  fB            1.00    124 A               2
                        (      47.018 eV)
   181     181       --         1.778 au  fB            1.00    125 A               2
                        (      48.390 eV)
   182     182       --         1.808 au  fB            1.00    126 A               2
                        (      49.196 eV)
   183     183       --         1.829 au  fB            1.00    127 A               2
                        (      49.762 eV)
   184     184       --         1.844 au  fB            1.00    128 A               2
                        (      50.168 eV)
   185     185       --         1.933 au  fB            1.00    129 A               2
                        (      52.602 eV)
   186     186       --         2.012 au  fB            1.00    130 A               2
                        (      54.754 eV)
   187     187       --         2.039 au  fB            1.00    131 A               2
                        (      55.486 eV)
   188     188       --         2.049 au  fB            1.00    132 A               2
                        (      55.767 eV)
   189     189       --         2.094 au  fB            1.00    133 A               2
                        (      56.975 eV)
   190     190       --         2.131 au  fB            1.00    134 A               2
                        (      57.977 eV)
   191     191       --         2.162 au  fB            1.00    135 A               2
                        (      58.844 eV)
   192     192       --         2.177 au  fB            1.00    136 A               2
                        (      59.245 eV)
   193     193       --         2.222 au  fB            1.00    137 A               2
                        (      60.459 eV)
   194     194       --         2.228 au  fB            1.00    138 A               2
                        (      60.628 eV)
   195     195       --         2.272 au  fB            1.00    139 A               2
                        (      61.830 eV)
   196     196       --         2.308 au  fB            1.00    140 A               2
                        (      62.816 eV)
   197     197       --         2.327 au  fB            1.00    141 A               2
                        (      63.311 eV)
   198     198       --         2.344 au  fB            1.00    142 A               2
                        (      63.777 eV)
   199     199       --         2.377 au  fB            1.00    143 A               2
                        (      64.684 eV)
   200     200       --         2.416 au  fB            1.00    144 A               2
                        (      65.733 eV)
   201     201       --         2.431 au  fB            1.00    145 A               2
                        (      66.151 eV)
   202     202       --         2.504 au  fB            1.00    146 A               2
                        (      68.128 eV)
   203     203       --         2.535 au  fB            1.00    147 A               2
                        (      68.980 eV)
   204     204       --         2.556 au  fB            1.00    148 A               2
                        (      69.542 eV)
   205     205       --         2.567 au  fB            1.00    149 A               2
                        (      69.861 eV)
   206     206       --         2.622 au  fB            1.00    150 A               2
                        (      71.345 eV)
   207     207       --         2.626 au  fB            1.00    151 A               2
                        (      71.468 eV)
   208     208       --         2.669 au  fB            1.00    152 A               2
                        (      72.630 eV)
   209     209       --         2.745 au  fB            1.00    153 A               2
                        (      74.703 eV)
   210     210       --         2.788 au  fB            1.00    154 A               2
                        (      75.876 eV)
   211     211       --         2.820 au  fB            1.00    155 A               2
                        (      76.724 eV)
   212     212       --         2.855 au  fB            1.00    156 A               2
                        (      77.684 eV)
   213     213       --         2.897 au  fB            1.00    157 A               2
                        (      78.835 eV)
   214     214       --         2.915 au  fB            1.00    158 A               2
                        (      79.321 eV)
   215     215       --         2.980 au  fB            1.00    159 A               2
                        (      81.100 eV)
   216     216       --         3.015 au  fB            1.00    160 A               2
                        (      82.034 eV)
   217     217       --         3.036 au  fB            1.00    161 A               2
                        (      82.612 eV)
   218     218       --         3.066 au  fB            1.00    162 A               2
                        (      83.420 eV)
   219     219       --         3.139 au  fB            1.00    163 A               2
                        (      85.417 eV)
   220     220       --         3.202 au  fB            1.00    164 A               2
                        (      87.122 eV)
   221     221       --         3.217 au  fB            1.00    165 A               2
                        (      87.543 eV)
   222     222       --         3.322 au  fB            1.00    166 A               2
                        (      90.400 eV)
   223     223       --         3.352 au  fB            1.00    167 A               2
                        (      91.223 eV)
   224     224       --         3.399 au  fB            1.00    168 A               2
                        (      92.488 eV)
   225     225       --         3.440 au  fB            1.00    169 A               2
                        (      93.598 eV)
   226     226       --         3.524 au  fB            1.00    170 A               2
                        (      95.893 eV)
   227     227       --         3.535 au  fB            1.00    171 A               2
                        (      96.186 eV)
   228     228       --         3.569 au  fB            1.00    172 A               2
                        (      97.106 eV)
   229     229       --         3.599 au  fB            1.00    173 A               2
                        (      97.926 eV)
   230     230       --         3.649 au  fB            1.00    174 A               2
                        (      99.293 eV)
   231     231       --         3.730 au  fB            1.00    175 A               2
                        (     101.493 eV)
   232     232       --         3.746 au  fB            1.00    176 A               2
                        (     101.925 eV)
   233     233       --         3.770 au  fB            1.00    177 A               2
                        (     102.598 eV)
   234     234       --         3.776 au  fB            1.00    178 A               2
                        (     102.742 eV)
   235     235       --         3.783 au  fB            1.00    179 A               2
                        (     102.947 eV)
   236     236       --         3.790 au  fB            1.00    180 A               2
                        (     103.127 eV)
   237     237       --         3.810 au  fB            1.00    181 A               2
                        (     103.677 eV)
   238     238       --         3.833 au  fB            1.00    182 A               2
                        (     104.302 eV)
   239     239       --         3.847 au  fB            1.00    183 A               2
                        (     104.685 eV)
   240     240       --         3.855 au  fB            1.00    184 A               2
                        (     104.903 eV)
   241     241       --         3.865 au  fB            1.00    185 A               2
                        (     105.185 eV)
   242     242       --         3.882 au  fB            1.00    186 A               2
                        (     105.628 eV)
   243     243       --         3.976 au  fB            1.00    187 A               2
                        (     108.186 eV)
   244     244       --         3.992 au  fB            1.00    188 A               2
                        (     108.621 eV)
   245     245       --         4.036 au  fB            1.00    189 A               2
                        (     109.818 eV)
   246     246       --         4.101 au  fB            1.00    190 A               2
                        (     111.587 eV)
   247     247       --         4.131 au  fB            1.00    191 A               2
                        (     112.408 eV)
   248     248       --         4.198 au  fB            1.00    192 A               2
                        (     114.243 eV)
   249     249       --         4.273 au  fB            1.00    193 A               2
                        (     116.286 eV)
   250     250       --         4.351 au  fB            1.00    194 A               2
                        (     118.398 eV)
   251     251       --         4.366 au  fB            1.00    195 A               2
                        (     118.793 eV)
   252     252       --         4.375 au  fB            1.00    196 A               2
                        (     119.062 eV)
   253     253       --         4.383 au  fB            1.00    197 A               2
                        (     119.258 eV)
   254     254       --         4.396 au  fB            1.00    198 A               2
                        (     119.610 eV)
   255     255       --         4.433 au  fB            1.00    199 A               2
                        (     120.620 eV)
   256     256       --         4.498 au  fB            1.00    200 A               2
                        (     122.400 eV)
   257     257       --         4.545 au  fB            1.00    201 A               2
                        (     123.681 eV)
   258     258       --         4.713 au  fB            1.00    202 A               2
                        (     128.234 eV)
   259     259       --         4.745 au  fB            1.00    203 A               2
                        (     129.113 eV)
   260     260       --         4.808 au  fB            1.00    204 A               2
                        (     130.822 eV)
   261     261       --         4.875 au  fB            1.00    205 A               2
                        (     132.645 eV)
   262     262       --         4.896 au  fB            1.00    206 A               2
                        (     133.231 eV)
   263     263       --         4.949 au  fB            1.00    207 A               2
                        (     134.661 eV)
   264     264       --         5.052 au  fB            1.00    208 A               2
                        (     137.473 eV)
   265     265       --         5.087 au  fB            1.00    209 A               2
                        (     138.433 eV)
   266     266       --         5.131 au  fB            1.00    210 A               2
                        (     139.625 eV)
   267     267       --         5.168 au  fB            1.00    211 A               2
                        (     140.641 eV)
   268     268       --         5.285 au  fB            1.00    212 A               2
                        (     143.812 eV)
   269     269       --         5.317 au  fB            1.00    213 A               2
                        (     144.688 eV)
   270     270       --         5.327 au  fB            1.00    214 A               2
                        (     144.957 eV)
   271     271       --         5.395 au  fB            1.00    215 A               2
                        (     146.816 eV)
   272     272       --         5.428 au  fB            1.00    216 A               2
                        (     147.692 eV)
   273     273       --         5.528 au  fB            1.00    217 A               2
                        (     150.425 eV)
   274     274       --         5.548 au  fB            1.00    218 A               2
                        (     150.958 eV)
   275     275       --         5.585 au  fB            1.00    219 A               2
                        (     151.964 eV)
   276     276       --         5.731 au  fB            1.00    220 A               2
                        (     155.940 eV)
   277     277       --         5.895 au  fB            1.00    221 A               2
                        (     160.422 eV)
   278     278       --         6.062 au  fB            1.00    222 A               2
                        (     164.963 eV)
   279     279       --         6.106 au  fB            1.00    223 A               2
                        (     166.147 eV)
   280     280       --         6.210 au  fB            1.00    224 A               2
                        (     168.986 eV)
   281     281       --         6.232 au  fB            1.00    225 A               2
                        (     169.569 eV)
   282     282       --         6.281 au  fB            1.00    226 A               2
                        (     170.905 eV)
   283     283       --         6.373 au  fB            1.00    227 A               2
                        (     173.424 eV)
   284     284       --         6.427 au  fB            1.00    228 A               2
                        (     174.900 eV)
   285     285       --         6.468 au  fB            1.00    229 A               2
                        (     176.008 eV)
   286     286       --         6.515 au  fB            1.00    230 A               2
                        (     177.289 eV)
   287     287       --         6.811 au  fB            1.00    231 A               2
                        (     185.350 eV)
   288     288       --         6.851 au  fB            1.00    232 A               2
                        (     186.424 eV)
   289     289       --         7.184 au  fB            1.00    233 A               2
                        (     195.477 eV)
   290     290       --         7.294 au  fB            1.00    234 A               2
                        (     198.487 eV)
   291     291       --         7.375 au  fB            1.00    235 A               2
                        (     200.688 eV)
   292     292       --         7.502 au  fB            1.00    236 A               2
                        (     204.142 eV)
   293     293       --         7.517 au  fB            1.00    237 A               2
                        (     204.556 eV)
   294     294       --         7.564 au  fB            1.00    238 A               2
                        (     205.833 eV)
   295     295       --         7.600 au  fB            1.00    239 A               2
                        (     206.802 eV)
   296     296       --         7.681 au  fB            1.00    240 A               2
                        (     209.005 eV)
   297     297       --         7.795 au  fB            1.00    241 A               2
                        (     212.113 eV)
   298     298       --         7.895 au  fB            1.00    242 A               2
                        (     214.841 eV)
   299     299       --         8.452 au  fB            1.00    243 A               2
                        (     229.981 eV)
   300     300       --         8.650 au  fB            1.00    244 A               2
                        (     235.389 eV)
   301     301       --         9.087 au  fB            1.00    245 A               2
                        (     247.278 eV)
   302     302       --         9.672 au  fB            1.00    246 A               2
                        (     263.181 eV)
   303     303       --        11.290 au  fB            1.00    247 A               2
                        (     307.210 eV)
   304     304       --        11.416 au  fB            1.00    248 A               2
                        (     310.649 eV)
   305     305       --        13.764 au  fB            1.00    249 A               2
                        (     374.530 eV)
   306     306       --        19.048 au  fB            1.00    250 A               2
                        (     518.331 eV)
   307     307       --        19.143 au  fB            1.00    251 A               2
                        (     520.918 eV)
   308     308       --        19.321 au  fB            1.00    252 A               2
                        (     525.762 eV)
   309     309       --        54.347 au  fB            1.00    253 A               2
                        (    1478.862 eV)
   310     310       --        56.025 au  fB            1.00    254 A               2
                        (    1524.519 eV)
   311     311       --        57.152 au  fB            1.00    255 A               2
                        (    1555.180 eV)
   312     312       --        59.209 au  fB            1.00    256 A               2
                        (    1611.162 eV)
   313     313       --        69.573 au  fB            1.00    257 A               2
                        (    1893.175 eV)
   314     314       --        69.912 au  fB            1.00    258 A               2
                        (    1902.412 eV)
   315     315       --        71.362 au  fB            1.00    259 A               2
                        (    1941.849 eV)
   316     316       --       209.362 au  fB            1.00    260 A               2
                        (    5697.017 eV)



 ================================
 (Slater-type)  F U N C T I O N S  ***  (Basis and Fit)  ***
 ================================
  

 Atom Type    1  (Br)
 ==============

 Valence Basis Sets:  20
 -----------------------
   1 S   41.300000
   1 S   32.800000
   2 S   13.900000
   2 P   19.450000
   2 P   13.100000
   3 S    7.200000
   3 S    4.950000
   3 P    7.900000
   3 P    5.050000
   3 D   10.900000
   3 D    6.050000
   3 D    3.500000
   4 S    4.500000
   4 S    2.800000
   4 S    1.800000
   4 P    3.250000
   4 P    1.950000
   4 P    1.200000
   4 D    1.800000
   4 F    1.800000

 Atom Type    2  (C)
 ==============

 Valence Basis Sets:  10
 -----------------------
   1 S    7.680000
   1 S    5.000000
   2 S    1.280000
   2 S    2.100000
   2 S    4.600000
   2 P    0.820000
   2 P    1.480000
   2 P    2.940000
   3 D    2.200000
   4 F    3.300000

 Atom Type    3  (H)
 ==============

 Valence Basis Sets:   5
 -----------------------
   1 S    0.690000
   1 S    0.920000
   1 S    1.580000
   2 P    1.250000
   3 D    2.500000

 Atom Type    4  (Cl)
 ==============

 Valence Basis Sets:  14
 -----------------------
   1 S   20.300000
   1 S   15.250000
   2 S    6.250000
   2 S    4.450000
   2 P    8.850000
   2 P    5.050000
   3 S    3.450000
   3 S    2.300000
   3 S    1.600000
   3 P    3.350000
   3 P    2.050000
   3 P    1.200000
   3 D    2.000000
   4 F    2.000000

 Atom Type    5  (N)
 ==============

 Valence Basis Sets:  10
 -----------------------
   1 S    8.740000
   1 S    5.900000
   2 S    5.150000
   2 S    2.500000
   2 S    1.500000
   2 P    3.680000
   2 P    1.880000
   2 P    1.000000
   3 D    2.200000
   4 F    3.300000


 BAS: List of all Elementary Cartesian Basis Functions
 =====================================================

 The numbering in the list below (to the right of the function characteristics) is referred
 to in print-outs of MO eigenvectors and Mulliken populations in the BAS representation
 (as contrasted to the SFO representation).

 Notes:
 1. The functions are characterized by a polynomial prefactor (powers of x,y,z and r) and
    an exponential decay factor alpha.
 2. Since the basis sets are specific for an atom TYPE, the individual functions occur on
    all atoms of that type.
 3. The word 'Core' in the left margin signals that it is a Core Function (CF) : not a
    degree of freedom in the valence set, but only used to ensure orthogonalization of
    the other valence basis functions on the frozen Core Orbitals.


 (power of) X  Y  Z  R     Alpha  on Atom
            ==========     =====     ==========

 Br                                   1
                                  ---------------------------------------------------------------------------
            0  0  0  0    41.300      1
            0  0  0  0    32.800      2
            0  0  0  1    13.900      3
            1  0  0  0    19.450      4
            0  1  0  0    19.450      5
            0  0  1  0    19.450      6
            1  0  0  0    13.100      7
            0  1  0  0    13.100      8
            0  0  1  0    13.100      9
            0  0  0  2     7.200     10
            0  0  0  2     4.950     11
            1  0  0  1     7.900     12
            0  1  0  1     7.900     13
            0  0  1  1     7.900     14
            1  0  0  1     5.050     15
            0  1  0  1     5.050     16
            0  0  1  1     5.050     17
            2  0  0  0    10.900     18
            1  1  0  0    10.900     19
            1  0  1  0    10.900     20
            0  2  0  0    10.900     21
            0  1  1  0    10.900     22
            0  0  2  0    10.900     23
            2  0  0  0     6.050     24
            1  1  0  0     6.050     25
            1  0  1  0     6.050     26
            0  2  0  0     6.050     27
            0  1  1  0     6.050     28
            0  0  2  0     6.050     29
            2  0  0  0     3.500     30
            1  1  0  0     3.500     31
            1  0  1  0     3.500     32
            0  2  0  0     3.500     33
            0  1  1  0     3.500     34
            0  0  2  0     3.500     35
            0  0  0  3     4.500     36
            0  0  0  3     2.800     37
            0  0  0  3     1.800     38
            1  0  0  2     3.250     39
            0  1  0  2     3.250     40
            0  0  1  2     3.250     41
            1  0  0  2     1.950     42
            0  1  0  2     1.950     43
            0  0  1  2     1.950     44
            1  0  0  2     1.200     45
            0  1  0  2     1.200     46
            0  0  1  2     1.200     47
            2  0  0  1     1.800     48
            1  1  0  1     1.800     49
            1  0  1  1     1.800     50
            0  2  0  1     1.800     51
            0  1  1  1     1.800     52
            0  0  2  1     1.800     53
            3  0  0  0     1.800     54
            2  1  0  0     1.800     55
            2  0  1  0     1.800     56
            1  2  0  0     1.800     57
            1  1  1  0     1.800     58
            1  0  2  0     1.800     59
            0  3  0  0     1.800     60
            0  2  1  0     1.800     61
            0  1  2  0     1.800     62
            0  0  3  0     1.800     63

 C                                    2    3    4    5
                                  ---------------------------------------------------------------------------
            0  0  0  0     7.680     64   94  124  154
            0  0  0  0     5.000     65   95  125  155
            0  0  0  1     1.280     66   96  126  156
            0  0  0  1     2.100     67   97  127  157
            0  0  0  1     4.600     68   98  128  158
            1  0  0  0     0.820     69   99  129  159
            0  1  0  0     0.820     70  100  130  160
            0  0  1  0     0.820     71  101  131  161
            1  0  0  0     1.480     72  102  132  162
            0  1  0  0     1.480     73  103  133  163
            0  0  1  0     1.480     74  104  134  164
            1  0  0  0     2.940     75  105  135  165
            0  1  0  0     2.940     76  106  136  166
            0  0  1  0     2.940     77  107  137  167
            2  0  0  0     2.200     78  108  138  168
            1  1  0  0     2.200     79  109  139  169
            1  0  1  0     2.200     80  110  140  170
            0  2  0  0     2.200     81  111  141  171
            0  1  1  0     2.200     82  112  142  172
            0  0  2  0     2.200     83  113  143  173
            3  0  0  0     3.300     84  114  144  174
            2  1  0  0     3.300     85  115  145  175
            2  0  1  0     3.300     86  116  146  176
            1  2  0  0     3.300     87  117  147  177
            1  1  1  0     3.300     88  118  148  178
            1  0  2  0     3.300     89  119  149  179
            0  3  0  0     3.300     90  120  150  180
            0  2  1  0     3.300     91  121  151  181
            0  1  2  0     3.300     92  122  152  182
            0  0  3  0     3.300     93  123  153  183

 H                                    6    7    8    9
                                  ---------------------------------------------------------------------------
            0  0  0  0     0.690    184  196  208  220
            0  0  0  0     0.920    185  197  209  221
            0  0  0  0     1.580    186  198  210  222
            1  0  0  0     1.250    187  199  211  223
            0  1  0  0     1.250    188  200  212  224
            0  0  1  0     1.250    189  201  213  225
            2  0  0  0     2.500    190  202  214  226
            1  1  0  0     2.500    191  203  215  227
            1  0  1  0     2.500    192  204  216  228
            0  2  0  0     2.500    193  205  217  229
            0  1  1  0     2.500    194  206  218  230
            0  0  2  0     2.500    195  207  219  231

 Cl                                  10
                                  ---------------------------------------------------------------------------
            0  0  0  0    20.300    232
            0  0  0  0    15.250    233
            0  0  0  1     6.250    234
            0  0  0  1     4.450    235
            1  0  0  0     8.850    236
            0  1  0  0     8.850    237
            0  0  1  0     8.850    238
            1  0  0  0     5.050    239
            0  1  0  0     5.050    240
            0  0  1  0     5.050    241
            0  0  0  2     3.450    242
            0  0  0  2     2.300    243
            0  0  0  2     1.600    244
            1  0  0  1     3.350    245
            0  1  0  1     3.350    246
            0  0  1  1     3.350    247
            1  0  0  1     2.050    248
            0  1  0  1     2.050    249
            0  0  1  1     2.050    250
            1  0  0  1     1.200    251
            0  1  0  1     1.200    252
            0  0  1  1     1.200    253
            2  0  0  0     2.000    254
            1  1  0  0     2.000    255
            1  0  1  0     2.000    256
            0  2  0  0     2.000    257
            0  1  1  0     2.000    258
            0  0  2  0     2.000    259
            3  0  0  0     2.000    260
            2  1  0  0     2.000    261
            2  0  1  0     2.000    262
            1  2  0  0     2.000    263
            1  1  1  0     2.000    264
            1  0  2  0     2.000    265
            0  3  0  0     2.000    266
            0  2  1  0     2.000    267
            0  1  2  0     2.000    268
            0  0  3  0     2.000    269

 N                                   11   12   13
                                  ---------------------------------------------------------------------------
            0  0  0  0     8.740    270  300  330
            0  0  0  0     5.900    271  301  331
            0  0  0  1     5.150    272  302  332
            0  0  0  1     2.500    273  303  333
            0  0  0  1     1.500    274  304  334
            1  0  0  0     3.680    275  305  335
            0  1  0  0     3.680    276  306  336
            0  0  1  0     3.680    277  307  337
            1  0  0  0     1.880    278  308  338
            0  1  0  0     1.880    279  309  339
            0  0  1  0     1.880    280  310  340
            1  0  0  0     1.000    281  311  341
            0  1  0  0     1.000    282  312  342
            0  0  1  0     1.000    283  313  343
            2  0  0  0     2.200    284  314  344
            1  1  0  0     2.200    285  315  345
            1  0  1  0     2.200    286  316  346
            0  2  0  0     2.200    287  317  347
            0  1  1  0     2.200    288  318  348
            0  0  2  0     2.200    289  319  349
            3  0  0  0     3.300    290  320  350
            2  1  0  0     3.300    291  321  351
            2  0  1  0     3.300    292  322  352
            1  2  0  0     3.300    293  323  353
            1  1  1  0     3.300    294  324  354
            1  0  2  0     3.300    295  325  355
            0  3  0  0     3.300    296  326  356
            0  2  1  0     3.300    297  327  357
            0  1  2  0     3.300    298  328  358
            0  0  3  0     3.300    299  329  359

 Total number of charge fitting functions (nprimf)      1064
 Total number of Cartesian basis functions (naos)        359
 Total number of Cartesian core functions  (ncos)          0

 ***************************************************************************************************



                                              ***********************
                                              *  T E C H N I C A L  *
                                              ***********************
  



 =============================================================
 P A R A L L E L I Z A T I O N  and  V E C T O R I Z A T I O N
 =============================================================
  
 Nr of parallel processes:                                1
 Maximum vector length in NumInt loops:                 128



 =====================
 S C F   U P D A T E S
 =====================
  
 Max. nr. of cycles:                               200
 Convergence criterion:                              0.0000010000
   secondary criterion:                              0.0010000000

 Mix parameter (when DIIS does not apply):           0.2000000000
 Mixed ADIIS+SDIIS will be used                  
    Max number of expansion vectors:                10
    Pure ADIIS when Max([F,P]) is above              0.1000000000
    Pure SDIIS when Max([F,P]) is below              0.0010000000
 Automatic ElectronSmearing (in case of problematic SCF convergence) disabled



 =================
 P R E C I S I O N  ***  (General: NumInt, NeglectFunctionTails, ...)  ***
 =================
  

 NumInt:           Target precision:                 4.0000000000
 -------           Initial precision:                4.0000000000
                   Min. precision (optimization):    4.0000000000

 Neglect Functions:          Basis functions:        0.1000000000E-05
 ------------------          Fit functions:          0.1000000000E-05



 ===========================
 L I N E A R   S C A L I N G
 ===========================
  

 Cut-off radii density fit:                        0.1000000000E-07
 Overlap cut-off criterion AO matrix elements:     0.1000000000E-05
 Cut-offs for Coulomb potential and fitted density:0.1000000000E-07
 Cut-off criterion for Coulomb multipole terms:    0.1000000000E-07
 Progressive Convergence parameter:                 0.000000000    
 ***************************************************************************************************



                                            ***************************
                                            *  C O M P U T A T I O N  *
                                            ***************************
  

 Number of elements of the density matrix on this node (used, total):     64620     64620



 ===========================================
 Numerical Integration : Fuzzy Cells (Becke)
 ===========================================
  
 Becke grid quality: NORMAL         
  
 Lebedev angular grid order:             min:  11 max:  23
 Nr. of radial points:                   min:  46 max:  77

 Total nr. of points:      92914
 Nr. of blocks:              726
 Block length:               128
 Nr. of dummy points:         14


 Test of Precision of the Numerical Integration Grid
 ===================================================

 Integral of the Total Core Density:                   0.00000000000000



 ========================
 Density Fitting (zlmFit)
 ========================
  
 ZlmFit Fit Quality: NORMAL         
  
 Max L-expansion:                        min:   6 max:   7
 Nr. of radial interpolation points:     min:  39 max:  72



 =====
 S C F  ***  ScaSCF  ***
 =====
  
 Initial density matrix is calculated as sum of fragments

 CYCLE    1
 SCF Error: norm([F,P])=      1.318251362467, max([F,P])=      0.432086098793
 orbitals (Q,E):
 ---------------
 A :42...61          ( 2.00    -0.1882)  ( 2.00    -0.1867)  ( 2.00    -0.1815)  ( 2.00    -0.1655)
                     ( 2.00    -0.1640)  ( 2.00    -0.1528)  ( 2.00    -0.1177)  ( 2.00    -0.0708)
                     ( 2.00    -0.0311)  ( 2.00    -0.0268)  ( 0.00     0.0255)  ( 0.00     0.0880)
                     ( 0.00     0.0959)  ( 0.00     0.1018)  ( 0.00     0.1024)  ( 0.00     0.1310)
                     ( 0.00     0.1438)  ( 0.00     0.1797)  ( 0.00     0.1881)  ( 0.00     0.1929)

 CYCLE    2
   MIX coefficients:  0.8000  0.2000
 SCF Error: norm([F,P])=      0.748498418443, max([F,P])=      0.332223279817
 orbitals (Q,E):
 ---------------
 A :42...52          ( 2.00    -0.1807)  ( 2.00    -0.1774)  ( 2.00    -0.1668)  ( 2.00    -0.1293)
                     ( 2.00    -0.1206)  ( 2.00    -0.1131)  ( 2.00    -0.1109)  ( 2.00    -0.1005)
                     ( 2.00    -0.0886)  ( 2.00    -0.0822)  ( 0.00     0.0083)

 CYCLE    3
  SDIIS (wt  0.000):  0.0549  0.9451
 A-DIIS (wt  1.000):  0.0000  1.0000
  DIIS coefficients:  0.0000  1.0000
 SCF Error: norm([F,P])=      0.212096483489, max([F,P])=      0.035326237511
 orbitals (Q,E):
 ---------------
 A :42...52          ( 2.00    -0.1927)  ( 2.00    -0.1841)  ( 2.00    -0.1787)  ( 2.00    -0.1444)
                     ( 2.00    -0.1347)  ( 2.00    -0.1078)  ( 2.00    -0.1031)  ( 2.00    -0.0995)
                     ( 2.00    -0.0769)  ( 2.00    -0.0724)  ( 0.00    -0.0176)

 CYCLE    4
  SDIIS (wt  0.000):  0.0596  0.7218  0.2186
 A-DIIS (wt  1.000):  0.0000  0.8655  0.1345
  DIIS coefficients:  0.0000  0.8655  0.1345
 SCF Error: norm([F,P])=      0.690691785854, max([F,P])=      0.193838450545
 orbitals (Q,E):
 ---------------
 A :42...52          ( 2.00    -0.1821)  ( 2.00    -0.1811)  ( 2.00    -0.1769)  ( 2.00    -0.1334)
                     ( 2.00    -0.1242)  ( 2.00    -0.1055)  ( 2.00    -0.1014)  ( 2.00    -0.0976)
                     ( 2.00    -0.0945)  ( 2.00    -0.0882)  ( 0.00    -0.0102)

 CYCLE    5
  SDIIS (wt  0.598): -0.0326  0.4942 -0.0495  0.5879
 A-DIIS (wt  0.402):  0.0000  0.4896  0.0000  0.5104
  DIIS coefficients: -0.0195  0.4924 -0.0296  0.5567
 SCF Error: norm([F,P])=      0.227175782277, max([F,P])=      0.040777493549
 orbitals (Q,E):
 ---------------
 A :42...52          ( 2.00    -0.1796)  ( 2.00    -0.1756)  ( 2.00    -0.1722)  ( 2.00    -0.1266)
                     ( 2.00    -0.1181)  ( 2.00    -0.1070)  ( 2.00    -0.1034)  ( 2.00    -0.0998)
                     ( 2.00    -0.0973)  ( 2.00    -0.0902)  ( 0.00    -0.0002)

 CYCLE    6
  SDIIS (wt  0.799): -0.0089  0.2965 -0.0369  0.3980  0.3513
 A-DIIS (wt  0.201):  0.0000  0.0000  0.0000  0.0000  1.0000
  DIIS coefficients: -0.0071  0.2370 -0.0295  0.3181  0.4814
 SCF Error: norm([F,P])=      0.051030599074, max([F,P])=      0.020858168915
 orbitals (Q,E):
 ---------------
 A :42...52          ( 2.00    -0.1802)  ( 2.00    -0.1761)  ( 2.00    -0.1737)  ( 2.00    -0.1297)
                     ( 2.00    -0.1207)  ( 2.00    -0.1089)  ( 2.00    -0.1055)  ( 2.00    -0.1035)
                     ( 2.00    -0.0934)  ( 2.00    -0.0869)  ( 0.00    -0.0030)

 CYCLE    7
  SDIIS (wt  0.832):  0.0032  0.1242 -0.0128  0.1577  0.4456  0.2820
 A-DIIS (wt  0.168):  0.0000  0.0000  0.0000  0.0000  0.4804  0.5196
  DIIS coefficients:  0.0027  0.1033 -0.0106  0.1312  0.4515  0.3220
 SCF Error: norm([F,P])=      0.054551574841, max([F,P])=      0.017671260824
 orbitals (Q,E):
 ---------------
 A :42...52          ( 2.00    -0.1801)  ( 2.00    -0.1761)  ( 2.00    -0.1735)  ( 2.00    -0.1283)
                     ( 2.00    -0.1194)  ( 2.00    -0.1071)  ( 2.00    -0.1050)  ( 2.00    -0.1017)
                     ( 2.00    -0.0953)  ( 2.00    -0.0886)  ( 0.00    -0.0015)

 CYCLE    8
  SDIIS (wt  0.989): -0.0018  0.0488 -0.0045  0.0574  0.1952  0.1917  0.5132
 A-DIIS (wt  0.011):  0.0000  0.0000  0.0000  0.0000  0.0000  0.0000  1.0000
  DIIS coefficients: -0.0018  0.0483 -0.0045  0.0568  0.1930  0.1895  0.5186
 SCF Error: norm([F,P])=      0.007936851788, max([F,P])=      0.002095160833
 orbitals (Q,E):
 ---------------
 A :42...52          ( 2.00    -0.1801)  ( 2.00    -0.1760)  ( 2.00    -0.1733)  ( 2.00    -0.1282)
                     ( 2.00    -0.1193)  ( 2.00    -0.1070)  ( 2.00    -0.1049)  ( 2.00    -0.1016)
                     ( 2.00    -0.0952)  ( 2.00    -0.0885)  ( 0.00    -0.0015)

 CYCLE    9
  SDIIS (wt  1.000): -0.0015  0.0251 -0.0027  0.0295  0.1062  0.1143  0.3779  0.3512
  DIIS coefficients: -0.0015  0.0251 -0.0027  0.0295  0.1062  0.1143  0.3779  0.3512
 SCF Error: norm([F,P])=      0.002191374162, max([F,P])=      0.000638969427
 orbitals (Q,E):
 ---------------
 A :42...52          ( 2.00    -0.1801)  ( 2.00    -0.1761)  ( 2.00    -0.1733)  ( 2.00    -0.1283)
                     ( 2.00    -0.1193)  ( 2.00    -0.1071)  ( 2.00    -0.1049)  ( 2.00    -0.1016)
                     ( 2.00    -0.0952)  ( 2.00    -0.0885)  ( 0.00    -0.0015)

 CYCLE   10
  SDIIS (wt  1.000): -0.0007  0.0097 -0.0012  0.0114  0.0454  0.0493  0.1831  0.2948  0.4084
  DIIS coefficients: -0.0007  0.0097 -0.0012  0.0114  0.0454  0.0493  0.1831  0.2948  0.4084
 SCF Error: norm([F,P])=      0.001001153715, max([F,P])=      0.000238288177
 orbitals (Q,E):
 ---------------
 A :42...52          ( 2.00    -0.1801)  ( 2.00    -0.1760)  ( 2.00    -0.1733)  ( 2.00    -0.1283)
                     ( 2.00    -0.1194)  ( 2.00    -0.1071)  ( 2.00    -0.1050)  ( 2.00    -0.1017)
                     ( 2.00    -0.0953)  ( 2.00    -0.0886)  ( 0.00    -0.0016)

 CYCLE   11
  SDIIS (wt  1.000): -0.0002  0.0015 -0.0003  0.0019  0.0068  0.0055  0.0284  0.1003  0.2168  0.6393
  DIIS coefficients: -0.0002  0.0015 -0.0003  0.0019  0.0068  0.0055  0.0284  0.1003  0.2168  0.6393
 SCF Error: norm([F,P])=      0.000220903477, max([F,P])=      0.000053832317
 orbitals (Q,E):
 ---------------
 A :42...52          ( 2.00    -0.1801)  ( 2.00    -0.1760)  ( 2.00    -0.1733)  ( 2.00    -0.1283)
                     ( 2.00    -0.1193)  ( 2.00    -0.1071)  ( 2.00    -0.1050)  ( 2.00    -0.1016)
                     ( 2.00    -0.0953)  ( 2.00    -0.0886)  ( 0.00    -0.0015)

 CYCLE   12
[...]
                                    1.06%    67 A              10.709  0.00     2 fB
                                    1.00%    35 A              -1.922  0.00     2 fB
       0.05278       311 A         16.94%    36 A              -1.358  0.00     2 fB
                                   16.14%    28 A              -8.734  2.00     2 fB
                                   11.55%    32 A              -7.398  2.00     2 fB
                                    5.36%    31 A              -7.780  2.00     2 fB
                                    4.12%    42 A               1.050  0.00     2 fB
                                    3.60%    27 A              -9.111  2.00     2 fB
                                    3.50%    22 A             -12.890  2.00     2 fB
                                    3.42%    44 A               2.175  0.00     2 fB
                                    3.41%    30 A              -8.048  2.00     2 fB
                                    2.68%    38 A              -1.008  0.00     2 fB
                                    2.16%    48 A               4.194  0.00     2 fB
                                    1.87%    41 A               0.788  0.00     2 fB
                                    1.36%    23 A             -12.685  2.00     2 fB
                                    1.35%    25 A              15.187  0.00     1 fA
                                    1.32%    49 A               4.514  0.00     2 fB
                                    1.25%    54 A               5.963  0.00     2 fB
                                    1.20%    67 A              10.709  0.00     2 fB
                                    1.10%    62 A               9.062  0.00     2 fB
                                    1.09%    26 A              15.187  0.00     1 fA
                                    1.01%    65 A              10.201  0.00     2 fB
      -0.05094         7 A         19.67%    33 A              -7.278  2.00     2 fB
                                    8.83%    30 A              -8.048  2.00     2 fB
                                    8.51%    40 A              -0.164  0.00     2 fB
                                    6.66%    60 A               8.052  0.00     2 fB
                                    5.67%    38 A              -1.008  0.00     2 fB
                                    5.30%    43 A               1.182  0.00     2 fB
                                    4.01%    26 A              -9.304  2.00     2 fB
                                    3.01%    23 A             -12.685  2.00     2 fB
                                    2.86%    32 A              -7.398  2.00     2 fB
                                    2.84%    28 A              -8.734  2.00     2 fB
                                    2.70%    42 A               1.050  0.00     2 fB
                                    2.60%    31 A              -7.780  2.00     2 fB
                                    2.58%    21 A             -13.052  2.00     2 fB
                                    2.33%    41 A               0.788  0.00     2 fB
                                    2.04%    59 A               7.784  0.00     2 fB
                                    1.92%    39 A              -0.485  0.00     2 fB
                                    1.87%    18 A             -18.343  2.00     2 fB
                                    1.62%    29 A              -8.653  2.00     2 fB
                                    1.06%    47 A               3.647  0.00     2 fB
                                    1.01%    49 A               4.514  0.00     2 fB
       0.05094       310 A         19.12%    33 A              -7.278  2.00     2 fB
                                    9.06%    40 A              -0.164  0.00     2 fB
                                    8.68%    30 A              -8.048  2.00     2 fB
                                    7.03%    60 A               8.052  0.00     2 fB
                                    6.28%    38 A              -1.008  0.00     2 fB
                                    5.56%    43 A               1.182  0.00     2 fB
                                    4.04%    26 A              -9.304  2.00     2 fB
                                    2.90%    42 A               1.050  0.00     2 fB
                                    2.69%    32 A              -7.398  2.00     2 fB
                                    2.68%    28 A              -8.734  2.00     2 fB
                                    2.56%    31 A              -7.780  2.00     2 fB
                                    2.22%    41 A               0.788  0.00     2 fB
                                    2.08%    21 A             -13.052  2.00     2 fB
                                    2.08%    59 A               7.784  0.00     2 fB
                                    1.96%    39 A              -0.485  0.00     2 fB
                                    1.74%    29 A              -8.653  2.00     2 fB
                                    1.62%    23 A             -12.685  2.00     2 fB
                                    1.36%    18 A             -18.343  2.00     2 fB
                                    1.33%    24 A              15.187  0.00     1 fA
                                    1.30%    22 A             -12.890  2.00     2 fB
                                    1.16%    47 A               3.647  0.00     2 fB
                                    1.10%    49 A               4.514  0.00     2 fB
      -0.05048         8 A         16.75%    32 A              -7.398  2.00     2 fB
                                    9.23%    20 A             -14.193  2.00     2 fB
                                    6.58%    31 A              -7.780  2.00     2 fB
                                    6.31%    30 A              -8.048  2.00     2 fB
                                    5.64%    41 A               0.788  0.00     2 fB
                                    4.64%    20 A               9.586  0.00     1 fA
                                    4.15%    29 A              -8.653  2.00     2 fB
                                    3.84%    39 A              -0.485  0.00     2 fB
                                    3.72%    59 A               7.784  0.00     2 fB
                                    3.48%    44 A               2.175  0.00     2 fB
                                    2.84%    36 A              -1.358  0.00     2 fB
                                    2.66%    57 A               7.136  0.00     2 fB
                                    2.61%    61 A               8.434  0.00     2 fB
                                    2.58%    23 A             -12.685  2.00     2 fB
                                    2.44%    42 A               1.050  0.00     2 fB
                                    2.21%    37 A              -1.067  0.00     2 fB
                                    2.09%    52 A               5.402  0.00     2 fB
                                    1.63%    19 A               9.586  0.00     1 fA
                                    1.58%    33 A              -7.278  2.00     2 fB
                                    1.43%    46 A               3.231  0.00     2 fB
                                    1.28%    40 A              -0.164  0.00     2 fB
                                    1.18%    49 A               4.514  0.00     2 fB
                                    1.08%    17 A             -19.622  2.00     2 fB
                                    1.06%    19 A             -15.382  2.00     2 fB
       0.05048       309 A         15.41%    32 A              -7.398  2.00     2 fB
                                    8.05%    20 A             -14.193  2.00     2 fB
                                    6.89%    31 A              -7.780  2.00     2 fB
                                    5.84%    30 A              -8.048  2.00     2 fB
                                    5.77%    41 A               0.788  0.00     2 fB
                                    3.93%    39 A              -0.485  0.00     2 fB
                                    3.83%    59 A               7.784  0.00     2 fB
                                    3.77%    44 A               2.175  0.00     2 fB
                                    3.74%    29 A              -8.653  2.00     2 fB
                                    3.11%    36 A              -1.358  0.00     2 fB
                                    2.77%    61 A               8.434  0.00     2 fB
                                    2.73%    57 A               7.136  0.00     2 fB
                                    2.48%    42 A               1.050  0.00     2 fB
                                    2.37%    37 A              -1.067  0.00     2 fB
                                    2.19%    20 A               9.586  0.00     1 fA
                                    2.18%    52 A               5.402  0.00     2 fB
                                    1.58%    46 A               3.231  0.00     2 fB
                                    1.55%    23 A             -12.685  2.00     2 fB
                                    1.52%    19 A               9.586  0.00     1 fA
                                    1.50%    17 A               0.483  2.00     1 fA
                                    1.41%    33 A              -7.278  2.00     2 fB
                                    1.35%    49 A               4.514  0.00     2 fB
                                    1.26%    40 A              -0.164  0.00     2 fB
                                    1.01%    73 A              13.279  0.00     2 fB
 Mulliken charges used for AMS results%charges...


    =====================
     CALCULATION RESULTS
    =====================

Energy (hartree)            -0.07232362


--------------
Atomic charges
--------------
  Index   Atom    Charge
      1     Br   -0.5320
      2      C    0.1925
      3      H   -0.1286
      4     Cl   -0.4916
      5      C    0.4950
      6      H   -0.1284
      7      C    0.1717
      8      N   -0.2937
      9      N   -0.0130
     10      H   -0.0394
     11      H   -0.0299
     12      C    0.0935
     13      N   -0.2962


Dipole moment vector    (Debye):    -1.72753734   -0.41869861    6.74632622
              magnitude (Debye):     6.97657590


-----------------------
Molecular orbitals info
-----------------------
n orbitals:              316
n spin:                    1

Note: only printing virtual orbitals with
      energy smaller than HOMO + 100. eV

HOMO (eV):              -2.4101
LUMO (eV):              -0.0419
HOMO-LUMO gap (eV):      2.3681

   Index   Energy (eV)    Occupation
     209       96.9478         0.000       
     208       96.2811         0.000       
     207       95.9294         0.000       
     206       94.3203         0.000       
     205       91.9271         0.000       
     204       91.6383         0.000       
     203       90.2969         0.000       
     202       88.3887         0.000       
     201       87.6209         0.000       
     200       86.7646         0.000       
     199       86.4066         0.000       
     198       85.7117         0.000       
     197       85.1413         0.000       
     196       83.6620         0.000       
     195       82.5849         0.000       
     194       82.0498         0.000       
     193       81.7693         0.000       
     192       81.1438         0.000       
     191       79.8824         0.000       
     190       79.7471         0.000       
     189       77.9724         0.000       
     188       77.1476         0.000       
     187       76.4857         0.000       
     186       75.3570         0.000       
     185       74.3900         0.000       
     184       74.0370         0.000       
     183       73.3622         0.000       
     182       72.6603         0.000       
     181       70.6344         0.000       
     180       69.9912         0.000       
     179       69.5294         0.000       
     178       68.5965         0.000       
     177       67.9902         0.000       
     176       67.2673         0.000       
     175       66.7003         0.000       
     174       66.1205         0.000       
     173       65.1214         0.000       
     172       63.7593         0.000       
     171       63.1878         0.000       
     170       62.4985         0.000       
     169       61.7884         0.000       
     168       60.4587         0.000       
     167       59.7821         0.000       
     166       59.5733         0.000       
     165       55.5412         0.000       
     164       54.8172         0.000       
     163       54.4260         0.000       
     162       53.7098         0.000       
     161       52.8811         0.000       
     160       51.7508         0.000       
     159       50.5744         0.000       
     158       50.0658         0.000       
     157       49.6875         0.000       
     156       48.7794         0.000       
     155       48.3530         0.000       
     154       47.3736         0.000       
     153       47.1592         0.000       
     152       45.7639         0.000       
     151       45.1899         0.000       
     150       43.9962         0.000       
     149       43.7311         0.000       
     148       43.0948         0.000       
     147       42.6287         0.000       
     146       42.5077         0.000       
     145       41.5094         0.000       
     144       40.8392         0.000       
     143       40.6373         0.000       
     142       40.1618         0.000       
     141       39.6968         0.000       
     140       39.1425         0.000       
     139       38.8681         0.000       
     138       38.5474         0.000       
     137       38.0184         0.000       
     136       37.9566         0.000       
     135       37.7492         0.000       
     134       37.3286         0.000       
     133       36.8715         0.000       
     132       36.5477         0.000       
     131       35.7463         0.000       
     130       35.4318         0.000       
     129       34.6299         0.000       
     128       34.3676         0.000       
     127       33.8631         0.000       
     126       33.3062         0.000       
     125       33.0635         0.000       
     124       32.9235         0.000       
     123       32.2004         0.000       
     122       31.4185         0.000       
     121       31.1436         0.000       
     120       30.0269         0.000       
     119       29.4281         0.000       
     118       29.2855         0.000       
     117       29.1483         0.000       
     116       28.3694         0.000       
     115       28.0633         0.000       
     114       27.4171         0.000       
     113       27.1493         0.000       
     112       26.8036         0.000       
     111       25.9871         0.000       
     110       25.3840         0.000       
     109       24.9636         0.000       
     108       24.5175         0.000       
     107       23.7089         0.000       
     106       22.1714         0.000       
     105       21.8373         0.000       
     104       21.2785         0.000       
     103       20.9588         0.000       
     102       20.6722         0.000       
     101       19.8213         0.000       
     100       18.6549         0.000       
      99       18.2288         0.000       
      98       18.1625         0.000       
      97       17.5318         0.000       
      96       17.4014         0.000       
      95       16.8883         0.000       
      94       16.0674         0.000       
      93       15.9908         0.000       
      92       15.4439         0.000       
      91       15.3452         0.000       
      90       14.8105         0.000       
      89       14.3057         0.000       
      88       13.8116         0.000       
      87       13.7786         0.000       
      86       13.4852         0.000       
      85       13.2331         0.000       
      84       12.9119         0.000       
      83       12.8582         0.000       
      82       12.6246         0.000       
      81       12.4060         0.000       
      80       11.8455         0.000       
      79       11.7161         0.000       
      78       11.0163         0.000       
      77       10.7152         0.000       
      76       10.4575         0.000       
      75       10.1670         0.000       
      74        9.9164         0.000       
      73        9.5355         0.000       
      72        9.3667         0.000       
      71        9.1474         0.000       
      70        8.6514         0.000       
      69        8.5829         0.000       
      68        8.4994         0.000       
      67        8.0959         0.000       
      66        7.9795         0.000       
      65        7.6030         0.000       
      64        6.9678         0.000       
      63        6.6073         0.000       
      62        5.8350         0.000       
      61        5.1891         0.000       
      60        4.9716         0.000       
      59        4.8924         0.000       
      58        3.7981         0.000       
      57        3.6945         0.000       
      56        2.9315         0.000       
      55        2.8956         0.000       
      54        2.7159         0.000       
      53        2.4904         0.000       
      52       -0.0419         0.000 < LUMO
      51       -2.4101         2.000 < HOMO
      50       -2.5927         2.000       
      49       -2.7657         2.000       
      48       -2.8560         2.000       
      47       -2.9142         2.000       
      46       -3.2475         2.000       
      45       -3.4904         2.000       
      44       -4.7160         2.000       
      43       -4.7903         2.000       
      42       -4.9009         2.000       
      41       -5.2517         2.000       
      40       -5.4968         2.000       
      39       -5.7297         2.000       
      38       -8.3128         2.000       
      37       -8.4991         2.000       
      36       -8.5436         2.000       
      35       -9.5519         2.000       
      34      -10.8851         2.000       
      33      -13.6549         2.000       
      32      -14.7347         2.000       
      31      -14.9951         2.000       
      30      -16.7042         2.000       
      29      -18.5858         2.000       
      28      -19.1003         2.000       
      27      -20.0763         2.000       
      26      -60.8779         2.000       
      25      -60.8782         2.000       
      24      -61.0075         2.000       
      23      -61.0139         2.000       
      22      -61.0549         2.000       
      21     -167.4251         2.000       
      20     -167.4332         2.000       
      19     -167.6073         2.000       
      18     -185.0513         2.000       
      17     -185.0576         2.000       
      16     -185.2049         2.000       
      15     -231.2596         2.000       
      14     -246.0528         2.000       
      13     -267.7459         2.000       
      12     -267.9514         2.000       
      11     -268.1847         2.000       
      10     -270.4672         2.000       
       9     -377.9677         2.000       
       8     -378.3527         2.000       
       7     -378.5311         2.000       
       6    -1521.5114         2.000       
       5    -1521.5145         2.000       
       4    -1521.5729         2.000       
       3    -1724.6235         2.000       
       2    -2745.3074         2.000       
       1   -13291.1615         2.000       

AMS application finished. Exiting.
NORMAL TERMINATION
     Total cpu time:      79.84
  Total system time:       0.35
 Total elapsed time:      80.44
NORMAL TERMINATION
