
 *******************************************************************************
 *                                                                             *
 *  --------------------------------                                           *
 *   Amsterdam Modeling Suite (AMS)              2026.103                      *
 *  --------------------------------                                           *
 *                                               r260501 2026-05-01 873454b5   *
 *                                                                             *
 *                                                                             *
 *                              =================                              *
 *                              |               |                              *
 *                              |     A M S     |                              *
 *                              |               |                              *
 *                              =================                              *
 *                                                                             *
 *                                                                             *
 *   Online information and documentation:  https://www.scm.com/support/       *
 *   E-mail:  support@scm.com   info@scm.com                                   *
 *                                                                             *
 *   Scientific publications using AMS results must be properly referenced     *
 *   See the User Manuals (or the web site) for recommended citations          *
 *   The terms and conditions of the End User License Agreement apply to       *
 *   the use of AMS, https://www.scm.com/license-terms/                        *
 *                                                                             *
 **********************  x86_64_linux_intel / intelmpi  ************************
 
 Licensed to: Jong-June Jeon / University of Seoul 2026-05-13 16:10:32
 SCM User ID: u30731
  
 AMS 2026.103  RunTime: May23-2026 13:28:15  ShM Nodes: 1  Procs: 1

 AMS jobname: frag1
 AMS jobid  : 156789267

 Start   directory: /gpfs/tmp_cpu2/yeseo1ee_plams/ac_batch/plams_ac/ac_eda/frag1/
 Results directory: /gpfs/tmp_cpu2/yeseo1ee_plams/ac_batch/plams_ac/ac_eda/frag1/
 Scratch directory: /tmp/amstmp_frag1_kid0.156789267/

 RNG seed: -975536999 1098561523 1205544878 973413597 1044840894 -632785474 1174775919 1153106242



                      ************************************************************************
                      *  ADF 2026.103  RunTime: May23-2026 13:28:15  ShM Nodes: 1  Procs: 1  *
                      ************************************************************************
  

       ****************************
       * SINGLE POINT CALCULATION *
       ****************************

--------
Geometry
--------
Formula: C4H5O2
Atoms
  Index Symbol   x (angstrom)   y (angstrom)   z (angstrom)
      1      C     0.23474017    -1.59022701    -0.68115552
      2      C    -0.66732360    -0.72295895    -0.11869783
      3      C    -1.41309225     0.23135982    -1.02765884
      4      C    -2.17148432     1.33413565    -0.35981069
      5      O    -1.38698872     0.09063750    -2.22615650
      6      O    -0.74316147    -0.51681352     1.13804223
      7      H     0.25989731    -1.69428590    -1.75614434
      8      H     0.61389605    -2.40126674    -0.08078476
      9      H    -1.49111124     1.95234722     0.22392565
     10      H    -2.67589326     1.93280344    -1.11118829
     11      H    -2.88733131     0.91688737     0.34559881

Total System Charge              0.00000


----------------
ADF Engine Input
----------------
 
   basis
     core None
     type TZ2P
   End
   numericalquality Good
   relativity
     level Scalar
   End
   scf
     mixing 0.05
   End
   spinpolarization 1
   symmetry NOSYM
   unrestricted yes
   xc
     dispersion Grimme3 BJDAMP
     gga BLYP
   End
 

 Title: *** (NO TITLE) ***

 *** adf ***



 ===========================
 A T T A C H E D   F I L E S
 ===========================
  



 ===============================
 M O D E L   P A R A M E T E R S
 ===============================
  
 DENSITY FUNCTIONAL POTENTIAL (scf)
    LDA:                               Exchange only                           == Not Default ==
    Gradient Corrections:              Becke88 LYP                             == Not Default ==

 SPIN  (restricted / unrestr.)
    Molecule:                          UNrestricted                            == Not Default ==
    Fragments:                         Restricted                               

 OTHER ASPECTS
    Relativistic Corrections:          scalar (ZORA,MAPA)                       

    Nuclear Charge Density Model:      Point Charge Nuclei                      
    Core Treatment:                    Frozen Orbital(s)                        

    Hyperfine or Zeeman Interaction:   ---                                      

 Settings for Grimme D3 dispersion correction

      damping                        BJ
      s6                          1.000
      s8                          2.700
      a1                          0.430
      a2                          4.236

 Other (technical) parameters

      alpha                      14.000
      version                         4
 


 Fragment File(s)
 ----------------
 C:
         file : /gpfs/tmp_cpu2/yeseo1ee_plams/ac_batch/plams_ac/ac_eda/frag1/t21.7F7683F6.C
         jobid: 0
         title: Carbon (TZ2P)
 O:
         file : /gpfs/tmp_cpu2/yeseo1ee_plams/ac_batch/plams_ac/ac_eda/frag1/t21.1075635D.O
         jobid: 0
         title: Oxygen (TZ2P)
 H:
         file : /gpfs/tmp_cpu2/yeseo1ee_plams/ac_batch/plams_ac/ac_eda/frag1/t21.5DE63076.H
         jobid: 0
         title: Hydrogen (TZ2P)



 ===============
 G E O M E T R Y  ***  3D  Molecule  ***
 ===============
  

 ATOMS
 =====                            X Y Z                    CHARGE
                                (Angstrom)             Nucl     +Core       At.Mass
                       --------------------------    ----------------       -------
    1  C               0.2347   -1.5902   -0.6812      6.00      6.00       12.0000
    2  C              -0.6673   -0.7230   -0.1187      6.00      6.00       12.0000
    3  C              -1.4131    0.2314   -1.0277      6.00      6.00       12.0000
    4  C              -2.1715    1.3341   -0.3598      6.00      6.00       12.0000
    5  O              -1.3870    0.0906   -2.2262      8.00      8.00       15.9949
    6  O              -0.7432   -0.5168    1.1380      8.00      8.00       15.9949
    7  H               0.2599   -1.6943   -1.7561      1.00      1.00        1.0078
    8  H               0.6139   -2.4013   -0.0808      1.00      1.00        1.0078
    9  H              -1.4911    1.9523    0.2239      1.00      1.00        1.0078
   10  H              -2.6759    1.9328   -1.1112      1.00      1.00        1.0078
   11  H              -2.8873    0.9169    0.3456      1.00      1.00        1.0078


 FRAGMENTS
 =========                                     Atoms in this Fragment     Cart. coord.s (Angstrom)
                                               -------------------------------------------------------
    1  C                                                 1  C            0.2347   -1.5902   -0.6812
    2  C                                                 2  C           -0.6673   -0.7230   -0.1187
    3  C                                                 3  C           -1.4131    0.2314   -1.0277
    4  C                                                 4  C           -2.1715    1.3341   -0.3598
    5  O                                                 5  O           -1.3870    0.0906   -2.2262
    6  O                                                 6  O           -0.7432   -0.5168    1.1380
    7  H                                                 7  H            0.2599   -1.6943   -1.7561
    8  H                                                 8  H            0.6139   -2.4013   -0.0808
    9  H                                                 9  H           -1.4911    1.9523    0.2239
   10  H                                                10  H           -2.6759    1.9328   -1.1112
   11  H                                                11  H           -2.8873    0.9169    0.3456


 Interatomic Distance Matrix (Angstrom)
 --------------------------------------

   1)     0.000
   2)     1.372   0.000
   3)     2.481   1.514   0.000
   4)     3.801   2.560   1.496   0.000
   5)     2.800   2.371   1.207   2.376   0.000
   6)     2.328   1.276   2.387   2.777   3.479   0.000
   7)     1.080   2.118   2.653   4.127   2.474   3.282   0.000
   8)     1.078   2.112   3.455   4.668   3.849   2.623   1.853   0.000
   9)     4.043   2.820   2.129   1.089   3.079   2.737   4.504   4.845   0.000
  10)     4.590   3.475   2.121   1.085   2.510   3.846   4.711   5.538   1.785   0.000
  11)     4.134   2.799   2.128   1.088   3.090   2.698   4.598   4.843   1.743   1.789
          0.000

 Min. Distance =    1.0780
 Max. Distance =    5.5379



 =====================================
 S Y M M E T R Y ,   E L E C T R O N S
 =====================================
  
 Symmetry: NOSYM

 Irreducible Representations, including subspecies
 -------------------------------------------------
 A


 Configuration of Valence Electrons
 ==================================
 ( determined in the SCF procedure )

 Total:   23 (Spin-A)  + 22 (Spin-B)

 Net Charge: 0 (Nuclei minus Electrons)
 Spin polar: 1 (Spin_A minus Spin_B electrons)

 Aufbau principle for MO occupations will be applied through SCF cycle no.     150
 Thereafter, the program will assign electrons to MOs that are spatially
 similar to the occupied MOs in a "reference" cycle ("KeepOrbitals").
 The reference cycle is always the PREVIOUS cycle: it will evolve with
 the SCF procedure.
 ***************************************************************************************************



                                      ****************************************
                                      *  B U I L D : (Fragments, Functions)  *
                                      ****************************************
  



 =======
 S F O s  ***  (Symmetrized Fragment Orbitals)  ***
 =======
  
 SFOs are linear combinations of (valence) Fragment Orbitals (FOs), such that the SFOs transform as the
 irreducible representations of the (molecular) symmetry group. Each SFO is therefore characterized by
 an irrep of the molecule and by a few (or only one) generating FOs.
 The SFOs constitute a symmetry-adapted basis for the Fock matrix. The MO eigenvector coefficients in
 this basis provide a direct interpretation of the MOs in terms of Frontier Orbital Theory.

 The SFOs are combined with auxiliary Core Functions (CFs) to ensure orthogonalization on the (frozen)
 Core Orbitals (COs). The Core-orthogonalized SFOs (CSFOs) constitute the true Fock basis.

 The FOs, and hence also the (C)SFOs are combinations of the elementary basis functions (BAS). The basis
 functions that participate in the description of the SFOs depend on the irrep. The indices of the
 involved functions are printed below for each irrep.
 (The complete list of primitive basis functions is printed in another section)

 Total nr. of (C)SFOs (summation over all irreps) :   211

 NOTE: a (C)SFO that is defined as a combination of more than one FO is usually NOT normalized.



                                       === A ===
 Nr. of SFOs :  211
 Cartesian basis functions that participate in this irrep (total number =   240) :
      1     2     3     4     5     6     9    12     7    10
     13     8    11    14    15    16    17    18    19    20
     21    22    23    24    25    26    27    28    29    30
     31    32    33    34    35    36    39    42    37    40
     43    38    41    44    45    46    47    48    49    50
     51    52    53    54    55    56    57    58    59    60
     61    62    63    64    65    66    69    72    67    70
     73    68    71    74    75    76    77    78    79    80
     81    82    83    84    85    86    87    88    89    90
     91    92    93    94    95    96    99   102    97   100
    103    98   101   104   105   106   107   108   109   110
    111   112   113   114   115   116   117   118   119   120
    121   122   123   124   125   126   129   132   127   130
    133   128   131   134   135   136   137   138   139   140
    141   142   143   144   145   146   147   148   149   150
    151   152   153   154   155   156   159   162   157   160
    163   158   161   164   165   166   167   168   169   170
    171   172   173   174   175   176   177   178   179   180
    181   182   183   184   185   186   187   188   189   190
    191   192   193   194   195   196   197   198   199   200
    201   202   203   204   205   206   207   208   209   210
    211   212   213   214   215   216   217   218   219   220
    221   222   223   224   225   226   227   228   229   230
    231   232   233   234   235   236   237   238   239   240

    SFO  (index         Fragment          Generating    Expansion in Fragment Orbitals
  indx  incl.CFs)   Occup   Orb.Energy   FragmentType  Coeff.   Orbital     on Fragment
 --------------------------------------------------------------------------------------
     1       1      2.000     -10.066 au  C             1.00      1 S               1
                        (    -273.921 eV)
     2       2      2.000      -0.501 au  C             1.00      2 S               1
                        (     -13.620 eV)
     3       3       --         0.373 au  C             1.00      3 S               1
                        (      10.158 eV)
     4       4       --         5.405 au  C             1.00      4 S               1
                        (     147.073 eV)
     5       5       --        49.848 au  C             1.00      5 S               1
                        (    1356.422 eV)
     6       6      0.667      -0.193 au  C             1.00      1 P:x             1
                        (      -5.239 eV)
     7       7       --         0.169 au  C             1.00      2 P:x             1
                        (       4.589 eV)
     8       8       --         2.013 au  C             1.00      3 P:x             1
                        (      54.789 eV)
     9       9      0.667      -0.193 au  C             1.00      1 P:y             1
                        (      -5.239 eV)
    10      10       --         0.169 au  C             1.00      2 P:y             1
                        (       4.589 eV)
    11      11       --         2.013 au  C             1.00      3 P:y             1
                        (      54.789 eV)
    12      12      0.667      -0.193 au  C             1.00      1 P:z             1
                        (      -5.239 eV)
    13      13       --         0.169 au  C             1.00      2 P:z             1
                        (       4.589 eV)
    14      14       --         2.013 au  C             1.00      3 P:z             1
                        (      54.789 eV)
    15      15       --         1.243 au  C             1.00      1 D:z2            1
                        (      33.824 eV)
    16      16       --         1.243 au  C             1.00      1 D:x2-y2         1
                        (      33.824 eV)
    17      17       --         1.243 au  C             1.00      1 D:xy            1
                        (      33.824 eV)
    18      18       --         1.243 au  C             1.00      1 D:xz            1
                        (      33.824 eV)
    19      19       --         1.243 au  C             1.00      1 D:yz            1
                        (      33.824 eV)
    20      20       --         4.016 au  C             1.00      1 F:z3            1
                        (     109.271 eV)
    21      21       --         4.016 au  C             1.00      1 F:z             1
                        (     109.271 eV)
    22      22       --         4.016 au  C             1.00      1 F:xyz           1
                        (     109.271 eV)
    23      23       --         4.016 au  C             1.00      1 F:z2x           1
                        (     109.271 eV)
    24      24       --         4.016 au  C             1.00      1 F:z2y           1
                        (     109.271 eV)
    25      25       --         4.016 au  C             1.00      1 F:x             1
                        (     109.271 eV)
    26      26       --         4.016 au  C             1.00      1 F:y             1
                        (     109.271 eV)
    27      27      2.000     -10.066 au  C             1.00      1 S               2
                        (    -273.921 eV)
    28      28      2.000      -0.501 au  C             1.00      2 S               2
                        (     -13.620 eV)
    29      29       --         0.373 au  C             1.00      3 S               2
                        (      10.158 eV)
    30      30       --         5.405 au  C             1.00      4 S               2
                        (     147.073 eV)
    31      31       --        49.848 au  C             1.00      5 S               2
                        (    1356.422 eV)
    32      32      0.667      -0.193 au  C             1.00      1 P:x             2
                        (      -5.239 eV)
    33      33       --         0.169 au  C             1.00      2 P:x             2
                        (       4.589 eV)
    34      34       --         2.013 au  C             1.00      3 P:x             2
                        (      54.789 eV)
    35      35      0.667      -0.193 au  C             1.00      1 P:y             2
                        (      -5.239 eV)
    36      36       --         0.169 au  C             1.00      2 P:y             2
                        (       4.589 eV)
    37      37       --         2.013 au  C             1.00      3 P:y             2
                        (      54.789 eV)
    38      38      0.667      -0.193 au  C             1.00      1 P:z             2
                        (      -5.239 eV)
    39      39       --         0.169 au  C             1.00      2 P:z             2
                        (       4.589 eV)
    40      40       --         2.013 au  C             1.00      3 P:z             2
                        (      54.789 eV)
    41      41       --         1.243 au  C             1.00      1 D:z2            2
                        (      33.824 eV)
    42      42       --         1.243 au  C             1.00      1 D:x2-y2         2
                        (      33.824 eV)
    43      43       --         1.243 au  C             1.00      1 D:xy            2
                        (      33.824 eV)
    44      44       --         1.243 au  C             1.00      1 D:xz            2
                        (      33.824 eV)
    45      45       --         1.243 au  C             1.00      1 D:yz            2
                        (      33.824 eV)
    46      46       --         4.016 au  C             1.00      1 F:z3            2
                        (     109.271 eV)
    47      47       --         4.016 au  C             1.00      1 F:z             2
                        (     109.271 eV)
    48      48       --         4.016 au  C             1.00      1 F:xyz           2
                        (     109.271 eV)
    49      49       --         4.016 au  C             1.00      1 F:z2x           2
                        (     109.271 eV)
    50      50       --         4.016 au  C             1.00      1 F:z2y           2
                        (     109.271 eV)
    51      51       --         4.016 au  C             1.00      1 F:x             2
                        (     109.271 eV)
    52      52       --         4.016 au  C             1.00      1 F:y             2
                        (     109.271 eV)
    53      53      2.000     -10.066 au  C             1.00      1 S               3
                        (    -273.921 eV)
    54      54      2.000      -0.501 au  C             1.00      2 S               3
                        (     -13.620 eV)
    55      55       --         0.373 au  C             1.00      3 S               3
                        (      10.158 eV)
    56      56       --         5.405 au  C             1.00      4 S               3
                        (     147.073 eV)
    57      57       --        49.848 au  C             1.00      5 S               3
                        (    1356.422 eV)
    58      58      0.667      -0.193 au  C             1.00      1 P:x             3
                        (      -5.239 eV)
    59      59       --         0.169 au  C             1.00      2 P:x             3
                        (       4.589 eV)
    60      60       --         2.013 au  C             1.00      3 P:x             3
                        (      54.789 eV)
    61      61      0.667      -0.193 au  C             1.00      1 P:y             3
                        (      -5.239 eV)
    62      62       --         0.169 au  C             1.00      2 P:y             3
                        (       4.589 eV)
    63      63       --         2.013 au  C             1.00      3 P:y             3
                        (      54.789 eV)
    64      64      0.667      -0.193 au  C             1.00      1 P:z             3
                        (      -5.239 eV)
    65      65       --         0.169 au  C             1.00      2 P:z             3
                        (       4.589 eV)
    66      66       --         2.013 au  C             1.00      3 P:z             3
                        (      54.789 eV)
    67      67       --         1.243 au  C             1.00      1 D:z2            3
                        (      33.824 eV)
    68      68       --         1.243 au  C             1.00      1 D:x2-y2         3
                        (      33.824 eV)
    69      69       --         1.243 au  C             1.00      1 D:xy            3
                        (      33.824 eV)
    70      70       --         1.243 au  C             1.00      1 D:xz            3
                        (      33.824 eV)
    71      71       --         1.243 au  C             1.00      1 D:yz            3
                        (      33.824 eV)
    72      72       --         4.016 au  C             1.00      1 F:z3            3
                        (     109.271 eV)
    73      73       --         4.016 au  C             1.00      1 F:z             3
                        (     109.271 eV)
    74      74       --         4.016 au  C             1.00      1 F:xyz           3
                        (     109.271 eV)
    75      75       --         4.016 au  C             1.00      1 F:z2x           3
                        (     109.271 eV)
    76      76       --         4.016 au  C             1.00      1 F:z2y           3
                        (     109.271 eV)
    77      77       --         4.016 au  C             1.00      1 F:x             3
                        (     109.271 eV)
    78      78       --         4.016 au  C             1.00      1 F:y             3
                        (     109.271 eV)
    79      79      2.000     -10.066 au  C             1.00      1 S               4
                        (    -273.921 eV)
    80      80      2.000      -0.501 au  C             1.00      2 S               4
                        (     -13.620 eV)
    81      81       --         0.373 au  C             1.00      3 S               4
                        (      10.158 eV)
    82      82       --         5.405 au  C             1.00      4 S               4
                        (     147.073 eV)
    83      83       --        49.848 au  C             1.00      5 S               4
                        (    1356.422 eV)
    84      84      0.667      -0.193 au  C             1.00      1 P:x             4
                        (      -5.239 eV)
    85      85       --         0.169 au  C             1.00      2 P:x             4
                        (       4.589 eV)
    86      86       --         2.013 au  C             1.00      3 P:x             4
                        (      54.789 eV)
    87      87      0.667      -0.193 au  C             1.00      1 P:y             4
                        (      -5.239 eV)
    88      88       --         0.169 au  C             1.00      2 P:y             4
                        (       4.589 eV)
    89      89       --         2.013 au  C             1.00      3 P:y             4
                        (      54.789 eV)
    90      90      0.667      -0.193 au  C             1.00      1 P:z             4
                        (      -5.239 eV)
    91      91       --         0.169 au  C             1.00      2 P:z             4
                        (       4.589 eV)
    92      92       --         2.013 au  C             1.00      3 P:z             4
                        (      54.789 eV)
    93      93       --         1.243 au  C             1.00      1 D:z2            4
                        (      33.824 eV)
    94      94       --         1.243 au  C             1.00      1 D:x2-y2         4
                        (      33.824 eV)
    95      95       --         1.243 au  C             1.00      1 D:xy            4
                        (      33.824 eV)
    96      96       --         1.243 au  C             1.00      1 D:xz            4
                        (      33.824 eV)
    97      97       --         1.243 au  C             1.00      1 D:yz            4
                        (      33.824 eV)
    98      98       --         4.016 au  C             1.00      1 F:z3            4
                        (     109.271 eV)
    99      99       --         4.016 au  C             1.00      1 F:z             4
                        (     109.271 eV)
   100     100       --         4.016 au  C             1.00      1 F:xyz           4
                        (     109.271 eV)
   101     101       --         4.016 au  C             1.00      1 F:z2x           4
                        (     109.271 eV)
   102     102       --         4.016 au  C             1.00      1 F:z2y           4
                        (     109.271 eV)
   103     103       --         4.016 au  C             1.00      1 F:x             4
                        (     109.271 eV)
   104     104       --         4.016 au  C             1.00      1 F:y             4
                        (     109.271 eV)
   105     105      2.000     -18.941 au  O             1.00      1 S               5
                        (    -515.403 eV)
   106     106      2.000      -0.876 au  O             1.00      2 S               5
                        (     -23.838 eV)
   107     107       --         0.791 au  O             1.00      3 S               5
                        (      21.524 eV)
   108     108       --        13.422 au  O             1.00      4 S               5
                        (     365.226 eV)
   109     109       --       121.561 au  O             1.00      5 S               5
                        (    3307.838 eV)
   110     110      1.333      -0.331 au  O             1.00      1 P:x             5
                        (      -9.020 eV)
   111     111       --         0.347 au  O             1.00      2 P:x             5
                        (       9.437 eV)
   112     112       --         3.820 au  O             1.00      3 P:x             5
                        (     103.939 eV)
   113     113      1.333      -0.331 au  O             1.00      1 P:y             5
                        (      -9.020 eV)
   114     114       --         0.347 au  O             1.00      2 P:y             5
                        (       9.437 eV)
   115     115       --         3.820 au  O             1.00      3 P:y             5
                        (     103.939 eV)
   116     116      1.333      -0.331 au  O             1.00      1 P:z             5
                        (      -9.020 eV)
   117     117       --         0.347 au  O             1.00      2 P:z             5
                        (       9.437 eV)
   118     118       --         3.820 au  O             1.00      3 P:z             5
                        (     103.939 eV)
   119     119       --         1.071 au  O             1.00      1 D:z2            5
                        (      29.134 eV)
   120     120       --         1.071 au  O             1.00      1 D:x2-y2         5
                        (      29.134 eV)
   121     121       --         1.071 au  O             1.00      1 D:xy            5
                        (      29.134 eV)
   122     122       --         1.071 au  O             1.00      1 D:xz            5
                        (      29.134 eV)
   123     123       --         1.071 au  O             1.00      1 D:yz            5
                        (      29.134 eV)
   124     124       --         3.359 au  O             1.00      1 F:z3            5
                        (      91.410 eV)
   125     125       --         3.359 au  O             1.00      1 F:z             5
                        (      91.410 eV)
   126     126       --         3.359 au  O             1.00      1 F:xyz           5
                        (      91.410 eV)
   127     127       --         3.359 au  O             1.00      1 F:z2x           5
                        (      91.410 eV)
   128     128       --         3.359 au  O             1.00      1 F:z2y           5
                        (      91.410 eV)
   129     129       --         3.359 au  O             1.00      1 F:x             5
                        (      91.410 eV)
   130     130       --         3.359 au  O             1.00      1 F:y             5
                        (      91.410 eV)
   131     131      2.000     -18.941 au  O             1.00      1 S               6
                        (    -515.403 eV)
   132     132      2.000      -0.876 au  O             1.00      2 S               6
                        (     -23.838 eV)
   133     133       --         0.791 au  O             1.00      3 S               6
                        (      21.524 eV)
   134     134       --        13.422 au  O             1.00      4 S               6
                        (     365.226 eV)
   135     135       --       121.561 au  O             1.00      5 S               6
                        (    3307.838 eV)
   136     136      1.333      -0.331 au  O             1.00      1 P:x             6
                        (      -9.020 eV)
   137     137       --         0.347 au  O             1.00      2 P:x             6
                        (       9.437 eV)
   138     138       --         3.820 au  O             1.00      3 P:x             6
                        (     103.939 eV)
   139     139      1.333      -0.331 au  O             1.00      1 P:y             6
                        (      -9.020 eV)
   140     140       --         0.347 au  O             1.00      2 P:y             6
                        (       9.437 eV)
   141     141       --         3.820 au  O             1.00      3 P:y             6
                        (     103.939 eV)
   142     142      1.333      -0.331 au  O             1.00      1 P:z             6
                        (      -9.020 eV)
   143     143       --         0.347 au  O             1.00      2 P:z             6
                        (       9.437 eV)
   144     144       --         3.820 au  O             1.00      3 P:z             6
                        (     103.939 eV)
   145     145       --         1.071 au  O             1.00      1 D:z2            6
                        (      29.134 eV)
   146     146       --         1.071 au  O             1.00      1 D:x2-y2         6
                        (      29.134 eV)
   147     147       --         1.071 au  O             1.00      1 D:xy            6
                        (      29.134 eV)
   148     148       --         1.071 au  O             1.00      1 D:xz            6
                        (      29.134 eV)
   149     149       --         1.071 au  O             1.00      1 D:yz            6
                        (      29.134 eV)
   150     150       --         3.359 au  O             1.00      1 F:z3            6
                        (      91.410 eV)
   151     151       --         3.359 au  O             1.00      1 F:z             6
                        (      91.410 eV)
   152     152       --         3.359 au  O             1.00      1 F:xyz           6
                        (      91.410 eV)
   153     153       --         3.359 au  O             1.00      1 F:z2x           6
                        (      91.410 eV)
   154     154       --         3.359 au  O             1.00      1 F:z2y           6
                        (      91.410 eV)
   155     155       --         3.359 au  O             1.00      1 F:x             6
                        (      91.410 eV)
   156     156       --         3.359 au  O             1.00      1 F:y             6
                        (      91.410 eV)
   157     157      1.000      -0.240 au  H             1.00      1 S               7
                        (      -6.532 eV)
   158     158       --         0.088 au  H             1.00      2 S               7
                        (       2.394 eV)
   159     159       --         1.502 au  H             1.00      3 S               7
                        (      40.869 eV)
   160     160       --         0.406 au  H             1.00      1 P:x             7
                        (      11.051 eV)
   161     161       --         0.406 au  H             1.00      1 P:y             7
                        (      11.051 eV)
   162     162       --         0.406 au  H             1.00      1 P:z             7
                        (      11.051 eV)
   163     163       --         2.569 au  H             1.00      1 D:z2            7
                        (      69.917 eV)
   164     164       --         2.569 au  H             1.00      1 D:x2-y2         7
                        (      69.917 eV)
   165     165       --         2.569 au  H             1.00      1 D:xy            7
                        (      69.917 eV)
   166     166       --         2.569 au  H             1.00      1 D:xz            7
                        (      69.917 eV)
   167     167       --         2.569 au  H             1.00      1 D:yz            7
                        (      69.917 eV)
   168     168      1.000      -0.240 au  H             1.00      1 S               8
                        (      -6.532 eV)
   169     169       --         0.088 au  H             1.00      2 S               8
                        (       2.394 eV)
   170     170       --         1.502 au  H             1.00      3 S               8
                        (      40.869 eV)
   171     171       --         0.406 au  H             1.00      1 P:x             8
                        (      11.051 eV)
   172     172       --         0.406 au  H             1.00      1 P:y             8
                        (      11.051 eV)
   173     173       --         0.406 au  H             1.00      1 P:z             8
                        (      11.051 eV)
   174     174       --         2.569 au  H             1.00      1 D:z2            8
                        (      69.917 eV)
   175     175       --         2.569 au  H             1.00      1 D:x2-y2         8
                        (      69.917 eV)
   176     176       --         2.569 au  H             1.00      1 D:xy            8
                        (      69.917 eV)
   177     177       --         2.569 au  H             1.00      1 D:xz            8
                        (      69.917 eV)
   178     178       --         2.569 au  H             1.00      1 D:yz            8
                        (      69.917 eV)
   179     179      1.000      -0.240 au  H             1.00      1 S               9
                        (      -6.532 eV)
   180     180       --         0.088 au  H             1.00      2 S               9
                        (       2.394 eV)
   181     181       --         1.502 au  H             1.00      3 S               9
                        (      40.869 eV)
   182     182       --         0.406 au  H             1.00      1 P:x             9
                        (      11.051 eV)
   183     183       --         0.406 au  H             1.00      1 P:y             9
                        (      11.051 eV)
   184     184       --         0.406 au  H             1.00      1 P:z             9
                        (      11.051 eV)
   185     185       --         2.569 au  H             1.00      1 D:z2            9
                        (      69.917 eV)
   186     186       --         2.569 au  H             1.00      1 D:x2-y2         9
                        (      69.917 eV)
   187     187       --         2.569 au  H             1.00      1 D:xy            9
                        (      69.917 eV)
   188     188       --         2.569 au  H             1.00      1 D:xz            9
                        (      69.917 eV)
   189     189       --         2.569 au  H             1.00      1 D:yz            9
                        (      69.917 eV)
   190     190      1.000      -0.240 au  H             1.00      1 S              10
                        (      -6.532 eV)
   191     191       --         0.088 au  H             1.00      2 S              10
                        (       2.394 eV)
   192     192       --         1.502 au  H             1.00      3 S              10
                        (      40.869 eV)
   193     193       --         0.406 au  H             1.00      1 P:x            10
                        (      11.051 eV)
   194     194       --         0.406 au  H             1.00      1 P:y            10
                        (      11.051 eV)
   195     195       --         0.406 au  H             1.00      1 P:z            10
                        (      11.051 eV)
   196     196       --         2.569 au  H             1.00      1 D:z2           10
                        (      69.917 eV)
   197     197       --         2.569 au  H             1.00      1 D:x2-y2        10
                        (      69.917 eV)
   198     198       --         2.569 au  H             1.00      1 D:xy           10
                        (      69.917 eV)
   199     199       --         2.569 au  H             1.00      1 D:xz           10
                        (      69.917 eV)
   200     200       --         2.569 au  H             1.00      1 D:yz           10
                        (      69.917 eV)
   201     201      1.000      -0.240 au  H             1.00      1 S              11
                        (      -6.532 eV)
   202     202       --         0.088 au  H             1.00      2 S              11
                        (       2.394 eV)
   203     203       --         1.502 au  H             1.00      3 S              11
                        (      40.869 eV)
   204     204       --         0.406 au  H             1.00      1 P:x            11
                        (      11.051 eV)
   205     205       --         0.406 au  H             1.00      1 P:y            11
                        (      11.051 eV)
   206     206       --         0.406 au  H             1.00      1 P:z            11
                        (      11.051 eV)
   207     207       --         2.569 au  H             1.00      1 D:z2           11
                        (      69.917 eV)
   208     208       --         2.569 au  H             1.00      1 D:x2-y2        11
                        (      69.917 eV)
   209     209       --         2.569 au  H             1.00      1 D:xy           11
                        (      69.917 eV)
   210     210       --         2.569 au  H             1.00      1 D:xz           11
                        (      69.917 eV)
   211     211       --         2.569 au  H             1.00      1 D:yz           11
                        (      69.917 eV)



 ================================
 (Slater-type)  F U N C T I O N S  ***  (Basis and Fit)  ***
 ================================
  

 Atom Type    1  (C)
 ==============

 Valence Basis Sets:  10
 -----------------------
   1 S    7.680000
   1 S    5.000000
   2 S    1.280000
   2 S    2.100000
   2 S    4.600000
   2 P    0.820000
   2 P    1.480000
   2 P    2.940000
   3 D    2.200000
   4 F    3.300000

 Atom Type    2  (O)
 ==============

 Valence Basis Sets:  10
 -----------------------
   1 S    9.800000
   1 S    6.800000
   2 S    7.580000
   2 S    2.880000
   2 S    1.720000
   2 P    4.080000
   2 P    2.080000
   2 P    1.120000
   3 D    2.000000
   4 F    3.000000

 Atom Type    3  (H)
 ==============

 Valence Basis Sets:   5
 -----------------------
   1 S    0.690000
   1 S    0.920000
   1 S    1.580000
   2 P    1.250000
   3 D    2.500000


 BAS: List of all Elementary Cartesian Basis Functions
 =====================================================

 The numbering in the list below (to the right of the function characteristics) is referred
 to in print-outs of MO eigenvectors and Mulliken populations in the BAS representation
 (as contrasted to the SFO representation).

 Notes:
 1. The functions are characterized by a polynomial prefactor (powers of x,y,z and r) and
    an exponential decay factor alpha.
 2. Since the basis sets are specific for an atom TYPE, the individual functions occur on
    all atoms of that type.
 3. The word 'Core' in the left margin signals that it is a Core Function (CF) : not a
    degree of freedom in the valence set, but only used to ensure orthogonalization of
    the other valence basis functions on the frozen Core Orbitals.


 (power of) X  Y  Z  R     Alpha  on Atom
            ==========     =====     ==========

 C                                    1    2    3    4
                                  ---------------------------------------------------------------------------
            0  0  0  0     7.680      1   31   61   91
            0  0  0  0     5.000      2   32   62   92
            0  0  0  1     1.280      3   33   63   93
            0  0  0  1     2.100      4   34   64   94
            0  0  0  1     4.600      5   35   65   95
            1  0  0  0     0.820      6   36   66   96
            0  1  0  0     0.820      7   37   67   97
            0  0  1  0     0.820      8   38   68   98
            1  0  0  0     1.480      9   39   69   99
            0  1  0  0     1.480     10   40   70  100
            0  0  1  0     1.480     11   41   71  101
            1  0  0  0     2.940     12   42   72  102
            0  1  0  0     2.940     13   43   73  103
            0  0  1  0     2.940     14   44   74  104
            2  0  0  0     2.200     15   45   75  105
            1  1  0  0     2.200     16   46   76  106
            1  0  1  0     2.200     17   47   77  107
            0  2  0  0     2.200     18   48   78  108
            0  1  1  0     2.200     19   49   79  109
            0  0  2  0     2.200     20   50   80  110
            3  0  0  0     3.300     21   51   81  111
            2  1  0  0     3.300     22   52   82  112
            2  0  1  0     3.300     23   53   83  113
            1  2  0  0     3.300     24   54   84  114
            1  1  1  0     3.300     25   55   85  115
            1  0  2  0     3.300     26   56   86  116
            0  3  0  0     3.300     27   57   87  117
            0  2  1  0     3.300     28   58   88  118
            0  1  2  0     3.300     29   59   89  119
            0  0  3  0     3.300     30   60   90  120

 O                                    5    6
                                  ---------------------------------------------------------------------------
            0  0  0  0     9.800    121  151
            0  0  0  0     6.800    122  152
            0  0  0  1     7.580    123  153
            0  0  0  1     2.880    124  154
            0  0  0  1     1.720    125  155
            1  0  0  0     4.080    126  156
            0  1  0  0     4.080    127  157
            0  0  1  0     4.080    128  158
            1  0  0  0     2.080    129  159
            0  1  0  0     2.080    130  160
            0  0  1  0     2.080    131  161
            1  0  0  0     1.120    132  162
            0  1  0  0     1.120    133  163
            0  0  1  0     1.120    134  164
            2  0  0  0     2.000    135  165
            1  1  0  0     2.000    136  166
            1  0  1  0     2.000    137  167
            0  2  0  0     2.000    138  168
            0  1  1  0     2.000    139  169
            0  0  2  0     2.000    140  170
            3  0  0  0     3.000    141  171
            2  1  0  0     3.000    142  172
            2  0  1  0     3.000    143  173
            1  2  0  0     3.000    144  174
            1  1  1  0     3.000    145  175
            1  0  2  0     3.000    146  176
            0  3  0  0     3.000    147  177
            0  2  1  0     3.000    148  178
            0  1  2  0     3.000    149  179
            0  0  3  0     3.000    150  180

 H                                    7    8    9   10   11
                                  ---------------------------------------------------------------------------
            0  0  0  0     0.690    181  193  205  217  229
            0  0  0  0     0.920    182  194  206  218  230
            0  0  0  0     1.580    183  195  207  219  231
            1  0  0  0     1.250    184  196  208  220  232
            0  1  0  0     1.250    185  197  209  221  233
            0  0  1  0     1.250    186  198  210  222  234
            2  0  0  0     2.500    187  199  211  223  235
            1  1  0  0     2.500    188  200  212  224  236
            1  0  1  0     2.500    189  201  213  225  237
            0  2  0  0     2.500    190  202  214  226  238
            0  1  1  0     2.500    191  203  215  227  239
            0  0  2  0     2.500    192  204  216  228  240

 Total number of charge fitting functions (nprimf)       754
 Total number of Cartesian basis functions (naos)        240
 Total number of Cartesian core functions  (ncos)          0

 ***************************************************************************************************



                                              ***********************
                                              *  T E C H N I C A L  *
                                              ***********************
  



 =============================================================
 P A R A L L E L I Z A T I O N  and  V E C T O R I Z A T I O N
 =============================================================
  
 Nr of parallel processes:                                1
 Maximum vector length in NumInt loops:                 128



 =====================
 S C F   U P D A T E S
 =====================
  
 Max. nr. of cycles:                               300
 Convergence criterion:                              0.0000010000
   secondary criterion:                              0.0010000000

 Mix parameter (when DIIS does not apply):           0.0500000000
 Mixed ADIIS+SDIIS will be used                  
    Max number of expansion vectors:                10
    Pure ADIIS when Max([F,P]) is above              0.1000000000
    Pure SDIIS when Max([F,P]) is below              0.0010000000
 Automatic ElectronSmearing (in case of problematic SCF convergence) disabled



 =================
 P R E C I S I O N  ***  (General: NumInt, NeglectFunctionTails, ...)  ***
 =================
  

 NumInt:           Target precision:                 6.0000000000
 -------           Initial precision:                6.0000000000
                   Min. precision (optimization):    6.0000000000

 Neglect Functions:          Basis functions:        0.1000000000E-07
 ------------------          Fit functions:          0.1000000000E-07



 ===========================
 L I N E A R   S C A L I N G
 ===========================
  

 Cut-off radii density fit:                        0.1000000000E-09
 Overlap cut-off criterion AO matrix elements:     0.1000000000E-07
 Cut-offs for Coulomb potential and fitted density:0.1000000000E-09
 Cut-off criterion for Coulomb multipole terms:    0.1000000000E-09
 Progressive Convergence parameter:                 0.000000000    
 ***************************************************************************************************



                                            ***************************
                                            *  C O M P U T A T I O N  *
                                            ***************************
  

 Number of elements of the density matrix on this node (used, total):     28920     28920



 ===========================================
 Numerical Integration : Fuzzy Cells (Becke)
 ===========================================
  
 Becke grid quality: GOOD           
  
 Lebedev angular grid order:             min:  11 max:  31
 Nr. of radial points:                   min:  54 max:  61

 Total nr. of points:     136651
 Nr. of blocks:             1068
 Block length:               128
 Nr. of dummy points:         53


 Test of Precision of the Numerical Integration Grid
 ===================================================

 Integral of the Total Core Density:                   0.00000000000000



 ========================
 Density Fitting (zlmFit)
 ========================
  
 ZlmFit Fit Quality: GOOD           
  
 Max L-expansion:                        min:   8 max:   9
 Nr. of radial interpolation points:     min:  78 max: 108



 =====
 S C F  ***  ScaSCF  ***
 =====
  
 Initial density matrix is calculated as sum of fragments

 CYCLE    1
 SCF Error: norm([F,P])=      5.759095858805, max([F,P])=      0.757406551808
 ***** SPIN 1 *****
 orbitals (Q,E):
 ---------------
 A :14...33          ( 1.00    -0.5751)  ( 1.00    -0.5575)  ( 1.00    -0.5456)  ( 1.00    -0.5379)
                     ( 1.00    -0.5049)  ( 1.00    -0.4909)  ( 1.00    -0.4657)  ( 1.00    -0.4205)
                     ( 1.00    -0.3665)  ( 1.00    -0.3435)  ( 0.00    -0.2195)  ( 0.00    -0.0975)
                     ( 0.00    -0.0482)  ( 0.00    -0.0268)  ( 0.00    -0.0105)  ( 0.00    -0.0016)
                     ( 0.00     0.0021)  ( 0.00     0.0274)  ( 0.00     0.0407)  ( 0.00     0.0646)
 ***** SPIN 2 *****
 orbitals (Q,E):
 ---------------
 A :13...32          ( 1.00    -0.6020)  ( 1.00    -0.5751)  ( 1.00    -0.5575)  ( 1.00    -0.5456)
                     ( 1.00    -0.5379)  ( 1.00    -0.5049)  ( 1.00    -0.4909)  ( 1.00    -0.4657)
                     ( 1.00    -0.4205)  ( 1.00    -0.3665)  ( 0.00    -0.3435)  ( 0.00    -0.2195)
                     ( 0.00    -0.0975)  ( 0.00    -0.0482)  ( 0.00    -0.0268)  ( 0.00    -0.0105)
                     ( 0.00    -0.0016)  ( 0.00     0.0021)  ( 0.00     0.0274)  ( 0.00     0.0407)
  
 Spin polar: 1 (Spin_A minus Spin_B electrons)

 CYCLE    2
   MIX coefficients:  0.9500  0.0500
 SCF Error: norm([F,P])=      1.076419254894, max([F,P])=      0.082387198146
 ***** SPIN 1 *****
 orbitals (Q,E):
 ---------------
 A :14...24          ( 1.00    -0.5600)  ( 1.00    -0.5435)  ( 1.00    -0.5311)  ( 1.00    -0.5227)
                     ( 1.00    -0.4917)  ( 1.00    -0.4783)  ( 1.00    -0.4518)  ( 1.00    -0.4036)
                     ( 1.00    -0.3502)  ( 1.00    -0.3331)  ( 0.00    -0.2099)
 ***** SPIN 2 *****
 orbitals (Q,E):
 ---------------
 A :13...23          ( 1.00    -0.5882)  ( 1.00    -0.5597)  ( 1.00    -0.5434)  ( 1.00    -0.5310)
                     ( 1.00    -0.5225)  ( 1.00    -0.4915)  ( 1.00    -0.4776)  ( 1.00    -0.4511)
                     ( 1.00    -0.4034)  ( 1.00    -0.3500)  ( 0.00    -0.3306)
  
 Spin polar: 1 (Spin_A minus Spin_B electrons)

 CYCLE    3
  SDIIS (wt  0.000): -2.0000  3.0000
 A-DIIS (wt  1.000):  0.0000  1.0000
  DIIS coefficients:  0.0000  1.0000
 SCF Error: norm([F,P])=      0.929197741793, max([F,P])=      0.071511530197
 ***** SPIN 1 *****
 orbitals (Q,E):
 ---------------
 A :14...24          ( 1.00    -0.3426)  ( 1.00    -0.3137)  ( 1.00    -0.2776)  ( 1.00    -0.2736)
                     ( 1.00    -0.2590)  ( 1.00    -0.2359)  ( 1.00    -0.2215)  ( 1.00    -0.1511)
                     ( 1.00    -0.1280)  ( 1.00    -0.0722)  ( 0.00    -0.0260)
 ***** SPIN 2 *****
 orbitals (Q,E):
 ---------------
 A :13...23          ( 1.00    -0.3648)  ( 1.00    -0.3358)  ( 1.00    -0.3120)  ( 1.00    -0.2732)
                     ( 1.00    -0.2636)  ( 1.00    -0.2552)  ( 1.00    -0.2330)  ( 1.00    -0.2161)
                     ( 1.00    -0.1236)  ( 1.00    -0.1079)  ( 0.00    -0.0689)
  
 Spin polar: 1 (Spin_A minus Spin_B electrons)

 CYCLE    4
  SDIIS (wt  0.000): -2.0000  2.8008  0.1992
 A-DIIS (wt  1.000):  0.0000  0.7795  0.2205
  DIIS coefficients:  0.0000  0.7795  0.2205
 SCF Error: norm([F,P])=      1.957914330427, max([F,P])=      0.250825884019
 ***** SPIN 1 *****
 orbitals (Q,E):
 ---------------
 A :14...24          ( 1.00    -0.4003)  ( 1.00    -0.3901)  ( 1.00    -0.3464)  ( 1.00    -0.3310)
                     ( 1.00    -0.3208)  ( 1.00    -0.3160)  ( 1.00    -0.3056)  ( 1.00    -0.2459)
                     ( 1.00    -0.1820)  ( 1.00    -0.1769)  ( 0.00    -0.0877)
 ***** SPIN 2 *****
 orbitals (Q,E):
 ---------------
 A :13...23          ( 1.00    -0.3995)  ( 1.00    -0.3970)  ( 1.00    -0.3864)  ( 1.00    -0.3415)
                     ( 1.00    -0.3261)  ( 1.00    -0.3152)  ( 1.00    -0.3058)  ( 1.00    -0.2987)
                     ( 1.00    -0.2366)  ( 1.00    -0.1705)  ( 0.00    -0.1438)
  
 Spin polar: 1 (Spin_A minus Spin_B electrons)

 CYCLE    5
  SDIIS (wt  0.244): -1.2849  1.8128  0.0955  0.3766
 A-DIIS (wt  0.756):  0.0000  0.2938  0.0112  0.6950
  DIIS coefficients: -0.3140  0.6651  0.0318  0.6172
 SCF Error: norm([F,P])=      0.569254495056, max([F,P])=      0.075804373434
 ***** SPIN 1 *****
 orbitals (Q,E):
 ---------------
 A :14...24          ( 1.00    -0.4266)  ( 1.00    -0.4181)  ( 1.00    -0.3916)  ( 1.00    -0.3825)
                     ( 1.00    -0.3692)  ( 1.00    -0.3365)  ( 1.00    -0.3053)  ( 1.00    -0.2752)
                     ( 1.00    -0.2504)  ( 1.00    -0.1806)  ( 0.00    -0.1071)
 ***** SPIN 2 *****
 orbitals (Q,E):
 ---------------
 A :13...23          ( 1.00    -0.4655)  ( 1.00    -0.4215)  ( 1.00    -0.4142)  ( 1.00    -0.3846)
                     ( 1.00    -0.3723)  ( 1.00    -0.3605)  ( 1.00    -0.3346)  ( 1.00    -0.2989)
                     ( 1.00    -0.2424)  ( 1.00    -0.2266)  ( 0.00    -0.1768)
  
 Spin polar: 1 (Spin_A minus Spin_B electrons)

 CYCLE    6
  SDIIS (wt  0.000): -1.3620  1.7794 -0.0103  0.4586  0.1343
 A-DIIS (wt  1.000):  0.0000  0.1744  0.0000  0.6368  0.1889
  DIIS coefficients:  0.0000  0.1744  0.0000  0.6368  0.1889
 SCF Error: norm([F,P])=      1.245932470446, max([F,P])=      0.180646303453
 ***** SPIN 1 *****
 orbitals (Q,E):
 ---------------
 A :14...24          ( 1.00    -0.4459)  ( 1.00    -0.4399)  ( 1.00    -0.4175)  ( 1.00    -0.3926)
                     ( 1.00    -0.3789)  ( 1.00    -0.3667)  ( 1.00    -0.3573)  ( 1.00    -0.2882)
                     ( 1.00    -0.2468)  ( 1.00    -0.2233)  ( 0.00    -0.1305)
 ***** SPIN 2 *****
 orbitals (Q,E):
 ---------------
 A :13...23          ( 1.00    -0.4699)  ( 1.00    -0.4427)  ( 1.00    -0.4356)  ( 1.00    -0.4137)
                     ( 1.00    -0.3888)  ( 1.00    -0.3722)  ( 1.00    -0.3615)  ( 1.00    -0.3406)
                     ( 1.00    -0.2768)  ( 1.00    -0.2128)  ( 0.00    -0.2051)
  
 Spin polar: 1 (Spin_A minus Spin_B electrons)

 CYCLE    7
  SDIIS (wt  0.685): -0.6838  0.9208 -0.0255  0.4270  0.1483  0.2131
 A-DIIS (wt  0.315):  0.0000  0.0000  0.0000  0.2319  0.0605  0.7076
  DIIS coefficients: -0.4684  0.6308 -0.0174  0.3655  0.1207  0.3688
 SCF Error: norm([F,P])=      0.347267512410, max([F,P])=      0.032180905933
 ***** SPIN 1 *****
 orbitals (Q,E):
 ---------------
 A :14...24          ( 1.00    -0.4276)  ( 1.00    -0.4198)  ( 1.00    -0.3870)  ( 1.00    -0.3820)
                     ( 1.00    -0.3730)  ( 1.00    -0.3489)  ( 1.00    -0.3333)  ( 1.00    -0.2776)
                     ( 1.00    -0.2421)  ( 1.00    -0.2149)  ( 0.00    -0.1109)
 ***** SPIN 2 *****
 orbitals (Q,E):
 ---------------
 A :13...23          ( 1.00    -0.4462)  ( 1.00    -0.4214)  ( 1.00    -0.4145)  ( 1.00    -0.3835)
                     ( 1.00    -0.3776)  ( 1.00    -0.3568)  ( 1.00    -0.3459)  ( 1.00    -0.3268)
                     ( 1.00    -0.2679)  ( 1.00    -0.2066)  ( 0.00    -0.1991)
  
 Spin polar: 1 (Spin_A minus Spin_B electrons)

 CYCLE    8
  SDIIS (wt  0.685): -0.2468  0.2654  0.0025  0.1123  0.0283  0.3766  0.4617
 A-DIIS (wt  0.315):  0.0000  0.0000  0.0000  0.0000  0.0000  0.3544  0.6456
  DIIS coefficients: -0.1691  0.1818  0.0017  0.0770  0.0194  0.3696  0.5196
 SCF Error: norm([F,P])=      0.245355028829, max([F,P])=      0.034157191527
 ***** SPIN 1 *****
 orbitals (Q,E):
 ---------------
 A :14...24          ( 1.00    -0.4243)  ( 1.00    -0.4158)  ( 1.00    -0.3898)  ( 1.00    -0.3765)
                     ( 1.00    -0.3648)  ( 1.00    -0.3453)  ( 1.00    -0.3320)  ( 1.00    -0.2644)
                     ( 1.00    -0.2477)  ( 1.00    -0.2092)  ( 0.00    -0.1129)
 ***** SPIN 2 *****
 orbitals (Q,E):
 ---------------
 A :13...23          ( 1.00    -0.4470)  ( 1.00    -0.4189)  ( 1.00    -0.4111)  ( 1.00    -0.3871)
                     ( 1.00    -0.3716)  ( 1.00    -0.3498)  ( 1.00    -0.3427)  ( 1.00    -0.3253)
                     ( 1.00    -0.2579)  ( 1.00    -0.2033)  ( 0.00    -0.1969)
  
 Spin polar: 1 (Spin_A minus Spin_B electrons)

 CYCLE    9
  SDIIS (wt  0.899): -0.0854  0.0893  0.0025  0.0234  0.0024  0.1850  0.3642  0.4185
 A-DIIS (wt  0.101):  0.0000  0.0000  0.0000  0.0000  0.0000  0.0000  0.2169  0.7831
  DIIS coefficients: -0.0768  0.0803  0.0022  0.0211  0.0022  0.1663  0.3493  0.4554
 SCF Error: norm([F,P])=      0.100255719037, max([F,P])=      0.011014965603
 ***** SPIN 1 *****
 orbitals (Q,E):
 ---------------
 A :14...24          ( 1.00    -0.4272)  ( 1.00    -0.4196)  ( 1.00    -0.3917)  ( 1.00    -0.3816)
                     ( 1.00    -0.3698)  ( 1.00    -0.3506)  ( 1.00    -0.3362)  ( 1.00    -0.2692)
                     ( 1.00    -0.2474)  ( 1.00    -0.2129)  ( 0.00    -0.1147)
 ***** SPIN 2 *****
 orbitals (Q,E):
 ---------------
 A :13...23          ( 1.00    -0.4496)  ( 1.00    -0.4220)  ( 1.00    -0.4154)  ( 1.00    -0.3891)
                     ( 1.00    -0.3767)  ( 1.00    -0.3549)  ( 1.00    -0.3476)  ( 1.00    -0.3287)
                     ( 1.00    -0.2627)  ( 1.00    -0.2078)  ( 0.00    -0.1961)
  
 Spin polar: 1 (Spin_A minus Spin_B electrons)

 CYCLE   10
  SDIIS (wt  0.989):  0.0215 -0.0243 -0.0009 -0.0043  0.0008 -0.0158  0.0012  0.1900  0.8318
 A-DIIS (wt  0.011):  0.0000  0.0000  0.0000  0.0000  0.0000  0.0000  0.0000  0.0386  0.9614
  DIIS coefficients:  0.0212 -0.0240 -0.0009 -0.0042  0.0008 -0.0156  0.0012  0.1882  0.8333
 SCF Error: norm([F,P])=      0.019477192240, max([F,P])=      0.002129547566
 ***** SPIN 1 *****
 orbitals (Q,E):
 ---------------
 A :14...24          ( 1.00    -0.4267)  ( 1.00    -0.4190)  ( 1.00    -0.3914)  ( 1.00    -0.3806)
                     ( 1.00    -0.3689)  ( 1.00    -0.3497)  ( 1.00    -0.3358)  ( 1.00    -0.2681)
                     ( 1.00    -0.2482)  ( 1.00    -0.2122)  ( 0.00    -0.1146)
 ***** SPIN 2 *****
 orbitals (Q,E):
 ---------------
 A :13...23          ( 1.00    -0.4493)  ( 1.00    -0.4215)  ( 1.00    -0.4149)  ( 1.00    -0.3889)
                     ( 1.00    -0.3757)  ( 1.00    -0.3540)  ( 1.00    -0.3468)  ( 1.00    -0.3285)
                     ( 1.00    -0.2623)  ( 1.00    -0.2075)  ( 0.00    -0.1952)
  
 Spin polar: 1 (Spin_A minus Spin_B electrons)

 CYCLE   11
  SDIIS (wt  1.000):  0.0224 -0.0262 -0.0003 -0.0060  0.0006 -0.0182 -0.0109  0.0171  0.2040  0.8175
  DIIS coefficients:  0.0224 -0.0262 -0.0003 -0.0060  0.0006 -0.0182 -0.0109  0.0171  0.2040  0.8175
 SCF Error: norm([F,P])=      0.006048462866, max([F,P])=      0.000665339835
 ***** SPIN 1 *****
 orbitals (Q,E):
 ---------------
 A :14...24          ( 1.00    -0.4265)  ( 1.00    -0.4188)  ( 1.00    -0.3911)  ( 1.00    -0.3806)
                     ( 1.00    -0.3690)  ( 1.00    -0.3496)  ( 1.00    -0.3354)  ( 1.00    -0.2680)
                     ( 1.00    -0.2484)  ( 1.00    -0.2118)  ( 0.00    -0.1142)
 ***** SPIN 2 *****
 orbitals (Q,E):
 ---------------
 A :13...23          ( 1.00    -0.4490)  ( 1.00    -0.4213)  ( 1.00    -0.4147)  ( 1.00    -0.3886)
                     ( 1.00    -0.3758)  ( 1.00    -0.3540)  ( 1.00    -0.3467)  ( 1.00    -0.3283)
                     ( 1.00    -0.2623)  ( 1.00    -0.2074)  ( 0.00    -0.1950)
  
 Spin polar: 1 (Spin_A minus Spin_B electrons)

 CYCLE   12
  SDIIS (wt  1.000): -0.0006  0.0000 -0.0023  0.0002 -0.0047 -0.0015 -0.0132 -0.0310  0.3236  0.7296
  DIIS coefficients: -0.0006  0.0000 -0.0023  0.0002 -0.0047 -0.0015 -0.0132 -0.0310  0.3236  0.7296
 SCF Error: norm([F,P])=      0.001682679174, max([F,P])=      0.000219135427
 ***** SPIN 1 *****
 orbitals (Q,E):
 ---------------
 A :14...24          ( 1.00    -0.4265)  ( 1.00    -0.4188)  ( 1.00    -0.3911)  ( 1.00    -0.3806)
                     ( 1.00    -0.3690)  ( 1.00    -0.3496)  ( 1.00    -0.3353)  ( 1.00    -0.2680)
                     ( 1.00    -0.2486)  ( 1.00    -0.2118)  ( 0.00    -0.1143)
 ***** SPIN 2 *****
 orbitals (Q,E):
 ---------------
 A :13...23          ( 1.00    -0.4490)  ( 1.00    -0.4214)  ( 1.00    -0.4147)  ( 1.00    -0.3886)
                     ( 1.00    -0.3758)  ( 1.00    -0.3540)  ( 1.00    -0.3467)  ( 1.00    -0.3283)
                     ( 1.00    -0.2623)  ( 1.00    -0.2074)  ( 0.00    -0.1951)
  
 Spin polar: 1 (Spin_A minus Spin_B electrons)

 CYCLE   13
  SDIIS (wt  1.000):  0.0003 -0.0006 -0.0002  0.0004  0.0001 -0.0066 -0.0419  0.0250  0.3493  0.6741
  DIIS coefficients:  0.0003 -0.0006 -0.0002  0.0004  0.0001 -0.0066 -0.0419  0.0250  0.3493  0.6741
 SCF Error: norm([F,P])=      0.000869958548, max([F,P])=      0.000112560102
 ***** SPIN 1 *****
 orbitals (Q,E):
 ---------------
 A :14...24          ( 1.00    -0.4265)  ( 1.00    -0.4188)  ( 1.00    -0.3911)  ( 1.00    -0.3806)
                     ( 1.00    -0.3691)  ( 1.00    -0.3496)  ( 1.00    -0.3353)  ( 1.00    -0.2680)
                     ( 1.00    -0.2486)  ( 1.00    -0.2118)  ( 0.00    -0.1143)
 ***** SPIN 2 *****
 orbitals (Q,E):
 ---------------
 A :13...23          ( 1.00    -0.4490)  ( 1.00    -0.4214)  ( 1.00    -0.4147)  ( 1.00    -0.3886)
                     ( 1.00    -0.3758)  ( 1.00    -0.3540)  ( 1.00    -0.3467)  ( 1.00    -0.3283)
                     ( 1.00    -0.2623)  ( 1.00    -0.2074)  ( 0.00    -0.1951)
  
 Spin polar: 1 (Spin_A minus Spin_B electrons)

 CYCLE   14
  SDIIS (wt  1.000):  0.0005  0.0000  0.0024  0.0011  0.0016 -0.0207 -0.0856  0.0124  0.3671  0.7210
  DIIS coefficients:  0.0005  0.0000  0.0024  0.0011  0.0016 -0.0207 -0.0856  0.0124  0.3671  0.7210
 SCF Error: norm([F,P])=      0.000545004468, max([F,P])=      0.000083406227
 ***** SPIN 1 *****
 orbitals (Q,E):
 ---------------
 A :14...24          ( 1.00    -0.4265)  ( 1.00    -0.4188)  ( 1.00    -0.3911)  ( 1.00    -0.3806)
                     ( 1.00    -0.3690)  ( 1.00    -0.3496)  ( 1.00    -0.3353)  ( 1.00    -0.2680)
                     ( 1.00    -0.2486)  ( 1.00    -0.2118)  ( 0.00    -0.1143)
 ***** SPIN 2 *****
 orbitals (Q,E):
 ---------------
 A :13...23          ( 1.00    -0.4490)  ( 1.00    -0.4213)  ( 1.00    -0.4147)  ( 1.00    -0.3886)
                     ( 1.00    -0.3758)  ( 1.00    -0.3540)  ( 1.00    -0.3467)  ( 1.00    -0.3283)
                     ( 1.00    -0.2623)  ( 1.00    -0.2074)  ( 0.00    -0.1951)
  
 Spin polar: 1 (Spin_A minus Spin_B electrons)

 CYCLE   15
  SDIIS (wt  1.000): -0.0000  0.0005  0.0007  0.0032  0.0028 -0.0294 -0.0843 -0.0484  0.2102  0.9448
  DIIS coefficients: -0.0000  0.0005  0.0007  0.0032  0.0028 -0.0294 -0.0843 -0.0484  0.2102  0.9448
 SCF Error: norm([F,P])=      0.000221248930, max([F,P])=      0.000041794259
 ***** SPIN 1 *****
 orbitals (Q,E):
 ---------------
 A :14...24          ( 1.00    -0.4265)  ( 1.00    -0.4188)  ( 1.00    -0.3911)  ( 1.00    -0.3806)
                     ( 1.00    -0.3691)  ( 1.00    -0.3496)  ( 1.00    -0.3353)  ( 1.00    -0.2680)
                     ( 1.00    -0.2487)  ( 1.00    -0.2118)  ( 0.00    -0.1143)
 ***** SPIN 2 *****
 orbitals (Q,E):
 ---------------
 A :13...23          ( 1.00    -0.4490)  ( 1.00    -0.4214)  ( 1.00    -0.4147)  ( 1.00    -0.3886)
                     ( 1.00    -0.3758)  ( 1.00    -0.3540)  ( 1.00    -0.3467)  ( 1.00    -0.3283)
                     ( 1.00    -0.2623)  ( 1.00    -0.2074)  ( 0.00    -0.1951)
  
 Spin polar: 1 (Spin_A minus Spin_B electrons)

 CYCLE   16
  SDIIS (wt  1.000):  0.0001  0.0004  0.0020  0.0071 -0.0052 -0.0732 -0.1614 -0.1453  0.3591  1.0165
  DIIS coefficients:  0.0001  0.0004  0.0020  0.0071 -0.0052 -0.0732 -0.1614 -0.1453  0.3591  1.0165
 SCF Error: norm([F,P])=      0.000151512556, max([F,P])=      0.000024407622
 ***** SPIN 1 *****
 orbitals (Q,E):
 ---------------
 A :14...24          ( 1.00    -0.4265)  ( 1.00    -0.4188)  ( 1.00    -0.3911)  ( 1.00    -0.3806)
                     ( 1.00    -0.3691)  ( 1.00    -0.3496)  ( 1.00    -0.3352)  ( 1.00    -0.2679)
                     ( 1.00    -0.2487)  ( 1.00    -0.2117)  ( 0.00    -0.1143)
 ***** SPIN 2 *****
 orbitals (Q,E):
 ---------------
 A :13...23          ( 1.00    -0.4490)  ( 1.00    -0.4213)  ( 1.00    -0.4146)  ( 1.00    -0.3886)
                     ( 1.00    -0.3758)  ( 1.00    -0.3540)  ( 1.00    -0.3467)  ( 1.00    -0.3283)
                     ( 1.00    -0.2623)  ( 1.00    -0.2074)  ( 0.00    -0.1951)
  
 Spin polar: 1 (Spin_A minus Spin_B electrons)

 CYCLE   17
  SDIIS (wt  1.000):  0.0000 -0.0003 -0.0019  0.0059  0.0248  0.0238 -0.0299 -0.1795 -0.0031  1.1601
  DIIS coefficients:  0.0000 -0.0003 -0.0019  0.0059  0.0248  0.0238 -0.0299 -0.1795 -0.0031  1.1601
 SCF Error: norm([F,P])=      0.000044798824, max([F,P])=      0.000007827292
 ***** SPIN 1 *****
 orbitals (Q,E):
 ---------------
 A :14...24          ( 1.00    -0.4265)  ( 1.00    -0.4188)  ( 1.00    -0.3911)  ( 1.00    -0.3806)
                     ( 1.00    -0.3691)  ( 1.00    -0.3496)  ( 1.00    -0.3352)  ( 1.00    -0.2679)
                     ( 1.00    -0.2487)  ( 1.00    -0.2117)  ( 0.00    -0.1143)
 ***** SPIN 2 *****
 orbitals (Q,E):
 ---------------
 A :13...23          ( 1.00    -0.4490)  ( 1.00    -0.4213)  ( 1.00    -0.4146)  ( 1.00    -0.3886)
                     ( 1.00    -0.3758)  ( 1.00    -0.3540)  ( 1.00    -0.3467)  ( 1.00    -0.3283)
                     ( 1.00    -0.2623)  ( 1.00    -0.2074)  ( 0.00    -0.1951)
  
 Spin polar: 1 (Spin_A minus Spin_B electrons)

 CYCLE   18
  SDIIS (wt  1.000): -0.0000 -0.0002  0.0030  0.0081  0.0072 -0.0065 -0.0849 -0.0649  0.3712  0.7671
  DIIS coefficients: -0.0000 -0.0002  0.0030  0.0081  0.0072 -0.0065 -0.0849 -0.0649  0.3712  0.7671
 SCF Error: norm([F,P])=      0.000021795028, max([F,P])=      0.000003226917
 ***** SPIN 1 *****
 orbitals (Q,E):
 ---------------
 A :14...24          ( 1.00    -0.4265)  ( 1.00    -0.4188)  ( 1.00    -0.3911)  ( 1.00    -0.3806)
                     ( 1.00    -0.3691)  ( 1.00    -0.3496)  ( 1.00    -0.3352)  ( 1.00    -0.2679)
                     ( 1.00    -0.2487)  ( 1.00    -0.2117)  ( 0.00    -0.1143)
 ***** SPIN 2 *****
 orbitals (Q,E):
 ---------------
 A :13...23          ( 1.00    -0.4490)  ( 1.00    -0.4213)  ( 1.00    -0.4146)  ( 1.00    -0.3886)
                     ( 1.00    -0.3758)  ( 1.00    -0.3540)  ( 1.00    -0.3467)  ( 1.00    -0.3283)
                     ( 1.00    -0.2623)  ( 1.00    -0.2074)  ( 0.00    -0.1951)
  
 Spin polar: 1 (Spin_A minus Spin_B electrons)

 CYCLE   19
  SDIIS (wt  1.000): -0.0000 -0.0001 -0.0005 -0.0010  0.0015 -0.0014 -0.0255 -0.0999  0.3536  0.7732
  DIIS coefficients: -0.0000 -0.0001 -0.0005 -0.0010  0.0015 -0.0014 -0.0255 -0.0999  0.3536  0.7732
 SCF Error: norm([F,P])=      0.000009348144, max([F,P])=      0.000001535909
 ***** SPIN 1 *****
 orbitals (Q,E):
 ---------------
 A :14...24          ( 1.00    -0.4265)  ( 1.00    -0.4188)  ( 1.00    -0.3911)  ( 1.00    -0.3806)
                     ( 1.00    -0.3691)  ( 1.00    -0.3496)  ( 1.00    -0.3352)  ( 1.00    -0.2679)
                     ( 1.00    -0.2487)  ( 1.00    -0.2117)  ( 0.00    -0.1143)
 ***** SPIN 2 *****
 orbitals (Q,E):
 ---------------
 A :13...23          ( 1.00    -0.4490)  ( 1.00    -0.4213)  ( 1.00    -0.4146)  ( 1.00    -0.3886)
                     ( 1.00    -0.3758)  ( 1.00    -0.3540)  ( 1.00    -0.3467)  ( 1.00    -0.3283)
                     ( 1.00    -0.2623)  ( 1.00    -0.2074)  ( 0.00    -0.1951)
  
 Spin polar: 1 (Spin_A minus Spin_B electrons)

 CYCLE   20
  SDIIS (wt  1.000): -0.0004 -0.0015 -0.0012  0.0038  0.0105 -0.0118 -0.0836  0.0547  0.3906  0.6389
  DIIS coefficients: -0.0004 -0.0015 -0.0012  0.0038  0.0105 -0.0118 -0.0836  0.0547  0.3906  0.6389
 SCF Error: norm([F,P])=      0.000004571429, max([F,P])=      0.000000807120
 ***** SPIN 1 *****
 orbitals (Q,E):
 ---------------
 A :14...24          ( 1.00    -0.4265)  ( 1.00    -0.4188)  ( 1.00    -0.3911)  ( 1.00    -0.3806)
                     ( 1.00    -0.3691)  ( 1.00    -0.3496)  ( 1.00    -0.3352)  ( 1.00    -0.2679)
                     ( 1.00    -0.2487)  ( 1.00    -0.2117)  ( 0.00    -0.1143)
 ***** SPIN 2 *****
 orbitals (Q,E):
 ---------------
 A :13...23          ( 1.00    -0.4490)  ( 1.00    -0.4213)  ( 1.00    -0.4146)  ( 1.00    -0.3886)
                     ( 1.00    -0.3758)  ( 1.00    -0.3540)  ( 1.00    -0.3467)  ( 1.00    -0.3283)
                     ( 1.00    -0.2623)  ( 1.00    -0.2074)  ( 0.00    -0.1951)
  
 Spin polar: 1 (Spin_A minus Spin_B electrons)

 SCF CONVERGED

 CYCLE   21
 ***************************************************************************************************



                                                *******************
                                                *  R E S U L T S  *
                                                *******************
  
 *** Using FIT density in Focky
  SDIIS (wt  1.000):  0.0001  0.0007  0.0021  0.0027 -0.0012 -0.0024 -0.0189  0.0289  0.2898  0.6981
  DIIS coefficients:  0.0001  0.0007  0.0021  0.0027 -0.0012 -0.0024 -0.0189  0.0289  0.2898  0.6981
 SCF Error: norm([F,P])=      0.000002525763, max([F,P])=      0.000000232572


                                   ***** SPIN 1 *****

 Scaled ZORA Orbital Energies, per Irrep and Spin:
 =================================================
                        Occup              E (au)              E (eV)       Diff (eV) with prev. cycle
                        -----      --------------------        ------       --------------------------
 A
              14        1.000     -0.42646865202910E+00       -11.605              -5.92E-06
              15        1.000     -0.41881721830536E+00       -11.397              -3.24E-06
              16        1.000     -0.39108209422862E+00       -10.642              -2.62E-06
              17        1.000     -0.38055489385172E+00       -10.355              -6.51E-06
              18        1.000     -0.36905449457929E+00       -10.042              -2.23E-06
              19        1.000     -0.34958066473547E+00        -9.513              -4.45E-06
              20        1.000     -0.33524462393044E+00        -9.122              -8.52E-06
              21        1.000     -0.26793112806017E+00        -7.291              -1.15E-05
              22        1.000     -0.24867457342968E+00        -6.767               5.02E-06
              23        1.000     -0.21172879882298E+00        -5.761              -9.77E-06
              24        0.000     -0.11428264730172E+00        -3.110
              25        0.000     -0.38335783884492E-02        -0.104
              26        0.000      0.77521384388698E-02         0.211
              27        0.000      0.12739680543327E-01         0.347
              28        0.000      0.48306688123494E-01         1.314
              29        0.000      0.55983057015191E-01         1.523
              30        0.000      0.58704553683606E-01         1.597
              31        0.000      0.88661391925547E-01         2.413
              32        0.000      0.10495639691262E+00         2.856
              33        0.000      0.13687829842173E+00         3.725
  
 HOMO :       23 A                -0.21172879882298E+00
 LUMO :       24 A                -0.11428264730172E+00
  


                                   ***** SPIN 2 *****

 Scaled ZORA Orbital Energies, per Irrep and Spin:
 =================================================
                        Occup              E (au)              E (eV)       Diff (eV) with prev. cycle
                        -----      --------------------        ------       --------------------------
 A
              13        1.000     -0.44900966533671E+00       -12.218              -3.49E-06
              14        1.000     -0.42134094472160E+00       -11.465              -4.10E-06
              15        1.000     -0.41464767229032E+00       -11.283              -4.62E-06
              16        1.000     -0.38862477710040E+00       -10.575              -2.61E-06
              17        1.000     -0.37577883652459E+00       -10.225              -4.94E-06
              18        1.000     -0.35400642984585E+00        -9.633              -4.65E-06
              19        1.000     -0.34671004461823E+00        -9.434              -4.23E-06
              20        1.000     -0.32827518580211E+00        -8.933              -3.99E-06
              21        1.000     -0.26229168742072E+00        -7.137              -5.10E-06
              22        1.000     -0.20739292435880E+00        -5.643              -5.10E-06
              23        0.000     -0.19507655430254E+00        -5.308
              24        0.000     -0.99992367030140E-01        -2.721
              25        0.000     -0.24767446230461E-02        -0.067
              26        0.000      0.14349443294907E-01         0.390
              27        0.000      0.17518016180835E-01         0.477
              28        0.000      0.49448972474449E-01         1.346
              29        0.000      0.56316994383819E-01         1.532
              30        0.000      0.59023644970389E-01         1.606
              31        0.000      0.88845507362898E-01         2.418
              32        0.000      0.10705334117038E+00         2.913
  
 HOMO :       22 A                -0.20739292435880E+00
 LUMO :       23 A                -0.19507655430254E+00
  


 Orbital Energies, both Spins
 ========================================

 Irrep        no.  (spin)   Occup              E (au)                E (eV)
 ---------------------------------------------------------------------------
 A             1     A       1.00       -0.18810917034567E+02      -511.8711
 A             1      B      1.00       -0.18801445219794E+02      -511.6134
 A             2     A       1.00       -0.18800546674094E+02      -511.5889
 A             2      B      1.00       -0.18800266331244E+02      -511.5813
 A             3      B      1.00       -0.10014700359580E+02      -272.5139
 A             3     A       1.00       -0.10014654462477E+02      -272.5126
 A             4      B      1.00       -0.10006509076018E+02      -272.2910
 A             4     A       1.00       -0.10005447962506E+02      -272.2621
 A             5     A       1.00       -0.99680167189643E+01      -271.2435
 A             5      B      1.00       -0.99590766391874E+01      -271.0003
 A             6      B      1.00       -0.99206118049967E+01      -269.9536
 A             6     A       1.00       -0.99205982380257E+01      -269.9532
 A             7     A       1.00       -0.97990880332791E+00       -26.6647
 A             7      B      1.00       -0.97846887123420E+00       -26.6255
 A             8     A       1.00       -0.95459632629180E+00       -25.9759
 A             8      B      1.00       -0.94003719307662E+00       -25.5797
 A             9     A       1.00       -0.71668097090611E+00       -19.5019
 A             9      B      1.00       -0.70039575955597E+00       -19.0587
 A            10     A       1.00       -0.68743221800794E+00       -18.7060
 A            10      B      1.00       -0.68554646952654E+00       -18.6547
 A            11     A       1.00       -0.57633817101372E+00       -15.6830
 A            11      B      1.00       -0.57181362421525E+00       -15.5598
 A            12     A       1.00       -0.47411300328267E+00       -12.9013
 A            12      B      1.00       -0.46797533709875E+00       -12.7343
 A            13     A       1.00       -0.45155912072268E+00       -12.2875
 A            13      B      1.00       -0.44900966533671E+00       -12.2182
 A            14     A       1.00       -0.42646865202910E+00       -11.6048
 A            14      B      1.00       -0.42134094472160E+00       -11.4653
 A            15     A       1.00       -0.41881721830536E+00       -11.3966
 A            15      B      1.00       -0.41464767229032E+00       -11.2831
 A            16     A       1.00       -0.39108209422862E+00       -10.6419
 A            16      B      1.00       -0.38862477710040E+00       -10.5750
 A            17     A       1.00       -0.38055489385172E+00       -10.3554
 A            17      B      1.00       -0.37577883652459E+00       -10.2255
 A            18     A       1.00       -0.36905449457929E+00       -10.0425
 A            18      B      1.00       -0.35400642984585E+00        -9.6330
 A            19     A       1.00       -0.34958066473547E+00        -9.5126
 A            19      B      1.00       -0.34671004461823E+00        -9.4345
 A            20     A       1.00       -0.33524462393044E+00        -9.1225
 A            20      B      1.00       -0.32827518580211E+00        -8.9328
 A            21     A       1.00       -0.26793112806017E+00        -7.2908
 A            21      B      1.00       -0.26229168742072E+00        -7.1373
 A            22     A       1.00       -0.24867457342968E+00        -6.7668
 A            23     A       1.00       -0.21172879882298E+00        -5.7614
 A            22      B      1.00       -0.20739292435880E+00        -5.6434
 A            23      B      0.00       -0.19507655430254E+00        -5.3083
 A            24     A       0.00       -0.11428264730172E+00        -3.1098
 A            24      B      0.00       -0.99992367030140E-01        -2.7209
 A            25     A       0.00       -0.38335783884492E-02        -0.1043
 A            25      B      0.00       -0.24767446230461E-02        -0.0674
 A            26     A       0.00        0.77521384388698E-02         0.2109
 A            27     A       0.00        0.12739680543327E-01         0.3467
 A            26      B      0.00        0.14349443294907E-01         0.3905
 A            27      B      0.00        0.17518016180835E-01         0.4767
 A            28     A       0.00        0.48306688123494E-01         1.3145
 A            28      B      0.00        0.49448972474449E-01         1.3456
 A            29     A       0.00        0.55983057015191E-01         1.5234
[...]
                                   15.52%     1 P:x            -5.239  0.67     3 C
                                   11.97%     1 P:x            -5.239  0.67     1 C
                                   11.80%     1 S              -6.532  1.00     9 H
                                    5.64%     1 P:y            -5.239  0.67     3 C
                                    5.57%     1 P:x            -9.020  1.33     6 O
                                    5.11%     1 P:y            -9.020  1.33     6 O
                                   -4.90%     2 P:x             4.589  0.00     2 C
                                    4.72%     1 P:x            -9.020  1.33     5 O
                                   -4.07%     2 S               2.394  0.00    11 H
                                    3.68%     2 S               2.394  0.00     9 H
                                   -2.97%     2 P:y             4.589  0.00     2 C
                                    2.88%     1 P:y            -5.239  0.67     1 C
                                    2.58%     2 S               2.394  0.00    10 H
                                    2.22%     1 P:y            -9.020  1.33     5 O
                                    1.68%     1 S              -6.532  1.00    11 H
                                   -1.35%     2 P:x             9.437  0.00     5 O
                                   -1.33%     2 P:y             9.437  0.00     6 O
                                   -1.27%     2 P:x             4.589  0.00     3 C
                                    1.20%     1 S              -6.532  1.00     8 H
                                    1.16%     1 P:x            -5.239  0.67     4 C
                                   -1.10%     3 S              10.158  0.00     4 C
                                   -1.08%     2 P:y             4.589  0.00     4 C
                                    1.06%     1 S              -6.532  1.00    10 H
       1.346  0.00    28 A         45.92%     1 S              -6.532  1.00     7 H
                                  -43.83%     2 P:z             4.589  0.00     1 C
                                   36.57%     2 S               2.394  0.00     7 H
                                   22.33%     1 S              -6.532  1.00     8 H
                                  -10.89%     2 P:z             4.589  0.00     4 C
                                    8.13%     2 S               2.394  0.00     8 H
                                    7.16%     2 P:z             4.589  0.00     2 C
                                    6.43%     1 S              -6.532  1.00    11 H
                                    5.60%     2 S               2.394  0.00    11 H
                                    5.12%     1 S              -6.532  1.00    10 H
                                   -4.31%     2 P:y             4.589  0.00     1 C
                                    2.71%     1 P:z            -5.239  0.67     1 C
                                    2.56%     2 P:z             4.589  0.00     3 C
                                    2.56%     2 S               2.394  0.00    10 H
                                    2.17%     3 S              40.869  0.00     7 H
                                    1.95%     3 S              40.869  0.00     8 H
                                    1.83%     1 P:z            -5.239  0.67     4 C
                                    1.75%     1 S              -6.532  1.00     9 H
                                    1.65%     1 P:y            -5.239  0.67     1 C
                                    1.37%     2 S               2.394  0.00     9 H
                                    1.28%     2 P:y             4.589  0.00     2 C
                                    1.07%     3 P:z            54.789  0.00     1 C
       1.532  0.00    29 A         37.32%     1 S              -6.532  1.00     9 H
                                  -29.10%     2 P:x             4.589  0.00     4 C
                                   27.79%     2 S               2.394  0.00     9 H
                                   17.62%     1 S              -6.532  1.00    10 H
                                   13.11%     2 S               2.394  0.00    10 H
                                   10.70%     2 S               2.394  0.00    11 H
                                   -9.98%     2 P:z             4.589  0.00     4 C
                                    7.38%     1 S              -6.532  1.00    11 H
                                    6.83%     2 P:x             4.589  0.00     3 C
                                   -3.86%     2 P:y             4.589  0.00     4 C
                                    3.55%     3 S              40.869  0.00     9 H
                                    3.48%     1 P:x            -5.239  0.67     4 C
                                    3.27%     1 P:x            -5.239  0.67     3 C
                                    1.98%     1 P:z            -5.239  0.67     4 C
                                    1.74%     2 P:y             4.589  0.00     1 C
                                    1.36%     1 S              -6.532  1.00     8 H
                                    1.16%     2 P:x             4.589  0.00     2 C
       1.606  0.00    30 A         34.82%     1 S              -6.532  1.00    10 H
                                   24.92%     1 S              -6.532  1.00    11 H
                                  -24.43%     2 P:z             4.589  0.00     4 C
                                   23.26%     2 S               2.394  0.00    10 H
                                   17.74%     2 S               2.394  0.00    11 H
                                  -15.50%     2 P:y             4.589  0.00     4 C
                                    6.24%     1 S              -6.532  1.00     8 H
                                   -6.16%     2 P:z             4.589  0.00     1 C
                                    5.09%     1 S              -6.532  1.00     7 H
                                    4.40%     2 S               2.394  0.00     8 H
                                    4.19%     1 P:z            -5.239  0.67     4 C
                                    3.37%     2 P:y             4.589  0.00     3 C
                                    2.66%     1 P:y            -5.239  0.67     4 C
                                    2.65%     3 S              40.869  0.00    11 H
                                    2.48%     2 P:x             4.589  0.00     2 C
                                    2.05%     1 P:y            -5.239  0.67     2 C
                                    2.04%     2 S               2.394  0.00     7 H
                                    2.04%     1 P:y            -5.239  0.67     3 C
                                    1.95%     2 P:x             4.589  0.00     1 C
                                    1.95%     3 S              40.869  0.00    10 H
                                   -1.50%     2 P:y             4.589  0.00     2 C
                                    1.17%     2 S               2.394  0.00     9 H



 =======================================================================
 Electrostatic potential at the Nuclei due to electrons and other nuclei
 =======================================================================
  
         Atom                  Potential
         ----                  ---------
     1)   C                  14.75204669
     2)   C                  14.70837721
     3)   C                  14.70148098
     4)   C                  14.78821934
     5)   O                  22.39744946
     6)   O                  22.39282854
     7)   H                   1.07121405
     8)   H                   1.06790278
     9)   H                   1.09217956
    10)   H                   1.10580905
    11)   H                   1.09238212
 Mulliken charges used for AMS results%charges...


    =====================
     CALCULATION RESULTS
    =====================

Energy (hartree)            -2.31941009


--------------
Atomic charges
--------------
  Index   Atom    Charge
      1      C    0.4199
      2      C    0.3580
      3      C    0.4260
      4      C    0.6306
      5      O   -0.4897
      6      O   -0.4667
      7      H   -0.1517
      8      H   -0.1664
      9      H   -0.1729
     10      H   -0.2094
     11      H   -0.1776


Dipole moment vector    (Debye):     0.38379271   -0.43642807   -0.10048393
              magnitude (Debye):     0.58979940


-----------------------
Molecular orbitals info
-----------------------
n orbitals:              211
n spin:                    2

Note: only printing virtual orbitals with
      energy smaller than HOMO + 100. eV

                     spin-alpha   spin-beta
HOMO (eV):              -5.7614     -5.6434
LUMO (eV):              -3.1098     -5.3083
HOMO-LUMO gap (eV):      2.6516      0.3351

Smallest gap (eV):       0.3351

          |======= spin-alpha =======|       |======= spin-beta ========|

   Index   Energy (eV)    Occupation          Energy (eV)    Occupation
     136       93.8287         0.000              94.1287         0.000       
     135       93.2847         0.000              93.6206         0.000       
     134       92.9574         0.000              93.4516         0.000       
     133       91.8165         0.000              91.8749         0.000       
     132       90.7126         0.000              90.7907         0.000       
     131       90.4910         0.000              90.5547         0.000       
     130       89.2079         0.000              89.3876         0.000       
     129       88.1469         0.000              88.5727         0.000       
     128       86.4074         0.000              86.7012         0.000       
     127       84.1016         0.000              84.2284         0.000       
     126       82.6517         0.000              82.8074         0.000       
     125       81.5010         0.000              81.5161         0.000       
     124       80.2561         0.000              80.3793         0.000       
     123       80.0445         0.000              80.1658         0.000       
     122       78.7362         0.000              78.8083         0.000       
     121       78.3422         0.000              78.4015         0.000       
     120       77.8843         0.000              78.0035         0.000       
     119       76.9838         0.000              76.9994         0.000       
     118       76.3154         0.000              76.3228         0.000       
     117       75.5113         0.000              75.5783         0.000       
     116       74.7248         0.000              74.8181         0.000       
     115       73.2428         0.000              73.2881         0.000       
     114       72.4130         0.000              72.4895         0.000       
     113       70.4568         0.000              70.5395         0.000       
     112       67.7554         0.000              67.9227         0.000       
     111       66.6796         0.000              66.8616         0.000       
     110       65.7762         0.000              65.8663         0.000       
     109       64.9979         0.000              65.0278         0.000       
     108       64.2025         0.000              64.3340         0.000       
     107       63.0126         0.000              63.0642         0.000       
     106       61.7373         0.000              61.8440         0.000       
     105       61.1866         0.000              61.3630         0.000       
     104       60.1457         0.000              60.4492         0.000       
     103       58.9498         0.000              59.1074         0.000       
     102       58.5997         0.000              58.9112         0.000       
     101       56.2312         0.000              56.3128         0.000       
     100       55.2025         0.000              55.3501         0.000       
      99       53.4103         0.000              53.6805         0.000       
      98       52.6786         0.000              52.9835         0.000       
      97       52.1226         0.000              52.1519         0.000       
      96       51.1925         0.000              51.4181         0.000       
      95       50.3712         0.000              50.4379         0.000       
      94       49.4410         0.000              49.6126         0.000       
      93       48.1037         0.000              48.2285         0.000       
      92       46.9346         0.000              47.0526         0.000       
      91       46.2508         0.000              46.3545         0.000       
      90       45.3917         0.000              45.4544         0.000       
      89       43.9195         0.000              44.2204         0.000       
      88       43.0267         0.000              43.6234         0.000       
      87       42.7253         0.000              43.0375         0.000       
      86       41.4482         0.000              41.6290         0.000       
      85       39.0559         0.000              39.2406         0.000       
      84       38.6844         0.000              38.7507         0.000       
      83       37.5192         0.000              37.6750         0.000       
      82       36.3141         0.000              36.5557         0.000       
      81       36.2085         0.000              36.4030         0.000       
      80       34.1984         0.000              34.2892         0.000       
      79       33.9749         0.000              34.1503         0.000       
      78       32.7431         0.000              32.9492         0.000       
      77       31.9188         0.000              32.0882         0.000       
      76       31.4856         0.000              31.5208         0.000       
      75       30.7812         0.000              30.9381         0.000       
      74       30.4720         0.000              30.5940         0.000       
      73       29.6436         0.000              29.7232         0.000       
      72       28.9851         0.000              29.1856         0.000       
      71       28.7132         0.000              28.8673         0.000       
      70       27.1980         0.000              27.3097         0.000       
      69       26.8284         0.000              27.0664         0.000       
      68       25.4696         0.000              25.5245         0.000       
      67       24.9080         0.000              24.9790         0.000       
      66       24.6322         0.000              24.7094         0.000       
      65       23.9111         0.000              24.0048         0.000       
      64       22.7948         0.000              22.9148         0.000       
      63       22.2177         0.000              22.2766         0.000       
      62       20.8790         0.000              21.0077         0.000       
      61       20.5207         0.000              20.6411         0.000       
      60       19.5303         0.000              19.6936         0.000       
      59       18.0950         0.000              18.2100         0.000       
      58       17.7621         0.000              17.8322         0.000       
      57       16.7720         0.000              16.8329         0.000       
      56       15.7258         0.000              15.8522         0.000       
      55       14.7334         0.000              15.0780         0.000       
      54       14.5358         0.000              14.5815         0.000       
      53       14.0505         0.000              14.1563         0.000       
      52       12.5978         0.000              12.6541         0.000       
      51       12.2030         0.000              12.2650         0.000       
      50       11.5325         0.000              11.6550         0.000       
      49       11.0883         0.000              11.1221         0.000       
      48       10.7260         0.000              10.8071         0.000       
      47       10.5643         0.000              10.6134         0.000       
      46        9.9806         0.000              10.0553         0.000       
      45        9.3419         0.000               9.4095         0.000       
      44        9.0865         0.000               9.2083         0.000       
      43        8.2263         0.000               8.3521         0.000       
      42        7.8134         0.000               7.8464         0.000       
      41        7.4004         0.000               7.6207         0.000       
      40        6.7941         0.000               6.9918         0.000       
      39        6.4737         0.000               6.5161         0.000       
      38        5.9719         0.000               6.0200         0.000       
      37        5.6866         0.000               5.8268         0.000       
      36        5.0658         0.000               5.2207         0.000       
      35        4.3194         0.000               4.4589         0.000       
      34        3.9363         0.000               4.2139         0.000       
      33        3.7246         0.000               3.7915         0.000       
      32        2.8560         0.000               2.9131         0.000       
      31        2.4126         0.000               2.4176         0.000       
      30        1.5974         0.000               1.6061         0.000       
      29        1.5234         0.000               1.5325         0.000       
      28        1.3145         0.000               1.3456         0.000       
      27        0.3467         0.000               0.4767         0.000       
      26        0.2109         0.000               0.3905         0.000       
      25       -0.1043         0.000              -0.0674         0.000       
      24       -3.1098         0.000 < LUMO       -2.7209         0.000       
      23       -5.7614         1.000 < HOMO       -5.3083         0.000 < LUMO
      22       -6.7668         1.000              -5.6434         1.000 < HOMO
      21       -7.2908         1.000              -7.1373         1.000       
      20       -9.1225         1.000              -8.9328         1.000       
      19       -9.5126         1.000              -9.4345         1.000       
      18      -10.0425         1.000              -9.6330         1.000       
      17      -10.3554         1.000             -10.2255         1.000       
      16      -10.6419         1.000             -10.5750         1.000       
      15      -11.3966         1.000             -11.2831         1.000       
      14      -11.6048         1.000             -11.4653         1.000       
      13      -12.2875         1.000             -12.2182         1.000       
      12      -12.9013         1.000             -12.7343         1.000       
      11      -15.6830         1.000             -15.5598         1.000       
      10      -18.7060         1.000             -18.6547         1.000       
       9      -19.5019         1.000             -19.0587         1.000       
       8      -25.9759         1.000             -25.5797         1.000       
       7      -26.6647         1.000             -26.6255         1.000       
       6     -269.9532         1.000            -269.9536         1.000       
       5     -271.2435         1.000            -271.0003         1.000       
       4     -272.2621         1.000            -272.2910         1.000       
       3     -272.5126         1.000            -272.5139         1.000       
       2     -511.5889         1.000            -511.5813         1.000       
       1     -511.8711         1.000            -511.6134         1.000       

AMS application finished. Exiting.
NORMAL TERMINATION
     Total cpu time:     159.60
  Total system time:       0.88
 Total elapsed time:     161.40
