
 *******************************************************************************
 *                                                                             *
 *  --------------------------------                                           *
 *   Amsterdam Modeling Suite (AMS)              2026.103                      *
 *  --------------------------------                                           *
 *                                               r260501 2026-05-01 873454b5   *
 *                                                                             *
 *                                                                             *
 *                              =================                              *
 *                              |               |                              *
 *                              |     A M S     |                              *
 *                              |               |                              *
 *                              =================                              *
 *                                                                             *
 *                                                                             *
 *   Online information and documentation:  https://www.scm.com/support/       *
 *   E-mail:  support@scm.com   info@scm.com                                   *
 *                                                                             *
 *   Scientific publications using AMS results must be properly referenced     *
 *   See the User Manuals (or the web site) for recommended citations          *
 *   The terms and conditions of the End User License Agreement apply to       *
 *   the use of AMS, https://www.scm.com/license-terms/                        *
 *                                                                             *
 **********************  x86_64_linux_intel / intelmpi  ************************
 
 Licensed to: Jong-June Jeon / University of Seoul 2026-06-02 13:44:15
 SCM User ID: u30731
  
 AMS 2026.103  RunTime: Jun03-2026 13:17:48  ShM Nodes: 1  Procs: 1

 AMS jobname: c2_fragB_ts
 AMS jobid  : 1262409209

 Start   directory: /gpfs/home1/yeseo1ee/projects/eda-asm-prediction/ADF_800/adf_outputs/batch_003/qmrxn20_e2_B_D_A_E_A_A/
 Results directory: /gpfs/home1/yeseo1ee/projects/eda-asm-prediction/ADF_800/adf_outputs/batch_003/qmrxn20_e2_B_D_A_E_A_A/c2_fragB_ts.results/
 Scratch directory: /tmp/amstmp_c2_fragB_ts_kid0.1262409209/

 RNG seed: 473311810 -2141804957 2049381364 -1078671546 -291273408 2011437423 -1421787815 1354972824



                      ************************************************************************
                      *  ADF 2026.103  RunTime: Jun03-2026 13:17:48  ShM Nodes: 1  Procs: 1  *
                      ************************************************************************
  

       ****************************
       * SINGLE POINT CALCULATION *
       ****************************

--------
Geometry
--------
Formula: C3H7FN2O2
Atoms
  Index Symbol   x (angstrom)   y (angstrom)   z (angstrom)
      1      C    -0.13835932     0.07839227    -0.29893704
      2      C    -0.26116756     0.14269707     1.16163955
      3      F     1.15277129    -0.29087855    -0.78138236
      4      H    -1.51593833    -0.10045467     1.46285688
      5      H    -0.00600199     1.14585944     1.52147937
      6      N    -1.00663602    -1.07209285    -0.78807808
      7      O    -2.10703958    -0.79804841    -1.27178514
      8      O    -0.60211612    -2.21382199    -0.56933555
      9      C    -0.52830509     1.34728636    -1.01230236
     10      H    -0.52021636     1.19965671    -2.09352990
     11      H    -1.52300360     1.66351910    -0.70186634
     12      H     0.20176922     2.11533291    -0.75046745
     13      N     0.35940421    -0.91998437     1.92245155
     14      H     1.02108299    -1.42879337     1.35099413
     15      H    -0.39315781    -1.56742056     2.17508475

Total System Charge              0.00000


----------------
ADF Engine Input
----------------
 
   Basis
     Type TZ2P
     Core None
   End
   XC
     GGA BLYP
     Dispersion GRIMME3 BJDAMP
   End
   Symmetry NOSYM
   NumericalQuality Normal
   Unrestricted No
   SCF
     Iterations 200
     Converge 1.0e-6
   End
   Save TAPE21
 

 Title: *** (NO TITLE) ***

 *** adf ***



 ===========================
 A T T A C H E D   F I L E S
 ===========================
  



 ===============================
 M O D E L   P A R A M E T E R S
 ===============================
  
 DENSITY FUNCTIONAL POTENTIAL (scf)
    LDA:                               Exchange only                           == Not Default ==
    Gradient Corrections:              Becke88 LYP                             == Not Default ==

 SPIN  (restricted / unrestr.)
    Molecule:                          Restricted                               
    Fragments:                         Restricted                               

 OTHER ASPECTS
    Relativistic Corrections:          scalar (ZORA,MAPA)                       

    Nuclear Charge Density Model:      Point Charge Nuclei                      
    Core Treatment:                    Frozen Orbital(s)                        

    Hyperfine or Zeeman Interaction:   ---                                      

 Settings for Grimme D3 dispersion correction

      damping                        BJ
      s6                          1.000
      s8                          2.700
      a1                          0.430
      a2                          4.236

 Other (technical) parameters

      alpha                      14.000
      version                         4
 


 Fragment File(s)
 ----------------
 C:
         file : /gpfs/home1/yeseo1ee/projects/eda-asm-prediction/ADF_800/adf_outputs/batch_003/qmrxn20_e2_B_D_A_E_A_A/c2_fragB_ts.results/t21.50BA88D5.C
         jobid: 0
         title: Carbon (TZ2P)
 F:
         file : /gpfs/home1/yeseo1ee/projects/eda-asm-prediction/ADF_800/adf_outputs/batch_003/qmrxn20_e2_B_D_A_E_A_A/c2_fragB_ts.results/t21.CCE1280.F
         jobid: 0
         title: Fluorine (TZ2P)
 H:
         file : /gpfs/home1/yeseo1ee/projects/eda-asm-prediction/ADF_800/adf_outputs/batch_003/qmrxn20_e2_B_D_A_E_A_A/c2_fragB_ts.results/t21.6F35CCAB.H
         jobid: 0
         title: Hydrogen (TZ2P)
 N:
         file : /gpfs/home1/yeseo1ee/projects/eda-asm-prediction/ADF_800/adf_outputs/batch_003/qmrxn20_e2_B_D_A_E_A_A/c2_fragB_ts.results/t21.44EAA48D.N
         jobid: 0
         title: Nitrogen (TZ2P)
 O:
         file : /gpfs/home1/yeseo1ee/projects/eda-asm-prediction/ADF_800/adf_outputs/batch_003/qmrxn20_e2_B_D_A_E_A_A/c2_fragB_ts.results/t21.6E90ABAE.O
         jobid: 0
         title: Oxygen (TZ2P)



 ===============
 G E O M E T R Y  ***  3D  Molecule  ***
 ===============
  

 ATOMS
 =====                            X Y Z                    CHARGE
                                (Angstrom)             Nucl     +Core       At.Mass
                       --------------------------    ----------------       -------
    1  C              -0.1384    0.0784   -0.2989      6.00      6.00       12.0000
    2  C              -0.2612    0.1427    1.1616      6.00      6.00       12.0000
    3  F               1.1528   -0.2909   -0.7814      9.00      9.00       18.9984
    4  H              -1.5159   -0.1005    1.4629      1.00      1.00        1.0078
    5  H              -0.0060    1.1459    1.5215      1.00      1.00        1.0078
    6  N              -1.0066   -1.0721   -0.7881      7.00      7.00       14.0031
    7  O              -2.1070   -0.7980   -1.2718      8.00      8.00       15.9949
    8  O              -0.6021   -2.2138   -0.5693      8.00      8.00       15.9949
    9  C              -0.5283    1.3473   -1.0123      6.00      6.00       12.0000
   10  H              -0.5202    1.1997   -2.0935      1.00      1.00        1.0078
   11  H              -1.5230    1.6635   -0.7019      1.00      1.00        1.0078
   12  H               0.2018    2.1153   -0.7505      1.00      1.00        1.0078
   13  N               0.3594   -0.9200    1.9225      7.00      7.00       14.0031
   14  H               1.0211   -1.4288    1.3510      1.00      1.00        1.0078
   15  H              -0.3932   -1.5674    2.1751      1.00      1.00        1.0078


 FRAGMENTS
 =========                                     Atoms in this Fragment     Cart. coord.s (Angstrom)
                                               -------------------------------------------------------
    1  C                                                 1  C           -0.1384    0.0784   -0.2989
    2  C                                                 2  C           -0.2612    0.1427    1.1616
    3  C                                                 9  C           -0.5283    1.3473   -1.0123
    4  F                                                 3  F            1.1528   -0.2909   -0.7814
    5  H                                                 4  H           -1.5159   -0.1005    1.4629
    6  H                                                 5  H           -0.0060    1.1459    1.5215
    7  H                                                10  H           -0.5202    1.1997   -2.0935
    8  H                                                11  H           -1.5230    1.6635   -0.7019
    9  H                                                12  H            0.2018    2.1153   -0.7505
   10  H                                                14  H            1.0211   -1.4288    1.3510
   11  H                                                15  H           -0.3932   -1.5674    2.1751
   12  N                                                 6  N           -1.0066   -1.0721   -0.7881
   13  N                                                13  N            0.3594   -0.9200    1.9225
   14  O                                                 7  O           -2.1070   -0.7980   -1.2718
   15  O                                                 8  O           -0.6021   -2.2138   -0.5693


 Interatomic Distance Matrix (Angstrom)
 --------------------------------------

   1)     0.000
   2)     1.467   0.000
   3)     1.427   2.442   0.000
   4)     2.244   1.313   3.492   0.000
   5)     2.114   1.096   2.951   1.959   0.000
   6)     1.522   2.415   2.296   2.504   3.355   0.000
   7)     2.364   3.196   3.335   2.883   3.999   1.233   0.000
   8)     2.354   2.944   2.612   3.071   4.002   1.231   2.182   0.000
   9)     1.507   2.500   2.359   3.033   2.595   2.476   2.676   3.589   0.000
  10)     2.150   3.432   2.597   3.915   3.652   2.665   2.680   3.739   1.091   0.000
  11)     2.143   2.716   3.314   2.792   2.741   2.785   2.593   3.987   1.089   1.777
          0.000
  12)     2.114   2.786   2.588   3.572   2.479   3.409   3.754   4.407   1.092   1.779
          1.784   0.000
  13)     2.486   1.447   2.887   2.098   2.136   3.039   4.037   2.968   3.813   4.625
          4.136   4.048   0.000
  14)     2.518   2.037   2.421   2.866   2.777   2.969   4.131   2.634   3.961   4.599
          4.500   4.201   1.012   0.000
  15)     2.982   1.992   3.572   1.980   2.818   3.066   3.926   2.827   4.321   5.089
          4.471   4.741   1.024   1.643   0.000

 Min. Distance =    1.0116
 Max. Distance =    5.0886



 =====================================
 S Y M M E T R Y ,   E L E C T R O N S
 =====================================
  
 Symmetry: NOSYM

 Irreducible Representations, including subspecies
 -------------------------------------------------
 A


 Configuration of Valence Electrons
 ==================================
 ( determined in the SCF procedure )

 Total:   64

 Net Charge: 0 (Nuclei minus Electrons)

 Aufbau principle for MO occupations will be applied through SCF cycle no.     100
 Thereafter, the program will assign electrons to MOs that are spatially
 similar to the occupied MOs in a "reference" cycle ("KeepOrbitals").
 The reference cycle is always the PREVIOUS cycle: it will evolve with
 the SCF procedure.
 ***************************************************************************************************



                                      ****************************************
                                      *  B U I L D : (Fragments, Functions)  *
                                      ****************************************
  



 =======
 S F O s  ***  (Symmetrized Fragment Orbitals)  ***
 =======
  
 SFOs are linear combinations of (valence) Fragment Orbitals (FOs), such that the SFOs transform as the
 irreducible representations of the (molecular) symmetry group. Each SFO is therefore characterized by
 an irrep of the molecule and by a few (or only one) generating FOs.
 The SFOs constitute a symmetry-adapted basis for the Fock matrix. The MO eigenvector coefficients in
 this basis provide a direct interpretation of the MOs in terms of Frontier Orbital Theory.

 The SFOs are combined with auxiliary Core Functions (CFs) to ensure orthogonalization on the (frozen)
 Core Orbitals (COs). The Core-orthogonalized SFOs (CSFOs) constitute the true Fock basis.

 The FOs, and hence also the (C)SFOs are combinations of the elementary basis functions (BAS). The basis
 functions that participate in the description of the SFOs depend on the irrep. The indices of the
 involved functions are printed below for each irrep.
 (The complete list of primitive basis functions is printed in another section)

 Total nr. of (C)SFOs (summation over all irreps) :   285

 NOTE: a (C)SFO that is defined as a combination of more than one FO is usually NOT normalized.



                                       === A ===
 Nr. of SFOs :  285
 Cartesian basis functions that participate in this irrep (total number =   324) :
      1     2     3     4     5     6     9    12     7    10
     13     8    11    14    15    16    17    18    19    20
     21    22    23    24    25    26    27    28    29    30
     31    32    33    34    35    36    39    42    37    40
     43    38    41    44    45    46    47    48    49    50
     51    52    53    54    55    56    57    58    59    60
     61    62    63    64    65    66    69    72    67    70
     73    68    71    74    75    76    77    78    79    80
     81    82    83    84    85    86    87    88    89    90
     91    92    93    94    95    96    99   102    97   100
    103    98   101   104   105   106   107   108   109   110
    111   112   113   114   115   116   117   118   119   120
    121   122   123   124   125   126   127   128   129   130
    131   132   133   134   135   136   137   138   139   140
    141   142   143   144   145   146   147   148   149   150
    151   152   153   154   155   156   157   158   159   160
    161   162   163   164   165   166   167   168   169   170
    171   172   173   174   175   176   177   178   179   180
    181   182   183   184   185   186   187   188   189   190
    191   192   193   194   195   196   197   198   199   200
    201   202   203   204   205   206   207   208   209   210
    213   216   211   214   217   212   215   218   219   220
    221   222   223   224   225   226   227   228   229   230
    231   232   233   234   235   236   237   238   239   240
    243   246   241   244   247   242   245   248   249   250
    251   252   253   254   255   256   257   258   259   260
    261   262   263   264   265   266   267   268   269   270
    273   276   271   274   277   272   275   278   279   280
    281   282   283   284   285   286   287   288   289   290
    291   292   293   294   295   296   297   298   299   300
    303   306   301   304   307   302   305   308   309   310
    311   312   313   314   315   316   317   318   319   320
    321   322   323   324

    SFO  (index         Fragment          Generating    Expansion in Fragment Orbitals
  indx  incl.CFs)   Occup   Orb.Energy   FragmentType  Coeff.   Orbital     on Fragment
 --------------------------------------------------------------------------------------
     1       1      2.000     -10.066 au  C             1.00      1 S               1
                        (    -273.921 eV)
     2       2      2.000      -0.501 au  C             1.00      2 S               1
                        (     -13.620 eV)
     3       3       --         0.373 au  C             1.00      3 S               1
                        (      10.158 eV)
     4       4       --         5.405 au  C             1.00      4 S               1
                        (     147.073 eV)
     5       5       --        49.848 au  C             1.00      5 S               1
                        (    1356.422 eV)
     6       6      0.667      -0.193 au  C             1.00      1 P:x             1
                        (      -5.239 eV)
     7       7       --         0.169 au  C             1.00      2 P:x             1
                        (       4.589 eV)
     8       8       --         2.013 au  C             1.00      3 P:x             1
                        (      54.789 eV)
     9       9      0.667      -0.193 au  C             1.00      1 P:y             1
                        (      -5.239 eV)
    10      10       --         0.169 au  C             1.00      2 P:y             1
                        (       4.589 eV)
    11      11       --         2.013 au  C             1.00      3 P:y             1
                        (      54.789 eV)
    12      12      0.667      -0.193 au  C             1.00      1 P:z             1
                        (      -5.239 eV)
    13      13       --         0.169 au  C             1.00      2 P:z             1
                        (       4.589 eV)
    14      14       --         2.013 au  C             1.00      3 P:z             1
                        (      54.789 eV)
    15      15       --         1.243 au  C             1.00      1 D:z2            1
                        (      33.824 eV)
    16      16       --         1.243 au  C             1.00      1 D:x2-y2         1
                        (      33.824 eV)
    17      17       --         1.243 au  C             1.00      1 D:xy            1
                        (      33.824 eV)
    18      18       --         1.243 au  C             1.00      1 D:xz            1
                        (      33.824 eV)
    19      19       --         1.243 au  C             1.00      1 D:yz            1
                        (      33.824 eV)
    20      20       --         4.016 au  C             1.00      1 F:z3            1
                        (     109.271 eV)
    21      21       --         4.016 au  C             1.00      1 F:z             1
                        (     109.271 eV)
    22      22       --         4.016 au  C             1.00      1 F:xyz           1
                        (     109.271 eV)
    23      23       --         4.016 au  C             1.00      1 F:z2x           1
                        (     109.271 eV)
    24      24       --         4.016 au  C             1.00      1 F:z2y           1
                        (     109.271 eV)
    25      25       --         4.016 au  C             1.00      1 F:x             1
                        (     109.271 eV)
    26      26       --         4.016 au  C             1.00      1 F:y             1
                        (     109.271 eV)
    27      27      2.000     -10.066 au  C             1.00      1 S               2
                        (    -273.921 eV)
    28      28      2.000      -0.501 au  C             1.00      2 S               2
                        (     -13.620 eV)
    29      29       --         0.373 au  C             1.00      3 S               2
                        (      10.158 eV)
    30      30       --         5.405 au  C             1.00      4 S               2
                        (     147.073 eV)
    31      31       --        49.848 au  C             1.00      5 S               2
                        (    1356.422 eV)
    32      32      0.667      -0.193 au  C             1.00      1 P:x             2
                        (      -5.239 eV)
    33      33       --         0.169 au  C             1.00      2 P:x             2
                        (       4.589 eV)
    34      34       --         2.013 au  C             1.00      3 P:x             2
                        (      54.789 eV)
    35      35      0.667      -0.193 au  C             1.00      1 P:y             2
                        (      -5.239 eV)
    36      36       --         0.169 au  C             1.00      2 P:y             2
                        (       4.589 eV)
    37      37       --         2.013 au  C             1.00      3 P:y             2
                        (      54.789 eV)
    38      38      0.667      -0.193 au  C             1.00      1 P:z             2
                        (      -5.239 eV)
    39      39       --         0.169 au  C             1.00      2 P:z             2
                        (       4.589 eV)
    40      40       --         2.013 au  C             1.00      3 P:z             2
                        (      54.789 eV)
    41      41       --         1.243 au  C             1.00      1 D:z2            2
                        (      33.824 eV)
    42      42       --         1.243 au  C             1.00      1 D:x2-y2         2
                        (      33.824 eV)
    43      43       --         1.243 au  C             1.00      1 D:xy            2
                        (      33.824 eV)
    44      44       --         1.243 au  C             1.00      1 D:xz            2
                        (      33.824 eV)
    45      45       --         1.243 au  C             1.00      1 D:yz            2
                        (      33.824 eV)
    46      46       --         4.016 au  C             1.00      1 F:z3            2
                        (     109.271 eV)
    47      47       --         4.016 au  C             1.00      1 F:z             2
                        (     109.271 eV)
    48      48       --         4.016 au  C             1.00      1 F:xyz           2
                        (     109.271 eV)
    49      49       --         4.016 au  C             1.00      1 F:z2x           2
                        (     109.271 eV)
    50      50       --         4.016 au  C             1.00      1 F:z2y           2
                        (     109.271 eV)
    51      51       --         4.016 au  C             1.00      1 F:x             2
                        (     109.271 eV)
    52      52       --         4.016 au  C             1.00      1 F:y             2
                        (     109.271 eV)
    53      53      2.000     -10.066 au  C             1.00      1 S               3
                        (    -273.921 eV)
    54      54      2.000      -0.501 au  C             1.00      2 S               3
                        (     -13.620 eV)
    55      55       --         0.373 au  C             1.00      3 S               3
                        (      10.158 eV)
    56      56       --         5.405 au  C             1.00      4 S               3
                        (     147.073 eV)
    57      57       --        49.848 au  C             1.00      5 S               3
                        (    1356.422 eV)
    58      58      0.667      -0.193 au  C             1.00      1 P:x             3
                        (      -5.239 eV)
    59      59       --         0.169 au  C             1.00      2 P:x             3
                        (       4.589 eV)
    60      60       --         2.013 au  C             1.00      3 P:x             3
                        (      54.789 eV)
    61      61      0.667      -0.193 au  C             1.00      1 P:y             3
                        (      -5.239 eV)
    62      62       --         0.169 au  C             1.00      2 P:y             3
                        (       4.589 eV)
    63      63       --         2.013 au  C             1.00      3 P:y             3
                        (      54.789 eV)
    64      64      0.667      -0.193 au  C             1.00      1 P:z             3
                        (      -5.239 eV)
    65      65       --         0.169 au  C             1.00      2 P:z             3
                        (       4.589 eV)
    66      66       --         2.013 au  C             1.00      3 P:z             3
                        (      54.789 eV)
    67      67       --         1.243 au  C             1.00      1 D:z2            3
                        (      33.824 eV)
    68      68       --         1.243 au  C             1.00      1 D:x2-y2         3
                        (      33.824 eV)
    69      69       --         1.243 au  C             1.00      1 D:xy            3
                        (      33.824 eV)
    70      70       --         1.243 au  C             1.00      1 D:xz            3
                        (      33.824 eV)
    71      71       --         1.243 au  C             1.00      1 D:yz            3
                        (      33.824 eV)
    72      72       --         4.016 au  C             1.00      1 F:z3            3
                        (     109.271 eV)
    73      73       --         4.016 au  C             1.00      1 F:z             3
                        (     109.271 eV)
    74      74       --         4.016 au  C             1.00      1 F:xyz           3
                        (     109.271 eV)
    75      75       --         4.016 au  C             1.00      1 F:z2x           3
                        (     109.271 eV)
    76      76       --         4.016 au  C             1.00      1 F:z2y           3
                        (     109.271 eV)
    77      77       --         4.016 au  C             1.00      1 F:x             3
                        (     109.271 eV)
    78      78       --         4.016 au  C             1.00      1 F:y             3
                        (     109.271 eV)
    79      79      2.000     -24.402 au  F             1.00      1 S               4
                        (    -664.014 eV)
    80      80      2.000      -1.095 au  F             1.00      2 S               4
                        (     -29.785 eV)
    81      81       --         0.023 au  F             1.00      3 S               4
                        (       0.624 eV)
    82      82       --         1.576 au  F             1.00      4 S               4
                        (      42.880 eV)
    83      83       --        47.803 au  F             1.00      5 S               4
                        (    1300.785 eV)
    84      84      1.667      -0.409 au  F             1.00      1 P:x             4
                        (     -11.127 eV)
    85      85       --         0.428 au  F             1.00      2 P:x             4
                        (      11.654 eV)
    86      86       --         4.556 au  F             1.00      3 P:x             4
                        (     123.977 eV)
    87      87      1.667      -0.409 au  F             1.00      1 P:y             4
                        (     -11.127 eV)
    88      88       --         0.428 au  F             1.00      2 P:y             4
                        (      11.654 eV)
    89      89       --         4.556 au  F             1.00      3 P:y             4
                        (     123.977 eV)
    90      90      1.667      -0.409 au  F             1.00      1 P:z             4
                        (     -11.127 eV)
    91      91       --         0.428 au  F             1.00      2 P:z             4
                        (      11.654 eV)
    92      92       --         4.556 au  F             1.00      3 P:z             4
                        (     123.977 eV)
    93      93       --         1.117 au  F             1.00      1 D:z2            4
                        (      30.390 eV)
    94      94       --         1.117 au  F             1.00      1 D:x2-y2         4
                        (      30.390 eV)
    95      95       --         1.117 au  F             1.00      1 D:xy            4
                        (      30.390 eV)
    96      96       --         1.117 au  F             1.00      1 D:xz            4
                        (      30.390 eV)
    97      97       --         1.117 au  F             1.00      1 D:yz            4
                        (      30.390 eV)
    98      98       --         3.416 au  F             1.00      1 F:z3            4
                        (      92.949 eV)
    99      99       --         3.416 au  F             1.00      1 F:z             4
                        (      92.949 eV)
   100     100       --         3.416 au  F             1.00      1 F:xyz           4
                        (      92.949 eV)
   101     101       --         3.416 au  F             1.00      1 F:z2x           4
                        (      92.949 eV)
   102     102       --         3.416 au  F             1.00      1 F:z2y           4
                        (      92.949 eV)
   103     103       --         3.416 au  F             1.00      1 F:x             4
                        (      92.949 eV)
   104     104       --         3.416 au  F             1.00      1 F:y             4
                        (      92.949 eV)
   105     105      1.000      -0.240 au  H             1.00      1 S               5
                        (      -6.532 eV)
   106     106       --         0.088 au  H             1.00      2 S               5
                        (       2.394 eV)
   107     107       --         1.502 au  H             1.00      3 S               5
                        (      40.869 eV)
   108     108       --         0.406 au  H             1.00      1 P:x             5
                        (      11.051 eV)
   109     109       --         0.406 au  H             1.00      1 P:y             5
                        (      11.051 eV)
   110     110       --         0.406 au  H             1.00      1 P:z             5
                        (      11.051 eV)
   111     111       --         2.569 au  H             1.00      1 D:z2            5
                        (      69.917 eV)
   112     112       --         2.569 au  H             1.00      1 D:x2-y2         5
                        (      69.917 eV)
   113     113       --         2.569 au  H             1.00      1 D:xy            5
                        (      69.917 eV)
   114     114       --         2.569 au  H             1.00      1 D:xz            5
                        (      69.917 eV)
   115     115       --         2.569 au  H             1.00      1 D:yz            5
                        (      69.917 eV)
   116     116      1.000      -0.240 au  H             1.00      1 S               6
                        (      -6.532 eV)
   117     117       --         0.088 au  H             1.00      2 S               6
                        (       2.394 eV)
   118     118       --         1.502 au  H             1.00      3 S               6
                        (      40.869 eV)
   119     119       --         0.406 au  H             1.00      1 P:x             6
                        (      11.051 eV)
   120     120       --         0.406 au  H             1.00      1 P:y             6
                        (      11.051 eV)
   121     121       --         0.406 au  H             1.00      1 P:z             6
                        (      11.051 eV)
   122     122       --         2.569 au  H             1.00      1 D:z2            6
                        (      69.917 eV)
   123     123       --         2.569 au  H             1.00      1 D:x2-y2         6
                        (      69.917 eV)
   124     124       --         2.569 au  H             1.00      1 D:xy            6
                        (      69.917 eV)
   125     125       --         2.569 au  H             1.00      1 D:xz            6
                        (      69.917 eV)
   126     126       --         2.569 au  H             1.00      1 D:yz            6
                        (      69.917 eV)
   127     127      1.000      -0.240 au  H             1.00      1 S               7
                        (      -6.532 eV)
   128     128       --         0.088 au  H             1.00      2 S               7
                        (       2.394 eV)
   129     129       --         1.502 au  H             1.00      3 S               7
                        (      40.869 eV)
   130     130       --         0.406 au  H             1.00      1 P:x             7
                        (      11.051 eV)
   131     131       --         0.406 au  H             1.00      1 P:y             7
                        (      11.051 eV)
   132     132       --         0.406 au  H             1.00      1 P:z             7
                        (      11.051 eV)
   133     133       --         2.569 au  H             1.00      1 D:z2            7
                        (      69.917 eV)
   134     134       --         2.569 au  H             1.00      1 D:x2-y2         7
                        (      69.917 eV)
   135     135       --         2.569 au  H             1.00      1 D:xy            7
                        (      69.917 eV)
   136     136       --         2.569 au  H             1.00      1 D:xz            7
                        (      69.917 eV)
   137     137       --         2.569 au  H             1.00      1 D:yz            7
                        (      69.917 eV)
   138     138      1.000      -0.240 au  H             1.00      1 S               8
                        (      -6.532 eV)
   139     139       --         0.088 au  H             1.00      2 S               8
                        (       2.394 eV)
   140     140       --         1.502 au  H             1.00      3 S               8
                        (      40.869 eV)
   141     141       --         0.406 au  H             1.00      1 P:x             8
                        (      11.051 eV)
   142     142       --         0.406 au  H             1.00      1 P:y             8
                        (      11.051 eV)
   143     143       --         0.406 au  H             1.00      1 P:z             8
                        (      11.051 eV)
   144     144       --         2.569 au  H             1.00      1 D:z2            8
                        (      69.917 eV)
   145     145       --         2.569 au  H             1.00      1 D:x2-y2         8
                        (      69.917 eV)
   146     146       --         2.569 au  H             1.00      1 D:xy            8
                        (      69.917 eV)
   147     147       --         2.569 au  H             1.00      1 D:xz            8
                        (      69.917 eV)
   148     148       --         2.569 au  H             1.00      1 D:yz            8
                        (      69.917 eV)
   149     149      1.000      -0.240 au  H             1.00      1 S               9
                        (      -6.532 eV)
   150     150       --         0.088 au  H             1.00      2 S               9
                        (       2.394 eV)
   151     151       --         1.502 au  H             1.00      3 S               9
                        (      40.869 eV)
   152     152       --         0.406 au  H             1.00      1 P:x             9
                        (      11.051 eV)
   153     153       --         0.406 au  H             1.00      1 P:y             9
                        (      11.051 eV)
   154     154       --         0.406 au  H             1.00      1 P:z             9
                        (      11.051 eV)
   155     155       --         2.569 au  H             1.00      1 D:z2            9
                        (      69.917 eV)
   156     156       --         2.569 au  H             1.00      1 D:x2-y2         9
                        (      69.917 eV)
   157     157       --         2.569 au  H             1.00      1 D:xy            9
                        (      69.917 eV)
   158     158       --         2.569 au  H             1.00      1 D:xz            9
                        (      69.917 eV)
   159     159       --         2.569 au  H             1.00      1 D:yz            9
                        (      69.917 eV)
   160     160      1.000      -0.240 au  H             1.00      1 S              10
                        (      -6.532 eV)
   161     161       --         0.088 au  H             1.00      2 S              10
                        (       2.394 eV)
   162     162       --         1.502 au  H             1.00      3 S              10
                        (      40.869 eV)
   163     163       --         0.406 au  H             1.00      1 P:x            10
                        (      11.051 eV)
   164     164       --         0.406 au  H             1.00      1 P:y            10
                        (      11.051 eV)
   165     165       --         0.406 au  H             1.00      1 P:z            10
                        (      11.051 eV)
   166     166       --         2.569 au  H             1.00      1 D:z2           10
                        (      69.917 eV)
   167     167       --         2.569 au  H             1.00      1 D:x2-y2        10
                        (      69.917 eV)
   168     168       --         2.569 au  H             1.00      1 D:xy           10
                        (      69.917 eV)
   169     169       --         2.569 au  H             1.00      1 D:xz           10
                        (      69.917 eV)
   170     170       --         2.569 au  H             1.00      1 D:yz           10
                        (      69.917 eV)
   171     171      1.000      -0.240 au  H             1.00      1 S              11
                        (      -6.532 eV)
   172     172       --         0.088 au  H             1.00      2 S              11
                        (       2.394 eV)
   173     173       --         1.502 au  H             1.00      3 S              11
                        (      40.869 eV)
   174     174       --         0.406 au  H             1.00      1 P:x            11
                        (      11.051 eV)
   175     175       --         0.406 au  H             1.00      1 P:y            11
                        (      11.051 eV)
   176     176       --         0.406 au  H             1.00      1 P:z            11
                        (      11.051 eV)
   177     177       --         2.569 au  H             1.00      1 D:z2           11
                        (      69.917 eV)
   178     178       --         2.569 au  H             1.00      1 D:x2-y2        11
                        (      69.917 eV)
   179     179       --         2.569 au  H             1.00      1 D:xy           11
                        (      69.917 eV)
   180     180       --         2.569 au  H             1.00      1 D:xz           11
                        (      69.917 eV)
   181     181       --         2.569 au  H             1.00      1 D:yz           11
                        (      69.917 eV)
   182     182      2.000     -14.160 au  N             1.00      1 S              12
                        (    -385.319 eV)
   183     183      2.000      -0.678 au  N             1.00      2 S              12
                        (     -18.450 eV)
   184     184       --         0.517 au  N             1.00      3 S              12
                        (      14.073 eV)
   185     185       --         6.872 au  N             1.00      4 S              12
                        (     186.990 eV)
   186     186       --        63.432 au  N             1.00      5 S              12
                        (    1726.082 eV)
   187     187      1.000      -0.260 au  N             1.00      1 P:x            12
                        (      -7.062 eV)
   188     188       --         0.281 au  N             1.00      2 P:x            12
                        (       7.649 eV)
   189     189       --         3.275 au  N             1.00      3 P:x            12
                        (      89.105 eV)
   190     190      1.000      -0.260 au  N             1.00      1 P:y            12
                        (      -7.062 eV)
   191     191       --         0.281 au  N             1.00      2 P:y            12
                        (       7.649 eV)
   192     192       --         3.275 au  N             1.00      3 P:y            12
                        (      89.105 eV)
   193     193      1.000      -0.260 au  N             1.00      1 P:z            12
                        (      -7.062 eV)
   194     194       --         0.281 au  N             1.00      2 P:z            12
                        (       7.649 eV)
   195     195       --         3.275 au  N             1.00      3 P:z            12
                        (      89.105 eV)
   196     196       --         1.250 au  N             1.00      1 D:z2           12
                        (      34.005 eV)
   197     197       --         1.250 au  N             1.00      1 D:x2-y2        12
                        (      34.005 eV)
   198     198       --         1.250 au  N             1.00      1 D:xy           12
                        (      34.005 eV)
   199     199       --         1.250 au  N             1.00      1 D:xz           12
                        (      34.005 eV)
   200     200       --         1.250 au  N             1.00      1 D:yz           12
                        (      34.005 eV)
   201     201       --         4.013 au  N             1.00      1 F:z3           12
                        (     109.190 eV)
   202     202       --         4.013 au  N             1.00      1 F:z            12
                        (     109.190 eV)
   203     203       --         4.013 au  N             1.00      1 F:xyz          12
                        (     109.190 eV)
   204     204       --         4.013 au  N             1.00      1 F:z2x          12
                        (     109.190 eV)
   205     205       --         4.013 au  N             1.00      1 F:z2y          12
                        (     109.190 eV)
   206     206       --         4.013 au  N             1.00      1 F:x            12
                        (     109.190 eV)
   207     207       --         4.013 au  N             1.00      1 F:y            12
                        (     109.190 eV)
   208     208      2.000     -14.160 au  N             1.00      1 S              13
                        (    -385.319 eV)
   209     209      2.000      -0.678 au  N             1.00      2 S              13
                        (     -18.450 eV)
   210     210       --         0.517 au  N             1.00      3 S              13
                        (      14.073 eV)
   211     211       --         6.872 au  N             1.00      4 S              13
                        (     186.990 eV)
   212     212       --        63.432 au  N             1.00      5 S              13
                        (    1726.082 eV)
   213     213      1.000      -0.260 au  N             1.00      1 P:x            13
                        (      -7.062 eV)
   214     214       --         0.281 au  N             1.00      2 P:x            13
                        (       7.649 eV)
   215     215       --         3.275 au  N             1.00      3 P:x            13
                        (      89.105 eV)
   216     216      1.000      -0.260 au  N             1.00      1 P:y            13
                        (      -7.062 eV)
   217     217       --         0.281 au  N             1.00      2 P:y            13
                        (       7.649 eV)
   218     218       --         3.275 au  N             1.00      3 P:y            13
                        (      89.105 eV)
   219     219      1.000      -0.260 au  N             1.00      1 P:z            13
                        (      -7.062 eV)
   220     220       --         0.281 au  N             1.00      2 P:z            13
                        (       7.649 eV)
   221     221       --         3.275 au  N             1.00      3 P:z            13
                        (      89.105 eV)
   222     222       --         1.250 au  N             1.00      1 D:z2           13
                        (      34.005 eV)
   223     223       --         1.250 au  N             1.00      1 D:x2-y2        13
                        (      34.005 eV)
   224     224       --         1.250 au  N             1.00      1 D:xy           13
                        (      34.005 eV)
   225     225       --         1.250 au  N             1.00      1 D:xz           13
                        (      34.005 eV)
   226     226       --         1.250 au  N             1.00      1 D:yz           13
                        (      34.005 eV)
   227     227       --         4.013 au  N             1.00      1 F:z3           13
                        (     109.190 eV)
   228     228       --         4.013 au  N             1.00      1 F:z            13
                        (     109.190 eV)
   229     229       --         4.013 au  N             1.00      1 F:xyz          13
                        (     109.190 eV)
   230     230       --         4.013 au  N             1.00      1 F:z2x          13
                        (     109.190 eV)
   231     231       --         4.013 au  N             1.00      1 F:z2y          13
                        (     109.190 eV)
   232     232       --         4.013 au  N             1.00      1 F:x            13
                        (     109.190 eV)
   233     233       --         4.013 au  N             1.00      1 F:y            13
                        (     109.190 eV)
   234     234      2.000     -18.941 au  O             1.00      1 S              14
                        (    -515.403 eV)
   235     235      2.000      -0.876 au  O             1.00      2 S              14
                        (     -23.838 eV)
   236     236       --         0.791 au  O             1.00      3 S              14
                        (      21.524 eV)
   237     237       --        13.422 au  O             1.00      4 S              14
                        (     365.226 eV)
   238     238       --       121.561 au  O             1.00      5 S              14
                        (    3307.838 eV)
   239     239      1.333      -0.331 au  O             1.00      1 P:x            14
                        (      -9.020 eV)
   240     240       --         0.347 au  O             1.00      2 P:x            14
                        (       9.437 eV)
   241     241       --         3.820 au  O             1.00      3 P:x            14
                        (     103.939 eV)
   242     242      1.333      -0.331 au  O             1.00      1 P:y            14
                        (      -9.020 eV)
   243     243       --         0.347 au  O             1.00      2 P:y            14
                        (       9.437 eV)
   244     244       --         3.820 au  O             1.00      3 P:y            14
                        (     103.939 eV)
   245     245      1.333      -0.331 au  O             1.00      1 P:z            14
                        (      -9.020 eV)
   246     246       --         0.347 au  O             1.00      2 P:z            14
                        (       9.437 eV)
   247     247       --         3.820 au  O             1.00      3 P:z            14
                        (     103.939 eV)
   248     248       --         1.071 au  O             1.00      1 D:z2           14
                        (      29.134 eV)
   249     249       --         1.071 au  O             1.00      1 D:x2-y2        14
                        (      29.134 eV)
   250     250       --         1.071 au  O             1.00      1 D:xy           14
                        (      29.134 eV)
   251     251       --         1.071 au  O             1.00      1 D:xz           14
                        (      29.134 eV)
   252     252       --         1.071 au  O             1.00      1 D:yz           14
                        (      29.134 eV)
   253     253       --         3.359 au  O             1.00      1 F:z3           14
                        (      91.410 eV)
   254     254       --         3.359 au  O             1.00      1 F:z            14
                        (      91.410 eV)
   255     255       --         3.359 au  O             1.00      1 F:xyz          14
                        (      91.410 eV)
   256     256       --         3.359 au  O             1.00      1 F:z2x          14
                        (      91.410 eV)
   257     257       --         3.359 au  O             1.00      1 F:z2y          14
                        (      91.410 eV)
   258     258       --         3.359 au  O             1.00      1 F:x            14
                        (      91.410 eV)
   259     259       --         3.359 au  O             1.00      1 F:y            14
                        (      91.410 eV)
   260     260      2.000     -18.941 au  O             1.00      1 S              15
                        (    -515.403 eV)
   261     261      2.000      -0.876 au  O             1.00      2 S              15
                        (     -23.838 eV)
   262     262       --         0.791 au  O             1.00      3 S              15
                        (      21.524 eV)
   263     263       --        13.422 au  O             1.00      4 S              15
                        (     365.226 eV)
   264     264       --       121.561 au  O             1.00      5 S              15
                        (    3307.838 eV)
   265     265      1.333      -0.331 au  O             1.00      1 P:x            15
                        (      -9.020 eV)
   266     266       --         0.347 au  O             1.00      2 P:x            15
                        (       9.437 eV)
   267     267       --         3.820 au  O             1.00      3 P:x            15
                        (     103.939 eV)
   268     268      1.333      -0.331 au  O             1.00      1 P:y            15
                        (      -9.020 eV)
   269     269       --         0.347 au  O             1.00      2 P:y            15
                        (       9.437 eV)
   270     270       --         3.820 au  O             1.00      3 P:y            15
                        (     103.939 eV)
   271     271      1.333      -0.331 au  O             1.00      1 P:z            15
                        (      -9.020 eV)
   272     272       --         0.347 au  O             1.00      2 P:z            15
                        (       9.437 eV)
   273     273       --         3.820 au  O             1.00      3 P:z            15
                        (     103.939 eV)
   274     274       --         1.071 au  O             1.00      1 D:z2           15
                        (      29.134 eV)
   275     275       --         1.071 au  O             1.00      1 D:x2-y2        15
                        (      29.134 eV)
   276     276       --         1.071 au  O             1.00      1 D:xy           15
                        (      29.134 eV)
   277     277       --         1.071 au  O             1.00      1 D:xz           15
                        (      29.134 eV)
   278     278       --         1.071 au  O             1.00      1 D:yz           15
                        (      29.134 eV)
   279     279       --         3.359 au  O             1.00      1 F:z3           15
                        (      91.410 eV)
   280     280       --         3.359 au  O             1.00      1 F:z            15
                        (      91.410 eV)
   281     281       --         3.359 au  O             1.00      1 F:xyz          15
                        (      91.410 eV)
   282     282       --         3.359 au  O             1.00      1 F:z2x          15
                        (      91.410 eV)
   283     283       --         3.359 au  O             1.00      1 F:z2y          15
                        (      91.410 eV)
   284     284       --         3.359 au  O             1.00      1 F:x            15
                        (      91.410 eV)
   285     285       --         3.359 au  O             1.00      1 F:y            15
                        (      91.410 eV)



 ================================
 (Slater-type)  F U N C T I O N S  ***  (Basis and Fit)  ***
 ================================
  

 Atom Type    1  (C)
 ==============

 Valence Basis Sets:  10
 -----------------------
   1 S    7.680000
   1 S    5.000000
   2 S    1.280000
   2 S    2.100000
   2 S    4.600000
   2 P    0.820000
   2 P    1.480000
   2 P    2.940000
   3 D    2.200000
   4 F    3.300000

 Atom Type    2  (F)
 ==============

 Valence Basis Sets:  10
 -----------------------
   1 S   10.880000
   1 S    7.700000
   2 S    3.240000
   2 S    1.940000
   2 S    0.740000
   2 P    4.540000
   2 P    2.300000
   2 P    1.240000
   3 D    2.000000
   4 F    3.000000

 Atom Type    3  (H)
 ==============

 Valence Basis Sets:   5
 -----------------------
   1 S    0.690000
   1 S    0.920000
   1 S    1.580000
   2 P    1.250000
   3 D    2.500000

 Atom Type    4  (N)
 ==============

 Valence Basis Sets:  10
 -----------------------
   1 S    8.740000
   1 S    5.900000
   2 S    5.150000
   2 S    2.500000
   2 S    1.500000
   2 P    3.680000
   2 P    1.880000
   2 P    1.000000
   3 D    2.200000
   4 F    3.300000

 Atom Type    5  (O)
 ==============

 Valence Basis Sets:  10
 -----------------------
   1 S    9.800000
   1 S    6.800000
   2 S    7.580000
   2 S    2.880000
   2 S    1.720000
   2 P    4.080000
   2 P    2.080000
   2 P    1.120000
   3 D    2.000000
   4 F    3.000000


 BAS: List of all Elementary Cartesian Basis Functions
 =====================================================

 The numbering in the list below (to the right of the function characteristics) is referred
 to in print-outs of MO eigenvectors and Mulliken populations in the BAS representation
 (as contrasted to the SFO representation).

 Notes:
 1. The functions are characterized by a polynomial prefactor (powers of x,y,z and r) and
    an exponential decay factor alpha.
 2. Since the basis sets are specific for an atom TYPE, the individual functions occur on
    all atoms of that type.
 3. The word 'Core' in the left margin signals that it is a Core Function (CF) : not a
    degree of freedom in the valence set, but only used to ensure orthogonalization of
    the other valence basis functions on the frozen Core Orbitals.


 (power of) X  Y  Z  R     Alpha  on Atom
            ==========     =====     ==========

 C                                    1    2    3
                                  ---------------------------------------------------------------------------
            0  0  0  0     7.680      1   31   61
            0  0  0  0     5.000      2   32   62
            0  0  0  1     1.280      3   33   63
            0  0  0  1     2.100      4   34   64
            0  0  0  1     4.600      5   35   65
            1  0  0  0     0.820      6   36   66
            0  1  0  0     0.820      7   37   67
            0  0  1  0     0.820      8   38   68
            1  0  0  0     1.480      9   39   69
            0  1  0  0     1.480     10   40   70
            0  0  1  0     1.480     11   41   71
            1  0  0  0     2.940     12   42   72
            0  1  0  0     2.940     13   43   73
            0  0  1  0     2.940     14   44   74
            2  0  0  0     2.200     15   45   75
            1  1  0  0     2.200     16   46   76
            1  0  1  0     2.200     17   47   77
            0  2  0  0     2.200     18   48   78
            0  1  1  0     2.200     19   49   79
            0  0  2  0     2.200     20   50   80
            3  0  0  0     3.300     21   51   81
            2  1  0  0     3.300     22   52   82
            2  0  1  0     3.300     23   53   83
            1  2  0  0     3.300     24   54   84
            1  1  1  0     3.300     25   55   85
            1  0  2  0     3.300     26   56   86
            0  3  0  0     3.300     27   57   87
            0  2  1  0     3.300     28   58   88
            0  1  2  0     3.300     29   59   89
            0  0  3  0     3.300     30   60   90

 F                                    4
                                  ---------------------------------------------------------------------------
            0  0  0  0    10.880     91
            0  0  0  0     7.700     92
            0  0  0  1     3.240     93
            0  0  0  1     1.940     94
            0  0  0  1     0.740     95
            1  0  0  0     4.540     96
            0  1  0  0     4.540     97
            0  0  1  0     4.540     98
            1  0  0  0     2.300     99
            0  1  0  0     2.300    100
            0  0  1  0     2.300    101
            1  0  0  0     1.240    102
            0  1  0  0     1.240    103
            0  0  1  0     1.240    104
            2  0  0  0     2.000    105
            1  1  0  0     2.000    106
            1  0  1  0     2.000    107
            0  2  0  0     2.000    108
            0  1  1  0     2.000    109
            0  0  2  0     2.000    110
            3  0  0  0     3.000    111
            2  1  0  0     3.000    112
            2  0  1  0     3.000    113
            1  2  0  0     3.000    114
            1  1  1  0     3.000    115
            1  0  2  0     3.000    116
            0  3  0  0     3.000    117
            0  2  1  0     3.000    118
            0  1  2  0     3.000    119
            0  0  3  0     3.000    120

 H                                    5    6    7    8    9   10   11
                                  ---------------------------------------------------------------------------
            0  0  0  0     0.690    121  133  145  157  169  181  193
            0  0  0  0     0.920    122  134  146  158  170  182  194
            0  0  0  0     1.580    123  135  147  159  171  183  195
            1  0  0  0     1.250    124  136  148  160  172  184  196
            0  1  0  0     1.250    125  137  149  161  173  185  197
            0  0  1  0     1.250    126  138  150  162  174  186  198
            2  0  0  0     2.500    127  139  151  163  175  187  199
            1  1  0  0     2.500    128  140  152  164  176  188  200
            1  0  1  0     2.500    129  141  153  165  177  189  201
            0  2  0  0     2.500    130  142  154  166  178  190  202
            0  1  1  0     2.500    131  143  155  167  179  191  203
            0  0  2  0     2.500    132  144  156  168  180  192  204

 N                                   12   13
                                  ---------------------------------------------------------------------------
            0  0  0  0     8.740    205  235
            0  0  0  0     5.900    206  236
            0  0  0  1     5.150    207  237
            0  0  0  1     2.500    208  238
            0  0  0  1     1.500    209  239
            1  0  0  0     3.680    210  240
            0  1  0  0     3.680    211  241
            0  0  1  0     3.680    212  242
            1  0  0  0     1.880    213  243
            0  1  0  0     1.880    214  244
            0  0  1  0     1.880    215  245
            1  0  0  0     1.000    216  246
            0  1  0  0     1.000    217  247
            0  0  1  0     1.000    218  248
            2  0  0  0     2.200    219  249
            1  1  0  0     2.200    220  250
            1  0  1  0     2.200    221  251
            0  2  0  0     2.200    222  252
            0  1  1  0     2.200    223  253
            0  0  2  0     2.200    224  254
            3  0  0  0     3.300    225  255
            2  1  0  0     3.300    226  256
            2  0  1  0     3.300    227  257
            1  2  0  0     3.300    228  258
            1  1  1  0     3.300    229  259
            1  0  2  0     3.300    230  260
            0  3  0  0     3.300    231  261
            0  2  1  0     3.300    232  262
            0  1  2  0     3.300    233  263
            0  0  3  0     3.300    234  264

 O                                   14   15
                                  ---------------------------------------------------------------------------
            0  0  0  0     9.800    265  295
            0  0  0  0     6.800    266  296
            0  0  0  1     7.580    267  297
            0  0  0  1     2.880    268  298
            0  0  0  1     1.720    269  299
            1  0  0  0     4.080    270  300
            0  1  0  0     4.080    271  301
            0  0  1  0     4.080    272  302
            1  0  0  0     2.080    273  303
            0  1  0  0     2.080    274  304
            0  0  1  0     2.080    275  305
            1  0  0  0     1.120    276  306
            0  1  0  0     1.120    277  307
            0  0  1  0     1.120    278  308
            2  0  0  0     2.000    279  309
            1  1  0  0     2.000    280  310
            1  0  1  0     2.000    281  311
            0  2  0  0     2.000    282  312
            0  1  1  0     2.000    283  313
            0  0  2  0     2.000    284  314
            3  0  0  0     3.000    285  315
            2  1  0  0     3.000    286  316
            2  0  1  0     3.000    287  317
            1  2  0  0     3.000    288  318
            1  1  1  0     3.000    289  319
            1  0  2  0     3.000    290  320
            0  3  0  0     3.000    291  321
            0  2  1  0     3.000    292  322
            0  1  2  0     3.000    293  323
            0  0  3  0     3.000    294  324

 Total number of charge fitting functions (nprimf)      1023
 Total number of Cartesian basis functions (naos)        324
 Total number of Cartesian core functions  (ncos)          0

 ***************************************************************************************************



                                              ***********************
                                              *  T E C H N I C A L  *
                                              ***********************
  



 =============================================================
 P A R A L L E L I Z A T I O N  and  V E C T O R I Z A T I O N
 =============================================================
  
 Nr of parallel processes:                                1
 Maximum vector length in NumInt loops:                 128



 =====================
 S C F   U P D A T E S
 =====================
  
 Max. nr. of cycles:                               200
 Convergence criterion:                              0.0000010000
   secondary criterion:                              0.0010000000

 Mix parameter (when DIIS does not apply):           0.2000000000
 Mixed ADIIS+SDIIS will be used                  
    Max number of expansion vectors:                10
    Pure ADIIS when Max([F,P]) is above              0.1000000000
    Pure SDIIS when Max([F,P]) is below              0.0010000000
 Automatic ElectronSmearing (in case of problematic SCF convergence) disabled



 =================
 P R E C I S I O N  ***  (General: NumInt, NeglectFunctionTails, ...)  ***
 =================
  

 NumInt:           Target precision:                 4.0000000000
 -------           Initial precision:                4.0000000000
                   Min. precision (optimization):    4.0000000000

 Neglect Functions:          Basis functions:        0.1000000000E-05
 ------------------          Fit functions:          0.1000000000E-05



 ===========================
 L I N E A R   S C A L I N G
 ===========================
  

 Cut-off radii density fit:                        0.1000000000E-07
 Overlap cut-off criterion AO matrix elements:     0.1000000000E-05
 Cut-offs for Coulomb potential and fitted density:0.1000000000E-07
 Cut-off criterion for Coulomb multipole terms:    0.1000000000E-07
 Progressive Convergence parameter:                 0.000000000    
 ***************************************************************************************************



                                            ***************************
                                            *  C O M P U T A T I O N  *
                                            ***************************
  

 Number of elements of the density matrix on this node (used, total):     52650     52650



 ===========================================
 Numerical Integration : Fuzzy Cells (Becke)
 ===========================================
  
 Becke grid quality: NORMAL         
  
 Lebedev angular grid order:             min:  11 max:  23
 Nr. of radial points:                   min:  46 max:  55

 Total nr. of points:      97738
 Nr. of blocks:              764
 Block length:               128
 Nr. of dummy points:         54


 Test of Precision of the Numerical Integration Grid
 ===================================================

 Integral of the Total Core Density:                   0.00000000000000



 ========================
 Density Fitting (zlmFit)
 ========================
  
 ZlmFit Fit Quality: NORMAL         
  
 Max L-expansion:                        min:   6 max:   7
 Nr. of radial interpolation points:     min:  39 max:  54



 =====
 S C F  ***  ScaSCF  ***
 =====
  
 Initial density matrix is calculated as sum of fragments

 CYCLE    1
 SCF Error: norm([F,P])=      6.748850620963, max([F,P])=      1.246780077646
 orbitals (Q,E):
 ---------------
 A :23...42          ( 2.00    -0.5319)  ( 2.00    -0.5279)  ( 2.00    -0.5161)  ( 2.00    -0.4729)
                     ( 2.00    -0.4523)  ( 2.00    -0.4361)  ( 2.00    -0.4053)  ( 2.00    -0.3894)
                     ( 2.00    -0.3740)  ( 2.00    -0.3689)  ( 0.00    -0.1918)  ( 0.00    -0.1146)
                     ( 0.00    -0.0571)  ( 0.00    -0.0449)  ( 0.00    -0.0394)  ( 0.00    -0.0291)
                     ( 0.00    -0.0033)  ( 0.00     0.0012)  ( 0.00     0.0126)  ( 0.00     0.0206)

 CYCLE    2
   MIX coefficients:  0.8000  0.2000
 SCF Error: norm([F,P])=      1.368148655957, max([F,P])=      0.203506030756
 orbitals (Q,E):
 ---------------
 A :23...33          ( 2.00    -0.4812)  ( 2.00    -0.4770)  ( 2.00    -0.4688)  ( 2.00    -0.4359)
                     ( 2.00    -0.4151)  ( 2.00    -0.3979)  ( 2.00    -0.3527)  ( 2.00    -0.3445)
                     ( 2.00    -0.3295)  ( 2.00    -0.3127)  ( 0.00    -0.1781)

 CYCLE    3
  SDIIS (wt  0.000): -0.6068  1.6068
 A-DIIS (wt  1.000):  0.0000  1.0000
  DIIS coefficients:  0.0000  1.0000
 SCF Error: norm([F,P])=      0.590729752009, max([F,P])=      0.102777871860
 orbitals (Q,E):
 ---------------
 A :23...33          ( 2.00    -0.3381)  ( 2.00    -0.3334)  ( 2.00    -0.3216)  ( 2.00    -0.3005)
                     ( 2.00    -0.2910)  ( 2.00    -0.2751)  ( 2.00    -0.2520)  ( 2.00    -0.2344)
                     ( 2.00    -0.2137)  ( 2.00    -0.1341)  ( 0.00    -0.0995)

 CYCLE    4
  SDIIS (wt  0.000):  0.0268  0.6248  0.3484
 A-DIIS (wt  1.000): -0.0000  0.7432  0.2568
  DIIS coefficients: -0.0000  0.7432  0.2568
 SCF Error: norm([F,P])=      1.121314885747, max([F,P])=      0.215829650147
 orbitals (Q,E):
 ---------------
 A :23...33          ( 2.00    -0.3838)  ( 2.00    -0.3629)  ( 2.00    -0.3564)  ( 2.00    -0.3473)
                     ( 2.00    -0.3305)  ( 2.00    -0.3103)  ( 2.00    -0.2661)  ( 2.00    -0.2502)
                     ( 2.00    -0.2290)  ( 2.00    -0.2142)  ( 0.00    -0.0981)

 CYCLE    5
  SDIIS (wt  0.420):  0.0111  0.3901  0.1317  0.4671
 A-DIIS (wt  0.580):  0.0000  0.1492  0.0000  0.8508
  DIIS coefficients:  0.0047  0.2504  0.0553  0.6896
 SCF Error: norm([F,P])=      0.280262645301, max([F,P])=      0.058400922464
 orbitals (Q,E):
 ---------------
 A :23...33          ( 2.00    -0.4089)  ( 2.00    -0.4039)  ( 2.00    -0.3870)  ( 2.00    -0.3825)
                     ( 2.00    -0.3549)  ( 2.00    -0.3351)  ( 2.00    -0.3121)  ( 2.00    -0.2954)
                     ( 2.00    -0.2755)  ( 2.00    -0.2248)  ( 0.00    -0.1440)

 CYCLE    6
  SDIIS (wt  0.420):  0.0043  0.2312  0.0479  0.4820  0.2347
 A-DIIS (wt  0.580):  0.0000  0.0000  0.0000  0.4964  0.5036
  DIIS coefficients:  0.0018  0.0971  0.0201  0.4903  0.3906
 SCF Error: norm([F,P])=      0.291574449753, max([F,P])=      0.071199186630
 orbitals (Q,E):
 ---------------
 A :23...33          ( 2.00    -0.4066)  ( 2.00    -0.3950)  ( 2.00    -0.3819)  ( 2.00    -0.3780)
                     ( 2.00    -0.3524)  ( 2.00    -0.3338)  ( 2.00    -0.3023)  ( 2.00    -0.2892)
                     ( 2.00    -0.2594)  ( 2.00    -0.2335)  ( 0.00    -0.1307)

 CYCLE    7
  SDIIS (wt  0.420):  0.0004  0.0738  0.0044  0.3535  0.3540  0.2138
 A-DIIS (wt  0.580):  0.0000  0.0000  0.0000  0.1762  0.4389  0.3849
  DIIS coefficients:  0.0002  0.0310  0.0018  0.2507  0.4032  0.3130
 SCF Error: norm([F,P])=      0.294162581092, max([F,P])=      0.082765935083
 orbitals (Q,E):
 ---------------
 A :23...33          ( 2.00    -0.4002)  ( 2.00    -0.3872)  ( 2.00    -0.3752)  ( 2.00    -0.3712)
                     ( 2.00    -0.3461)  ( 2.00    -0.3279)  ( 2.00    -0.2921)  ( 2.00    -0.2740)
                     ( 2.00    -0.2585)  ( 2.00    -0.2262)  ( 0.00    -0.1233)

 CYCLE    8
  SDIIS (wt  0.880): -0.0084  0.0238  0.0055  0.0884  0.1870  0.2134  0.4904
 A-DIIS (wt  0.120):  0.0000  0.0000  0.0000  0.0000  0.0000  0.0636  0.9364
  DIIS coefficients: -0.0074  0.0210  0.0049  0.0778  0.1646  0.1955  0.5437
 SCF Error: norm([F,P])=      0.059622828044, max([F,P])=      0.012834731571
 orbitals (Q,E):
 ---------------
 A :23...33          ( 2.00    -0.4019)  ( 2.00    -0.3907)  ( 2.00    -0.3775)  ( 2.00    -0.3738)
                     ( 2.00    -0.3479)  ( 2.00    -0.3297)  ( 2.00    -0.2961)  ( 2.00    -0.2777)
                     ( 2.00    -0.2619)  ( 2.00    -0.2256)  ( 0.00    -0.1278)

 CYCLE    9
  SDIIS (wt  0.969): -0.0035  0.0032  0.0006  0.0050  0.0488  0.0626  0.3183  0.5649
 A-DIIS (wt  0.031):  0.0000  0.0000  0.0000  0.0000  0.0000  0.0000  0.1043  0.8957
  DIIS coefficients: -0.0034  0.0031  0.0006  0.0049  0.0473  0.0607  0.3118  0.5750
 SCF Error: norm([F,P])=      0.016706176220, max([F,P])=      0.004035890683
 orbitals (Q,E):
 ---------------
 A :23...33          ( 2.00    -0.4017)  ( 2.00    -0.3901)  ( 2.00    -0.3772)  ( 2.00    -0.3734)
                     ( 2.00    -0.3477)  ( 2.00    -0.3295)  ( 2.00    -0.2959)  ( 2.00    -0.2774)
                     ( 2.00    -0.2618)  ( 2.00    -0.2262)  ( 0.00    -0.1275)

 CYCLE   10
  SDIIS (wt  1.000): -0.0002 -0.0010  0.0001 -0.0045  0.0046  0.0075  0.1076  0.3416  0.5443
  DIIS coefficients: -0.0002 -0.0010  0.0001 -0.0045  0.0046  0.0075  0.1076  0.3416  0.5443
 SCF Error: norm([F,P])=      0.002666889605, max([F,P])=      0.000445811245
 orbitals (Q,E):
 ---------------
 A :23...33          ( 2.00    -0.4017)  ( 2.00    -0.3901)  ( 2.00    -0.3773)  ( 2.00    -0.3735)
                     ( 2.00    -0.3478)  ( 2.00    -0.3296)  ( 2.00    -0.2957)  ( 2.00    -0.2773)
                     ( 2.00    -0.2617)  ( 2.00    -0.2260)  ( 0.00    -0.1274)

 CYCLE   11
  SDIIS (wt  1.000):  0.0003 -0.0008  0.0001 -0.0021  0.0006  0.0011  0.0476  0.1846  0.3480  0.4207
  DIIS coefficients:  0.0003 -0.0008  0.0001 -0.0021  0.0006  0.0011  0.0476  0.1846  0.3480  0.4207
 SCF Error: norm([F,P])=      0.000746077736, max([F,P])=      0.000209501838
 orbitals (Q,E):
 ---------------
 A :23...33          ( 2.00    -0.4017)  ( 2.00    -0.3901)  ( 2.00    -0.3772)  ( 2.00    -0.3734)
                     ( 2.00    -0.3477)  ( 2.00    -0.3295)  ( 2.00    -0.2957)  ( 2.00    -0.2773)
                     ( 2.00    -0.2617)  ( 2.00    -0.2260)  ( 0.00    -0.1274)

 CYCLE   12
  SDIIS (wt  1.000): -0.0002 -0.0000 -0.0006  0.0006  0.0009  0.0186  0.0678  0.1224  0.1842  0.6064
  DIIS coefficients: -0.0002 -0.0000 -0.0006  0.0006  0.0009  0.0186  0.0678  0.1224  0.1842  0.6064
 SCF Error: norm([F,P])=      0.000132133452, max([F,P])=      0.000025377723
 orbitals (Q,E):
 ---------------
 A :23...33          ( 2.00    -0.4017)  ( 2.00    -0.3901)  ( 2.00    -0.3772)  ( 2.00    -0.3734)
                     ( 2.00    -0.3477)  ( 2.00    -0.3295)  ( 2.00    -0.2957)  ( 2.00    -0.2773)
                     ( 2.00    -0.2617)  ( 2.00    -0.2260)  ( 0.00    -0.1274)

 CYCLE   13
  SDIIS (wt  1.000): -0.0000 -0.0001  0.0001  0.0000  0.0064  0.0284  0.0577  0.0936  0.4051  0.4088
  DIIS coefficients: -0.0000 -0.0001  0.0001  0.0000  0.0064  0.0284  0.0577  0.0936  0.4051  0.4088
 SCF Error: norm([F,P])=      0.000101176434, max([F,P])=      0.000020601378
 orbitals (Q,E):
 ---------------
 A :23...33          ( 2.00    -0.4017)  ( 2.00    -0.3901)  ( 2.00    -0.3772)  ( 2.00    -0.3734)
                     ( 2.00    -0.3477)  ( 2.00    -0.3295)  ( 2.00    -0.2957)  ( 2.00    -0.2773)
                     ( 2.00    -0.2617)  ( 2.00    -0.2260)  ( 0.00    -0.1274)

 CYCLE   14
  SDIIS (wt  1.000): -0.0000  0.0000  0.0000  0.0015  0.0061  0.0128  0.0214  0.1358  0.1830  0.6394
  DIIS coefficients: -0.0000  0.0000  0.0000  0.0015  0.0061  0.0128  0.0214  0.1358  0.1830  0.6394
 SCF Error: norm([F,P])=      0.000017878326, max([F,P])=      0.000004430693
 orbitals (Q,E):
 ---------------
 A :23...33          ( 2.00    -0.4017)  ( 2.00    -0.3901)  ( 2.00    -0.3772)  ( 2.00    -0.3734)
                     ( 2.00    -0.3477)  ( 2.00    -0.3295)  ( 2.00    -0.2957)  ( 2.00    -0.2773)
                     ( 2.00    -0.2617)  ( 2.00    -0.2260)  ( 0.00    -0.1274)

 CYCLE   15
  SDIIS (wt  1.000):  0.0000  0.0000  0.0003  0.0009  0.0022  0.0053  0.0509  0.0783  0.3443  0.5178
  DIIS coefficients:  0.0000  0.0000  0.0003  0.0009  0.0022  0.0053  0.0509  0.0783  0.3443  0.5178
 SCF Error: norm([F,P])=      0.000005639121, max([F,P])=      0.000001147413
 orbitals (Q,E):
 ---------------
 A :23...33          ( 2.00    -0.4017)  ( 2.00    -0.3901)  ( 2.00    -0.3772)  ( 2.00    -0.3734)
                     ( 2.00    -0.3477)  ( 2.00    -0.3295)  ( 2.00    -0.2957)  ( 2.00    -0.2773)
                     ( 2.00    -0.2617)  ( 2.00    -0.2260)  ( 0.00    -0.1274)

 CYCLE   16
  SDIIS (wt  1.000): -0.0000  0.0000  0.0001  0.0003  0.0015  0.0140  0.0265  0.1316  0.2906  0.5353
  DIIS coefficients: -0.0000  0.0000  0.0001  0.0003  0.0015  0.0140  0.0265  0.1316  0.2906  0.5353
 SCF Error: norm([F,P])=      0.000002068239, max([F,P])=      0.000000514604
 orbitals (Q,E):
 ---------------
 A :23...33          ( 2.00    -0.4017)  ( 2.00    -0.3901)  ( 2.00    -0.3772)  ( 2.00    -0.3734)
                     ( 2.00    -0.3477)  ( 2.00    -0.3295)  ( 2.00    -0.2957)  ( 2.00    -0.2773)
                     ( 2.00    -0.2617)  ( 2.00    -0.2260)  ( 0.00    -0.1274)

 SCF CONVERGED

 CYCLE   17
 ***************************************************************************************************



                                                *******************
                                                *  R E S U L T S  *
                                                *******************
  
 *** Using FIT density in Focky
  SDIIS (wt  1.000):  0.0000  0.0000  0.0001  0.0006  0.0045  0.0083  0.0416  0.0866  0.1956  0.6627
  DIIS coefficients:  0.0000  0.0000  0.0001  0.0006  0.0045  0.0083  0.0416  0.0866  0.1956  0.6627
 SCF Error: norm([F,P])=      0.000000321905, max([F,P])=      0.000000049609

 Scaled ZORA Orbital Energies, per Irrep and Spin:
 =================================================
                        Occup              E (au)              E (eV)       Diff (eV) with prev. cycle
                        -----      --------------------        ------       --------------------------
 A
              23        2.000     -0.40167815087672E+00       -10.930               1.50E-07
              24        2.000     -0.39013631444850E+00       -10.616               3.20E-07
              25        2.000     -0.37722046107571E+00       -10.265               1.91E-07
              26        2.000     -0.37344059890648E+00       -10.162               6.87E-08
              27        2.000     -0.34771031824514E+00        -9.462              -3.99E-08
              28        2.000     -0.32951540253528E+00        -8.967              -7.20E-08
              29        2.000     -0.29571825705142E+00        -8.047               1.96E-07
              30        2.000     -0.27729966040544E+00        -7.546               2.72E-07
              31        2.000     -0.26166171499932E+00        -7.120               2.31E-07
              32        2.000     -0.22600811166840E+00        -6.150               7.24E-07
              33        0.000     -0.12737779336897E+00        -3.466
              34        0.000     -0.52418289384560E-01        -1.426
              35        0.000     -0.61028615622980E-02        -0.166
              36        0.000      0.97766255137158E-02         0.266
              37        0.000      0.18076362461845E-01         0.492
              38        0.000      0.25487946348262E-01         0.694
              39        0.000      0.45946636869335E-01         1.250
              40        0.000      0.51846249983718E-01         1.411
              41        0.000      0.71801881504417E-01         1.954
              42        0.000      0.85887949626099E-01         2.337
  
 HOMO :       32 A                -0.22600811166840E+00
 LUMO :       33 A                -0.12737779336897E+00
  


 All Electron Calculation, thus no Orbital Energies of the Core Orbitals are calculated


 Fit test: (difference of exact and fit density, squared integrated, result summed over spins)
         Sum-of-Fragments:                             0.00000000138452
         Orthogonalized Fragments:                     0.00008114870190
         SCF:                                          0.00017778068388



 ==========================
 Electron Density at Nuclei
 ==========================
  
 The electron density is calculated at points on a small sphere around the center of a nucleus.
 The printed electron density is the average electron density on these points.
 The radius of the sphere is the printed approximate finite nuclear radius.
 Note: ZORA-4 density is used, which includes small component density

         Atom        Nuclear Radius (Angstrom)             Electron Density (a.u.)
         ----        -------------------------             -----------------------
     1)   C                 0.0000320678                              127.16087
     2)   C                 0.0000320678                              127.03290
     3)   F                 0.0000361580                              450.77993
     4)   H                 0.0000181514                                0.41629
     5)   H                 0.0000181514                                0.51151
     6)   N                 0.0000333706                              206.22944
     7)   O                 0.0000345546                              314.33779
     8)   O                 0.0000345546                              314.35812
     9)   C                 0.0000320678                              127.01525
    10)   H                 0.0000181514                                0.50676
    11)   H                 0.0000181514                                0.50800
    12)   H                 0.0000181514                                0.50754
    13)   N                 0.0000333706                              205.96138
    14)   H                 0.0000181514                                0.50395
    15)   H                 0.0000181514                                0.50090



[...]
                                    1.15%     2 S               2.394  0.00     8 H
                                    1.07%     2 P:x             4.589  0.00     2 C
       0.694  0.00    38 A         25.54%     1 S              -6.532  1.00    11 H
                                   22.69%     1 P:x            -5.239  0.67     1 C
                                   17.38%     2 S               2.394  0.00    11 H
                                   10.06%     1 S              -6.532  1.00     8 H
                                   -6.54%     2 P:y             4.589  0.00     2 C
                                    6.13%     1 P:x           -11.127  1.67     4 F
                                    5.85%     1 S              -6.532  1.00     7 H
                                   -4.50%     2 P:y             7.649  0.00    13 N
                                    4.07%     1 S              -6.532  1.00     9 H
                                   -3.66%     2 S               2.394  0.00     8 H
                                    3.06%     2 S             -13.620  2.00     1 C
                                    2.88%     3 S               0.624  0.00     4 F
                                    2.34%     2 S               2.394  0.00     7 H
                                    2.23%     1 P:x            -5.239  0.67     3 C
                                   -2.21%     2 P:z             7.649  0.00    13 N
                                    2.12%     1 P:y            -7.062  1.00    13 N
                                   -2.10%     2 P:z             4.589  0.00     3 C
                                    2.03%     1 S              -6.532  1.00     6 H
                                    1.90%     1 P:z            -7.062  1.00    13 N
                                   -1.84%     2 P:z             4.589  0.00     2 C
                                    1.60%     2 S               2.394  0.00     5 H
                                    1.52%     2 P:y             4.589  0.00     1 C
                                   -1.42%     2 P:x             4.589  0.00     3 C
                                    1.36%     1 P:z           -11.127  1.67     4 F
                                    1.02%     2 P:x             7.649  0.00    12 N
                                   -1.02%     2 P:x             4.589  0.00     2 C
       1.250  0.00    39 A         34.62%     2 S               2.394  0.00     8 H
                                   33.67%     1 S              -6.532  1.00     8 H
                                   22.24%     3 S               0.624  0.00     4 F
                                  -20.27%     2 P:x             4.589  0.00     3 C
                                    8.45%     2 S               2.394  0.00    11 H
                                   -6.50%     2 P:x             4.589  0.00     1 C
                                    4.43%     1 S              -6.532  1.00    11 H
                                   -4.23%     2 S               2.394  0.00     5 H
                                    4.13%     1 S              -6.532  1.00    10 H
                                    4.11%     2 P:x             4.589  0.00     2 C
                                    3.58%     1 S              -6.532  1.00     5 H
                                   -3.38%     2 P:z             4.589  0.00     3 C
                                    2.98%     1 S              -6.532  1.00     7 H
                                    2.96%     2 P:y             4.589  0.00     3 C
                                    2.91%     1 P:x            -5.239  0.67     2 C
                                    2.86%     2 S               2.394  0.00    10 H
                                    2.75%     1 S              -6.532  1.00     9 H
                                   -2.73%     3 S              10.158  0.00     1 C
                                   -2.71%     1 P:x            -5.239  0.67     1 C
                                    2.39%     3 S              40.869  0.00     8 H
                                    1.95%     1 P:z            -5.239  0.67     3 C
                                   -1.67%     2 P:x            11.654  0.00     4 F
                                   -1.59%     2 P:z             4.589  0.00     1 C
                                    1.52%     1 P:x            -5.239  0.67     3 C
                                    1.32%     2 S             -13.620  2.00     1 C
                                   -1.28%     2 P:y             7.649  0.00    13 N
                                   -1.09%     2 P:y             4.589  0.00     2 C
       1.411  0.00    40 A         31.13%     1 S              -6.532  1.00     9 H
                                   25.39%     1 S              -6.532  1.00     6 H
                                   16.94%     1 S              -6.532  1.00     7 H
                                   16.60%     2 S               2.394  0.00     6 H
                                   11.99%     2 S               2.394  0.00     9 H
                                   11.23%     1 P:z            -5.239  0.67     3 C
                                   -6.78%     2 P:y             4.589  0.00     3 C
                                   -6.36%     2 S               2.394  0.00     7 H
                                   -5.13%     2 P:y             4.589  0.00     2 C
                                   -4.94%     2 P:z             4.589  0.00     3 C
                                   -4.05%     2 P:x             4.589  0.00     3 C
                                    3.55%     1 P:x            -5.239  0.67     2 C
                                   -3.43%     2 S               2.394  0.00     5 H
                                   -2.66%     2 P:z             4.589  0.00     2 C
                                    1.98%     2 S               2.394  0.00    10 H
                                    1.87%     3 S              40.869  0.00     9 H
                                   -1.65%     3 S              10.158  0.00     2 C
                                    1.60%     2 P:z             4.589  0.00     1 C
                                    1.51%     3 S              40.869  0.00     6 H
                                    1.50%     1 P:x            -5.239  0.67     3 C
                                   -1.49%     2 P:x             4.589  0.00     2 C
                                    1.37%     2 S             -13.620  2.00     1 C
                                    1.34%     1 P:y            -5.239  0.67     2 C
                                    1.25%     2 S             -13.620  2.00     2 C
                                    1.20%     2 S             -18.450  2.00    12 N
                                    1.18%     1 S              -6.532  1.00    10 H
                                    1.12%     2 P:y             4.589  0.00     1 C
                                   -1.04%     1 P:y            -5.239  0.67     3 C
       1.954  0.00    41 A         13.44%     3 S               0.624  0.00     4 F
                                   12.39%     2 S               2.394  0.00     7 H
                                   11.61%     2 S               2.394  0.00    10 H
                                   11.13%     2 S             -13.620  2.00     1 C
                                   10.65%     1 S              -6.532  1.00     7 H
                                   10.21%     1 P:z            -5.239  0.67     2 C
                                    9.14%     1 P:x            -5.239  0.67     1 C
                                   -8.77%     3 S              10.158  0.00     1 C
                                   -8.25%     2 P:z             4.589  0.00     3 C
                                    7.14%     1 S              -6.532  1.00    10 H
                                    7.10%     2 P:z             4.589  0.00     2 C
                                    5.37%     1 P:x           -11.127  1.67     4 F
                                   -4.66%     2 P:x             7.649  0.00    13 N
                                    4.08%     1 S              -6.532  1.00    11 H
                                    3.72%     1 S              -6.532  1.00     8 H
                                   -3.67%     2 P:x             4.589  0.00     1 C
                                    3.62%     2 S             -18.450  2.00    12 N
                                   -3.22%     2 P:x            11.654  0.00     4 F
                                    2.85%     2 P:y             4.589  0.00     3 C
                                    2.40%     2 S               2.394  0.00     5 H
                                    2.33%     1 P:y            -5.239  0.67     1 C
                                   -2.07%     2 P:x             4.589  0.00     3 C
                                    1.89%     1 P:y            -5.239  0.67     3 C
                                   -1.85%     2 P:y             4.589  0.00     1 C
                                    1.65%     3 S              40.869  0.00     7 H
                                   -1.59%     2 P:z             7.649  0.00    13 N
                                   -1.50%     3 S              21.524  0.00    14 O
                                    1.46%     1 P:x            -9.020  1.33    14 O
                                   -1.40%     4 S              42.880  0.00     4 F
                                    1.29%     1 P:x            -7.062  1.00    13 N
                                    1.21%     1 P:x            -5.239  0.67     2 C
                                    1.17%     1 P:z            11.051  0.00     5 H
                                    1.11%     3 S              40.869  0.00    11 H
                                    1.07%     1 P:x            -5.239  0.67     3 C



 =======================================================================
 Electrostatic potential at the Nuclei due to electrons and other nuclei
 =======================================================================
  
         Atom                  Potential
         ----                  ---------
     1)   C                  14.63423763
     2)   C                  14.70735110
     3)   F                  26.62837426
     4)   H                   1.04061584
     5)   H                   1.07961214
     6)   N                  18.18869253
     7)   O                  22.35823901
     8)   O                  22.35736209
     9)   C                  14.76337617
    10)   H                   1.08515235
    11)   H                   1.08219702
    12)   H                   1.08170727
    13)   N                  18.41299043
    14)   H                   1.04277622
    15)   H                   1.04087351
 Mulliken charges used for AMS results%charges...


    =====================
     CALCULATION RESULTS
    =====================

Energy (hartree)            -2.94286916


--------------
Atomic charges
--------------
  Index   Atom    Charge
      1      C    0.4359
      2      C    0.4493
      3      F   -0.4240
      4      H   -0.0857
      5      H   -0.1681
      6      N    0.5596
      7      O   -0.3930
      8      O   -0.3839
      9      C    0.7176
     10      H   -0.1958
     11      H   -0.1889
     12      H   -0.2153
     13      N   -0.0667
     14      H   -0.0269
     15      H   -0.0141


Dipole moment vector    (Debye):    -0.19806133    2.56762516    0.96207124
              magnitude (Debye):     2.74909227


-----------------------
Molecular orbitals info
-----------------------
n orbitals:              285
n spin:                    1

Note: only printing virtual orbitals with
      energy smaller than HOMO + 100. eV

HOMO (eV):              -6.1500
LUMO (eV):              -3.4661
HOMO-LUMO gap (eV):      2.6839

   Index   Energy (eV)    Occupation
     180       93.3161         0.000       
     179       92.9309         0.000       
     178       92.5022         0.000       
     177       91.8842         0.000       
     176       91.2671         0.000       
     175       90.5808         0.000       
     174       89.9299         0.000       
     173       89.6136         0.000       
     172       88.3255         0.000       
     171       87.1496         0.000       
     170       86.1261         0.000       
     169       85.6346         0.000       
     168       85.1405         0.000       
     167       83.5869         0.000       
     166       82.3576         0.000       
     165       81.7420         0.000       
     164       81.3380         0.000       
     163       80.4162         0.000       
     162       79.8915         0.000       
     161       79.4732         0.000       
     160       79.0484         0.000       
     159       78.5292         0.000       
     158       77.7795         0.000       
     157       76.5746         0.000       
     156       75.1835         0.000       
     155       74.6286         0.000       
     154       73.4172         0.000       
     153       73.3162         0.000       
     152       72.2717         0.000       
     151       71.5280         0.000       
     150       68.8441         0.000       
     149       68.3396         0.000       
     148       67.3966         0.000       
     147       66.7333         0.000       
     146       65.6988         0.000       
     145       65.3941         0.000       
     144       64.4227         0.000       
     143       62.6720         0.000       
     142       62.0612         0.000       
     141       61.4076         0.000       
     140       59.6631         0.000       
     139       58.7759         0.000       
     138       58.0814         0.000       
     137       57.4299         0.000       
     136       57.0228         0.000       
     135       56.1727         0.000       
     134       55.6412         0.000       
     133       54.7838         0.000       
     132       54.2114         0.000       
     131       53.0692         0.000       
     130       52.8170         0.000       
     129       51.6547         0.000       
     128       51.5754         0.000       
     127       50.6890         0.000       
     126       49.7062         0.000       
     125       49.2890         0.000       
     124       48.4440         0.000       
     123       47.8211         0.000       
     122       47.2507         0.000       
     121       46.4455         0.000       
     120       45.3288         0.000       
     119       44.5943         0.000       
     118       44.0752         0.000       
     117       43.4394         0.000       
     116       42.4614         0.000       
     115       41.9200         0.000       
     114       40.0503         0.000       
     113       39.9347         0.000       
     112       39.5582         0.000       
     111       39.0549         0.000       
     110       37.8180         0.000       
     109       37.7529         0.000       
     108       36.5795         0.000       
     107       36.0347         0.000       
     106       35.5979         0.000       
     105       34.6076         0.000       
     104       34.5116         0.000       
     103       33.8379         0.000       
     102       33.7478         0.000       
     101       33.2855         0.000       
     100       32.5179         0.000       
      99       32.3514         0.000       
      98       31.2158         0.000       
      97       30.9736         0.000       
      96       29.8342         0.000       
      95       29.1979         0.000       
      94       29.0036         0.000       
      93       28.0827         0.000       
      92       27.5134         0.000       
      91       27.3602         0.000       
      90       26.8143         0.000       
      89       26.3647         0.000       
      88       25.5156         0.000       
      87       24.4275         0.000       
      86       24.0962         0.000       
      85       23.6272         0.000       
      84       22.8982         0.000       
      83       22.4050         0.000       
      82       21.9977         0.000       
      81       21.5007         0.000       
      80       19.9557         0.000       
      79       19.7811         0.000       
      78       19.5749         0.000       
      77       18.8833         0.000       
      76       17.6001         0.000       
      75       17.2097         0.000       
      74       16.6199         0.000       
      73       15.5017         0.000       
      72       14.5459         0.000       
      71       13.5676         0.000       
      70       13.1389         0.000       
      69       12.8690         0.000       
      68       12.0026         0.000       
      67       11.8661         0.000       
      66       11.5534         0.000       
      65       10.9316         0.000       
      64       10.6188         0.000       
      63       10.4414         0.000       
      62       10.0457         0.000       
      61        9.8848         0.000       
      60        9.5598         0.000       
      59        9.0962         0.000       
      58        8.3260         0.000       
      57        8.1657         0.000       
      56        7.5962         0.000       
      55        7.2379         0.000       
      54        7.0027         0.000       
      53        6.7027         0.000       
      52        6.3837         0.000       
      51        6.1064         0.000       
      50        5.9906         0.000       
      49        5.3097         0.000       
      48        4.9827         0.000       
      47        4.0285         0.000       
      46        3.8938         0.000       
      45        3.3557         0.000       
      44        3.1321         0.000       
      43        2.4310         0.000       
      42        2.3371         0.000       
      41        1.9538         0.000       
      40        1.4108         0.000       
      39        1.2503         0.000       
      38        0.6936         0.000       
      37        0.4919         0.000       
      36        0.2660         0.000       
      35       -0.1661         0.000       
      34       -1.4264         0.000       
      33       -3.4661         0.000 < LUMO
      32       -6.1500         2.000 < HOMO
      31       -7.1202         2.000       
      30       -7.5457         2.000       
      29       -8.0469         2.000       
      28       -8.9666         2.000       
      27       -9.4617         2.000       
      26      -10.1618         2.000       
      25      -10.2647         2.000       
      24      -10.6161         2.000       
      23      -10.9302         2.000       
      22      -11.6664         2.000       
      21      -12.2525         2.000       
      20      -12.8786         2.000       
      19      -12.9859         2.000       
      18      -13.6822         2.000       
      17      -14.0972         2.000       
      16      -14.7511         2.000       
      15      -17.2751         2.000       
      14      -18.0526         2.000       
      13      -20.9614         2.000       
      12      -22.9509         2.000       
      11      -26.6612         2.000       
      10      -30.3412         2.000       
       9      -31.2328         2.000       
       8     -270.6372         2.000       
       7     -272.1156         2.000       
       6     -274.1607         2.000       
       5     -381.6424         2.000       
       4     -387.8088         2.000       
       3     -512.7634         2.000       
       2     -512.7942         2.000       
       1     -662.0145         2.000       

AMS application finished. Exiting.
NORMAL TERMINATION
     Total cpu time:      56.39
  Total system time:       0.45
 Total elapsed time:      57.01
NORMAL TERMINATION
