
 *******************************************************************************
 *                                                                             *
 *  --------------------------------                                           *
 *   Amsterdam Modeling Suite (AMS)              2026.103                      *
 *  --------------------------------                                           *
 *                                               r260501 2026-05-01 873454b5   *
 *                                                                             *
 *                                                                             *
 *                              =================                              *
 *                              |               |                              *
 *                              |     A M S     |                              *
 *                              |               |                              *
 *                              =================                              *
 *                                                                             *
 *                                                                             *
 *   Online information and documentation:  https://www.scm.com/support/       *
 *   E-mail:  support@scm.com   info@scm.com                                   *
 *                                                                             *
 *   Scientific publications using AMS results must be properly referenced     *
 *   See the User Manuals (or the web site) for recommended citations          *
 *   The terms and conditions of the End User License Agreement apply to       *
 *   the use of AMS, https://www.scm.com/license-terms/                        *
 *                                                                             *
 **********************  x86_64_linux_intel / intelmpi  ************************
 
 Licensed to: Jong-June Jeon / University of Seoul 2026-06-02 13:44:15
 SCM User ID: u30731
  
 AMS 2026.103  RunTime: Jun03-2026 23:44:15  ShM Nodes: 1  Procs: 1

 AMS jobname: c2_fragB_ts
 AMS jobid  : 195995960

 Start   directory: /gpfs/home1/yeseo1ee/projects/eda-asm-prediction/ADF_800/adf_outputs/batch_006/qmrxn20_sn2_A_D_C_D_C_A/
 Results directory: /gpfs/home1/yeseo1ee/projects/eda-asm-prediction/ADF_800/adf_outputs/batch_006/qmrxn20_sn2_A_D_C_D_C_A/c2_fragB_ts.results/
 Scratch directory: /tmp/amstmp_c2_fragB_ts_kid0.195995960/

 RNG seed: -380262298 -1802473454 481580171 420376187 -1798528455 886525125 1034144050 -1130717323



                      ************************************************************************
                      *  ADF 2026.103  RunTime: Jun03-2026 23:44:15  ShM Nodes: 1  Procs: 1  *
                      ************************************************************************
  

       ****************************
       * SINGLE POINT CALCULATION *
       ****************************

--------
Geometry
--------
Formula: C5H8BrN
Atoms
  Index Symbol   x (angstrom)   y (angstrom)   z (angstrom)
      1      C     0.30983732    -0.06545808     0.11065041
      2      H     1.66076000     1.53965969     0.23857865
      3     Br    -1.92027884    -0.15358783     0.28239242
      4      C     0.58352069     1.43893153     0.09408856
      5      H     0.34925149    -0.55758291    -0.84127081
      6      C     0.72762130    -0.81983894     1.35425394
      7      H     1.79984577    -0.72297858     1.50919608
      8      H     0.18966638    -0.42979116     2.22246855
      9      H     0.48056934    -1.87803701     1.24893306
     10      C    -0.05018114     2.14963189     1.21086828
     11      N    -0.45677644     2.79874582     2.10319249
     12      C     0.22933272     2.06767072    -1.24969787
     13      H     0.83995485     1.56508779    -2.00416890
     14      H    -0.82908475     1.92483667    -1.47120239
     15      H     0.45638050     3.13744489    -1.25451107

Total System Charge              0.00000


----------------
ADF Engine Input
----------------
 
   Basis
     Type TZ2P
     Core None
   End
   XC
     GGA BLYP
     Dispersion GRIMME3 BJDAMP
   End
   Symmetry NOSYM
   NumericalQuality Normal
   Unrestricted No
   SCF
     Iterations 200
     Converge 1.0e-6
   End
   Save TAPE21
 

 Title: *** (NO TITLE) ***

 *** adf ***



 ===========================
 A T T A C H E D   F I L E S
 ===========================
  



 ===============================
 M O D E L   P A R A M E T E R S
 ===============================
  
 DENSITY FUNCTIONAL POTENTIAL (scf)
    LDA:                               Exchange only                           == Not Default ==
    Gradient Corrections:              Becke88 LYP                             == Not Default ==

 SPIN  (restricted / unrestr.)
    Molecule:                          Restricted                               
    Fragments:                         Restricted                               

 OTHER ASPECTS
    Relativistic Corrections:          scalar (ZORA,MAPA)                       

    Nuclear Charge Density Model:      Point Charge Nuclei                      
    Core Treatment:                    Frozen Orbital(s)                        

    Hyperfine or Zeeman Interaction:   ---                                      

 Settings for Grimme D3 dispersion correction

      damping                        BJ
      s6                          1.000
      s8                          2.700
      a1                          0.430
      a2                          4.236

 Other (technical) parameters

      alpha                      14.000
      version                         4
 


 Fragment File(s)
 ----------------
 C:
         file : /gpfs/home1/yeseo1ee/projects/eda-asm-prediction/ADF_800/adf_outputs/batch_006/qmrxn20_sn2_A_D_C_D_C_A/c2_fragB_ts.results/t21.50BA88D5.C
         jobid: 0
         title: Carbon (TZ2P)
 H:
         file : /gpfs/home1/yeseo1ee/projects/eda-asm-prediction/ADF_800/adf_outputs/batch_006/qmrxn20_sn2_A_D_C_D_C_A/c2_fragB_ts.results/t21.6F35CCAB.H
         jobid: 0
         title: Hydrogen (TZ2P)
 Br:
         file : /gpfs/home1/yeseo1ee/projects/eda-asm-prediction/ADF_800/adf_outputs/batch_006/qmrxn20_sn2_A_D_C_D_C_A/c2_fragB_ts.results/t21.42F58B50.Br
         jobid: 0
         title: Bromine (TZ2P)
 N:
         file : /gpfs/home1/yeseo1ee/projects/eda-asm-prediction/ADF_800/adf_outputs/batch_006/qmrxn20_sn2_A_D_C_D_C_A/c2_fragB_ts.results/t21.44EAA48D.N
         jobid: 0
         title: Nitrogen (TZ2P)



 ===============
 G E O M E T R Y  ***  3D  Molecule  ***
 ===============
  

 ATOMS
 =====                            X Y Z                    CHARGE
                                (Angstrom)             Nucl     +Core       At.Mass
                       --------------------------    ----------------       -------
    1  C               0.3098   -0.0655    0.1107      6.00      6.00       12.0000
    2  H               1.6608    1.5397    0.2386      1.00      1.00        1.0078
    3  Br             -1.9203   -0.1536    0.2824     35.00     35.00       78.9183
    4  C               0.5835    1.4389    0.0941      6.00      6.00       12.0000
    5  H               0.3493   -0.5576   -0.8413      1.00      1.00        1.0078
    6  C               0.7276   -0.8198    1.3543      6.00      6.00       12.0000
    7  H               1.7998   -0.7230    1.5092      1.00      1.00        1.0078
    8  H               0.1897   -0.4298    2.2225      1.00      1.00        1.0078
    9  H               0.4806   -1.8780    1.2489      1.00      1.00        1.0078
   10  C              -0.0502    2.1496    1.2109      6.00      6.00       12.0000
   11  N              -0.4568    2.7987    2.1032      7.00      7.00       14.0031
   12  C               0.2293    2.0677   -1.2497      6.00      6.00       12.0000
   13  H               0.8400    1.5651   -2.0042      1.00      1.00        1.0078
   14  H              -0.8291    1.9248   -1.4712      1.00      1.00        1.0078
   15  H               0.4564    3.1374   -1.2545      1.00      1.00        1.0078


 FRAGMENTS
 =========                                     Atoms in this Fragment     Cart. coord.s (Angstrom)
                                               -------------------------------------------------------
    1  C                                                 1  C            0.3098   -0.0655    0.1107
    2  C                                                 4  C            0.5835    1.4389    0.0941
    3  C                                                 6  C            0.7276   -0.8198    1.3543
    4  C                                                10  C           -0.0502    2.1496    1.2109
    5  C                                                12  C            0.2293    2.0677   -1.2497
    6  H                                                 2  H            1.6608    1.5397    0.2386
    7  H                                                 5  H            0.3493   -0.5576   -0.8413
    8  H                                                 7  H            1.7998   -0.7230    1.5092
    9  H                                                 8  H            0.1897   -0.4298    2.2225
   10  H                                                 9  H            0.4806   -1.8780    1.2489
   11  H                                                13  H            0.8400    1.5651   -2.0042
   12  H                                                14  H           -0.8291    1.9248   -1.4712
   13  H                                                15  H            0.4564    3.1374   -1.2545
   14  Br                                                3  Br          -1.9203   -0.1536    0.2824
   15  N                                                11  N           -0.4568    2.7987    2.1032


 Interatomic Distance Matrix (Angstrom)
 --------------------------------------

   1)     0.000
   2)     2.102   0.000
   3)     2.238   3.961   0.000
   4)     1.529   1.092   2.973   0.000
   5)     1.072   2.699   2.564   2.217   0.000
   6)     1.513   2.772   2.933   2.591   2.243   0.000
   7)     2.147   2.599   3.958   2.856   2.767   1.088   0.000
   8)     2.146   3.159   2.880   2.860   3.071   1.093   1.785   0.000
   9)     2.147   3.754   3.110   3.514   2.476   1.092   1.773   1.769   0.000
  10)     2.499   2.060   3.109   1.468   3.421   3.073   3.430   2.781   4.063   0.000
  11)     3.572   3.090   3.765   2.640   4.537   3.880   4.225   3.295   4.846   1.176
          0.000
  12)     2.531   2.131   3.450   1.525   2.660   3.920   4.227   4.277   4.677   2.478
          3.500   0.000
  13)     2.723   2.388   3.975   2.118   2.470   4.121   4.301   4.719   4.750   3.387
          4.480   1.093   0.000
  14)     2.786   3.045   2.930   2.164   2.819   4.236   4.775   4.497   4.856   2.802
          3.698   1.091   1.789   0.000
  15)     3.485   2.497   4.341   2.173   3.720   4.748   4.934   4.989   5.606   2.704
          3.496   1.094   1.784   1.780   0.000

 Min. Distance =    1.0723
 Max. Distance =    5.6056



 =====================================
 S Y M M E T R Y ,   E L E C T R O N S
 =====================================
  
 Symmetry: NOSYM

 Irreducible Representations, including subspecies
 -------------------------------------------------
 A


 Configuration of Valence Electrons
 ==================================
 ( determined in the SCF procedure )

 Total:   80

 Net Charge: 0 (Nuclei minus Electrons)

 Aufbau principle for MO occupations will be applied through SCF cycle no.     100
 Thereafter, the program will assign electrons to MOs that are spatially
 similar to the occupied MOs in a "reference" cycle ("KeepOrbitals").
 The reference cycle is always the PREVIOUS cycle: it will evolve with
 the SCF procedure.
 ***************************************************************************************************



                                      ****************************************
                                      *  B U I L D : (Fragments, Functions)  *
                                      ****************************************
  



 =======
 S F O s  ***  (Symmetrized Fragment Orbitals)  ***
 =======
  
 SFOs are linear combinations of (valence) Fragment Orbitals (FOs), such that the SFOs transform as the
 irreducible representations of the (molecular) symmetry group. Each SFO is therefore characterized by
 an irrep of the molecule and by a few (or only one) generating FOs.
 The SFOs constitute a symmetry-adapted basis for the Fock matrix. The MO eigenvector coefficients in
 this basis provide a direct interpretation of the MOs in terms of Frontier Orbital Theory.

 The SFOs are combined with auxiliary Core Functions (CFs) to ensure orthogonalization on the (frozen)
 Core Orbitals (COs). The Core-orthogonalized SFOs (CSFOs) constitute the true Fock basis.

 The FOs, and hence also the (C)SFOs are combinations of the elementary basis functions (BAS). The basis
 functions that participate in the description of the SFOs depend on the irrep. The indices of the
 involved functions are printed below for each irrep.
 (The complete list of primitive basis functions is printed in another section)

 Total nr. of (C)SFOs (summation over all irreps) :   300

 NOTE: a (C)SFO that is defined as a combination of more than one FO is usually NOT normalized.



                                       === A ===
 Nr. of SFOs :  300
 Cartesian basis functions that participate in this irrep (total number =   339) :
      1     2     3     4     5     6     9    12     7    10
     13     8    11    14    15    16    17    18    19    20
     21    22    23    24    25    26    27    28    29    30
     31    32    33    34    35    36    39    42    37    40
     43    38    41    44    45    46    47    48    49    50
     51    52    53    54    55    56    57    58    59    60
     61    62    63    64    65    66    69    72    67    70
     73    68    71    74    75    76    77    78    79    80
     81    82    83    84    85    86    87    88    89    90
     91    92    93    94    95    96    99   102    97   100
    103    98   101   104   105   106   107   108   109   110
    111   112   113   114   115   116   117   118   119   120
    121   122   123   124   125   126   129   132   127   130
    133   128   131   134   135   136   137   138   139   140
    141   142   143   144   145   146   147   148   149   150
    151   152   153   154   155   156   157   158   159   160
    161   162   163   164   165   166   167   168   169   170
    171   172   173   174   175   176   177   178   179   180
    181   182   183   184   185   186   187   188   189   190
    191   192   193   194   195   196   197   198   199   200
    201   202   203   204   205   206   207   208   209   210
    211   212   213   214   215   216   217   218   219   220
    221   222   223   224   225   226   227   228   229   230
    231   232   233   234   235   236   237   238   239   240
    241   242   243   244   245   246   247   248   249   256
    257   282   283   284   250   253   258   261   285   288
    291   251   254   259   262   286   289   292   252   255
    260   263   287   290   293   264   270   276   294   265
    271   277   295   266   272   278   296   267   273   279
    297   268   274   280   298   269   275   281   299   300
    301   302   303   304   305   306   307   308   309   310
    311   312   313   314   315   318   321   316   319   322
    317   320   323   324   325   326   327   328   329   330
    331   332   333   334   335   336   337   338   339

    SFO  (index         Fragment          Generating    Expansion in Fragment Orbitals
  indx  incl.CFs)   Occup   Orb.Energy   FragmentType  Coeff.   Orbital     on Fragment
 --------------------------------------------------------------------------------------
     1       1      2.000     -10.066 au  C             1.00      1 S               1
                        (    -273.921 eV)
     2       2      2.000      -0.501 au  C             1.00      2 S               1
                        (     -13.620 eV)
     3       3       --         0.373 au  C             1.00      3 S               1
                        (      10.158 eV)
     4       4       --         5.405 au  C             1.00      4 S               1
                        (     147.073 eV)
     5       5       --        49.848 au  C             1.00      5 S               1
                        (    1356.422 eV)
     6       6      0.667      -0.193 au  C             1.00      1 P:x             1
                        (      -5.239 eV)
     7       7       --         0.169 au  C             1.00      2 P:x             1
                        (       4.589 eV)
     8       8       --         2.013 au  C             1.00      3 P:x             1
                        (      54.789 eV)
     9       9      0.667      -0.193 au  C             1.00      1 P:y             1
                        (      -5.239 eV)
    10      10       --         0.169 au  C             1.00      2 P:y             1
                        (       4.589 eV)
    11      11       --         2.013 au  C             1.00      3 P:y             1
                        (      54.789 eV)
    12      12      0.667      -0.193 au  C             1.00      1 P:z             1
                        (      -5.239 eV)
    13      13       --         0.169 au  C             1.00      2 P:z             1
                        (       4.589 eV)
    14      14       --         2.013 au  C             1.00      3 P:z             1
                        (      54.789 eV)
    15      15       --         1.243 au  C             1.00      1 D:z2            1
                        (      33.824 eV)
    16      16       --         1.243 au  C             1.00      1 D:x2-y2         1
                        (      33.824 eV)
    17      17       --         1.243 au  C             1.00      1 D:xy            1
                        (      33.824 eV)
    18      18       --         1.243 au  C             1.00      1 D:xz            1
                        (      33.824 eV)
    19      19       --         1.243 au  C             1.00      1 D:yz            1
                        (      33.824 eV)
    20      20       --         4.016 au  C             1.00      1 F:z3            1
                        (     109.271 eV)
    21      21       --         4.016 au  C             1.00      1 F:z             1
                        (     109.271 eV)
    22      22       --         4.016 au  C             1.00      1 F:xyz           1
                        (     109.271 eV)
    23      23       --         4.016 au  C             1.00      1 F:z2x           1
                        (     109.271 eV)
    24      24       --         4.016 au  C             1.00      1 F:z2y           1
                        (     109.271 eV)
    25      25       --         4.016 au  C             1.00      1 F:x             1
                        (     109.271 eV)
    26      26       --         4.016 au  C             1.00      1 F:y             1
                        (     109.271 eV)
    27      27      2.000     -10.066 au  C             1.00      1 S               2
                        (    -273.921 eV)
    28      28      2.000      -0.501 au  C             1.00      2 S               2
                        (     -13.620 eV)
    29      29       --         0.373 au  C             1.00      3 S               2
                        (      10.158 eV)
    30      30       --         5.405 au  C             1.00      4 S               2
                        (     147.073 eV)
    31      31       --        49.848 au  C             1.00      5 S               2
                        (    1356.422 eV)
    32      32      0.667      -0.193 au  C             1.00      1 P:x             2
                        (      -5.239 eV)
    33      33       --         0.169 au  C             1.00      2 P:x             2
                        (       4.589 eV)
    34      34       --         2.013 au  C             1.00      3 P:x             2
                        (      54.789 eV)
    35      35      0.667      -0.193 au  C             1.00      1 P:y             2
                        (      -5.239 eV)
    36      36       --         0.169 au  C             1.00      2 P:y             2
                        (       4.589 eV)
    37      37       --         2.013 au  C             1.00      3 P:y             2
                        (      54.789 eV)
    38      38      0.667      -0.193 au  C             1.00      1 P:z             2
                        (      -5.239 eV)
    39      39       --         0.169 au  C             1.00      2 P:z             2
                        (       4.589 eV)
    40      40       --         2.013 au  C             1.00      3 P:z             2
                        (      54.789 eV)
    41      41       --         1.243 au  C             1.00      1 D:z2            2
                        (      33.824 eV)
    42      42       --         1.243 au  C             1.00      1 D:x2-y2         2
                        (      33.824 eV)
    43      43       --         1.243 au  C             1.00      1 D:xy            2
                        (      33.824 eV)
    44      44       --         1.243 au  C             1.00      1 D:xz            2
                        (      33.824 eV)
    45      45       --         1.243 au  C             1.00      1 D:yz            2
                        (      33.824 eV)
    46      46       --         4.016 au  C             1.00      1 F:z3            2
                        (     109.271 eV)
    47      47       --         4.016 au  C             1.00      1 F:z             2
                        (     109.271 eV)
    48      48       --         4.016 au  C             1.00      1 F:xyz           2
                        (     109.271 eV)
    49      49       --         4.016 au  C             1.00      1 F:z2x           2
                        (     109.271 eV)
    50      50       --         4.016 au  C             1.00      1 F:z2y           2
                        (     109.271 eV)
    51      51       --         4.016 au  C             1.00      1 F:x             2
                        (     109.271 eV)
    52      52       --         4.016 au  C             1.00      1 F:y             2
                        (     109.271 eV)
    53      53      2.000     -10.066 au  C             1.00      1 S               3
                        (    -273.921 eV)
    54      54      2.000      -0.501 au  C             1.00      2 S               3
                        (     -13.620 eV)
    55      55       --         0.373 au  C             1.00      3 S               3
                        (      10.158 eV)
    56      56       --         5.405 au  C             1.00      4 S               3
                        (     147.073 eV)
    57      57       --        49.848 au  C             1.00      5 S               3
                        (    1356.422 eV)
    58      58      0.667      -0.193 au  C             1.00      1 P:x             3
                        (      -5.239 eV)
    59      59       --         0.169 au  C             1.00      2 P:x             3
                        (       4.589 eV)
    60      60       --         2.013 au  C             1.00      3 P:x             3
                        (      54.789 eV)
    61      61      0.667      -0.193 au  C             1.00      1 P:y             3
                        (      -5.239 eV)
    62      62       --         0.169 au  C             1.00      2 P:y             3
                        (       4.589 eV)
    63      63       --         2.013 au  C             1.00      3 P:y             3
                        (      54.789 eV)
    64      64      0.667      -0.193 au  C             1.00      1 P:z             3
                        (      -5.239 eV)
    65      65       --         0.169 au  C             1.00      2 P:z             3
                        (       4.589 eV)
    66      66       --         2.013 au  C             1.00      3 P:z             3
                        (      54.789 eV)
    67      67       --         1.243 au  C             1.00      1 D:z2            3
                        (      33.824 eV)
    68      68       --         1.243 au  C             1.00      1 D:x2-y2         3
                        (      33.824 eV)
    69      69       --         1.243 au  C             1.00      1 D:xy            3
                        (      33.824 eV)
    70      70       --         1.243 au  C             1.00      1 D:xz            3
                        (      33.824 eV)
    71      71       --         1.243 au  C             1.00      1 D:yz            3
                        (      33.824 eV)
    72      72       --         4.016 au  C             1.00      1 F:z3            3
                        (     109.271 eV)
    73      73       --         4.016 au  C             1.00      1 F:z             3
                        (     109.271 eV)
    74      74       --         4.016 au  C             1.00      1 F:xyz           3
                        (     109.271 eV)
    75      75       --         4.016 au  C             1.00      1 F:z2x           3
                        (     109.271 eV)
    76      76       --         4.016 au  C             1.00      1 F:z2y           3
                        (     109.271 eV)
    77      77       --         4.016 au  C             1.00      1 F:x             3
                        (     109.271 eV)
    78      78       --         4.016 au  C             1.00      1 F:y             3
                        (     109.271 eV)
    79      79      2.000     -10.066 au  C             1.00      1 S               4
                        (    -273.921 eV)
    80      80      2.000      -0.501 au  C             1.00      2 S               4
                        (     -13.620 eV)
    81      81       --         0.373 au  C             1.00      3 S               4
                        (      10.158 eV)
    82      82       --         5.405 au  C             1.00      4 S               4
                        (     147.073 eV)
    83      83       --        49.848 au  C             1.00      5 S               4
                        (    1356.422 eV)
    84      84      0.667      -0.193 au  C             1.00      1 P:x             4
                        (      -5.239 eV)
    85      85       --         0.169 au  C             1.00      2 P:x             4
                        (       4.589 eV)
    86      86       --         2.013 au  C             1.00      3 P:x             4
                        (      54.789 eV)
    87      87      0.667      -0.193 au  C             1.00      1 P:y             4
                        (      -5.239 eV)
    88      88       --         0.169 au  C             1.00      2 P:y             4
                        (       4.589 eV)
    89      89       --         2.013 au  C             1.00      3 P:y             4
                        (      54.789 eV)
    90      90      0.667      -0.193 au  C             1.00      1 P:z             4
                        (      -5.239 eV)
    91      91       --         0.169 au  C             1.00      2 P:z             4
                        (       4.589 eV)
    92      92       --         2.013 au  C             1.00      3 P:z             4
                        (      54.789 eV)
    93      93       --         1.243 au  C             1.00      1 D:z2            4
                        (      33.824 eV)
    94      94       --         1.243 au  C             1.00      1 D:x2-y2         4
                        (      33.824 eV)
    95      95       --         1.243 au  C             1.00      1 D:xy            4
                        (      33.824 eV)
    96      96       --         1.243 au  C             1.00      1 D:xz            4
                        (      33.824 eV)
    97      97       --         1.243 au  C             1.00      1 D:yz            4
                        (      33.824 eV)
    98      98       --         4.016 au  C             1.00      1 F:z3            4
                        (     109.271 eV)
    99      99       --         4.016 au  C             1.00      1 F:z             4
                        (     109.271 eV)
   100     100       --         4.016 au  C             1.00      1 F:xyz           4
                        (     109.271 eV)
   101     101       --         4.016 au  C             1.00      1 F:z2x           4
                        (     109.271 eV)
   102     102       --         4.016 au  C             1.00      1 F:z2y           4
                        (     109.271 eV)
   103     103       --         4.016 au  C             1.00      1 F:x             4
                        (     109.271 eV)
   104     104       --         4.016 au  C             1.00      1 F:y             4
                        (     109.271 eV)
   105     105      2.000     -10.066 au  C             1.00      1 S               5
                        (    -273.921 eV)
   106     106      2.000      -0.501 au  C             1.00      2 S               5
                        (     -13.620 eV)
   107     107       --         0.373 au  C             1.00      3 S               5
                        (      10.158 eV)
   108     108       --         5.405 au  C             1.00      4 S               5
                        (     147.073 eV)
   109     109       --        49.848 au  C             1.00      5 S               5
                        (    1356.422 eV)
   110     110      0.667      -0.193 au  C             1.00      1 P:x             5
                        (      -5.239 eV)
   111     111       --         0.169 au  C             1.00      2 P:x             5
                        (       4.589 eV)
   112     112       --         2.013 au  C             1.00      3 P:x             5
                        (      54.789 eV)
   113     113      0.667      -0.193 au  C             1.00      1 P:y             5
                        (      -5.239 eV)
   114     114       --         0.169 au  C             1.00      2 P:y             5
                        (       4.589 eV)
   115     115       --         2.013 au  C             1.00      3 P:y             5
                        (      54.789 eV)
   116     116      0.667      -0.193 au  C             1.00      1 P:z             5
                        (      -5.239 eV)
   117     117       --         0.169 au  C             1.00      2 P:z             5
                        (       4.589 eV)
   118     118       --         2.013 au  C             1.00      3 P:z             5
                        (      54.789 eV)
   119     119       --         1.243 au  C             1.00      1 D:z2            5
                        (      33.824 eV)
   120     120       --         1.243 au  C             1.00      1 D:x2-y2         5
                        (      33.824 eV)
   121     121       --         1.243 au  C             1.00      1 D:xy            5
                        (      33.824 eV)
   122     122       --         1.243 au  C             1.00      1 D:xz            5
                        (      33.824 eV)
   123     123       --         1.243 au  C             1.00      1 D:yz            5
                        (      33.824 eV)
   124     124       --         4.016 au  C             1.00      1 F:z3            5
                        (     109.271 eV)
   125     125       --         4.016 au  C             1.00      1 F:z             5
                        (     109.271 eV)
   126     126       --         4.016 au  C             1.00      1 F:xyz           5
                        (     109.271 eV)
   127     127       --         4.016 au  C             1.00      1 F:z2x           5
                        (     109.271 eV)
   128     128       --         4.016 au  C             1.00      1 F:z2y           5
                        (     109.271 eV)
   129     129       --         4.016 au  C             1.00      1 F:x             5
                        (     109.271 eV)
   130     130       --         4.016 au  C             1.00      1 F:y             5
                        (     109.271 eV)
   131     131      1.000      -0.240 au  H             1.00      1 S               6
                        (      -6.532 eV)
   132     132       --         0.088 au  H             1.00      2 S               6
                        (       2.394 eV)
   133     133       --         1.502 au  H             1.00      3 S               6
                        (      40.869 eV)
   134     134       --         0.406 au  H             1.00      1 P:x             6
                        (      11.051 eV)
   135     135       --         0.406 au  H             1.00      1 P:y             6
                        (      11.051 eV)
   136     136       --         0.406 au  H             1.00      1 P:z             6
                        (      11.051 eV)
   137     137       --         2.569 au  H             1.00      1 D:z2            6
                        (      69.917 eV)
   138     138       --         2.569 au  H             1.00      1 D:x2-y2         6
                        (      69.917 eV)
   139     139       --         2.569 au  H             1.00      1 D:xy            6
                        (      69.917 eV)
   140     140       --         2.569 au  H             1.00      1 D:xz            6
                        (      69.917 eV)
   141     141       --         2.569 au  H             1.00      1 D:yz            6
                        (      69.917 eV)
   142     142      1.000      -0.240 au  H             1.00      1 S               7
                        (      -6.532 eV)
   143     143       --         0.088 au  H             1.00      2 S               7
                        (       2.394 eV)
   144     144       --         1.502 au  H             1.00      3 S               7
                        (      40.869 eV)
   145     145       --         0.406 au  H             1.00      1 P:x             7
                        (      11.051 eV)
   146     146       --         0.406 au  H             1.00      1 P:y             7
                        (      11.051 eV)
   147     147       --         0.406 au  H             1.00      1 P:z             7
                        (      11.051 eV)
   148     148       --         2.569 au  H             1.00      1 D:z2            7
                        (      69.917 eV)
   149     149       --         2.569 au  H             1.00      1 D:x2-y2         7
                        (      69.917 eV)
   150     150       --         2.569 au  H             1.00      1 D:xy            7
                        (      69.917 eV)
   151     151       --         2.569 au  H             1.00      1 D:xz            7
                        (      69.917 eV)
   152     152       --         2.569 au  H             1.00      1 D:yz            7
                        (      69.917 eV)
   153     153      1.000      -0.240 au  H             1.00      1 S               8
                        (      -6.532 eV)
   154     154       --         0.088 au  H             1.00      2 S               8
                        (       2.394 eV)
   155     155       --         1.502 au  H             1.00      3 S               8
                        (      40.869 eV)
   156     156       --         0.406 au  H             1.00      1 P:x             8
                        (      11.051 eV)
   157     157       --         0.406 au  H             1.00      1 P:y             8
                        (      11.051 eV)
   158     158       --         0.406 au  H             1.00      1 P:z             8
                        (      11.051 eV)
   159     159       --         2.569 au  H             1.00      1 D:z2            8
                        (      69.917 eV)
   160     160       --         2.569 au  H             1.00      1 D:x2-y2         8
                        (      69.917 eV)
   161     161       --         2.569 au  H             1.00      1 D:xy            8
                        (      69.917 eV)
   162     162       --         2.569 au  H             1.00      1 D:xz            8
                        (      69.917 eV)
   163     163       --         2.569 au  H             1.00      1 D:yz            8
                        (      69.917 eV)
   164     164      1.000      -0.240 au  H             1.00      1 S               9
                        (      -6.532 eV)
   165     165       --         0.088 au  H             1.00      2 S               9
                        (       2.394 eV)
   166     166       --         1.502 au  H             1.00      3 S               9
                        (      40.869 eV)
   167     167       --         0.406 au  H             1.00      1 P:x             9
                        (      11.051 eV)
   168     168       --         0.406 au  H             1.00      1 P:y             9
                        (      11.051 eV)
   169     169       --         0.406 au  H             1.00      1 P:z             9
                        (      11.051 eV)
   170     170       --         2.569 au  H             1.00      1 D:z2            9
                        (      69.917 eV)
   171     171       --         2.569 au  H             1.00      1 D:x2-y2         9
                        (      69.917 eV)
   172     172       --         2.569 au  H             1.00      1 D:xy            9
                        (      69.917 eV)
   173     173       --         2.569 au  H             1.00      1 D:xz            9
                        (      69.917 eV)
   174     174       --         2.569 au  H             1.00      1 D:yz            9
                        (      69.917 eV)
   175     175      1.000      -0.240 au  H             1.00      1 S              10
                        (      -6.532 eV)
   176     176       --         0.088 au  H             1.00      2 S              10
                        (       2.394 eV)
   177     177       --         1.502 au  H             1.00      3 S              10
                        (      40.869 eV)
   178     178       --         0.406 au  H             1.00      1 P:x            10
                        (      11.051 eV)
   179     179       --         0.406 au  H             1.00      1 P:y            10
                        (      11.051 eV)
   180     180       --         0.406 au  H             1.00      1 P:z            10
                        (      11.051 eV)
   181     181       --         2.569 au  H             1.00      1 D:z2           10
                        (      69.917 eV)
   182     182       --         2.569 au  H             1.00      1 D:x2-y2        10
                        (      69.917 eV)
   183     183       --         2.569 au  H             1.00      1 D:xy           10
                        (      69.917 eV)
   184     184       --         2.569 au  H             1.00      1 D:xz           10
                        (      69.917 eV)
   185     185       --         2.569 au  H             1.00      1 D:yz           10
                        (      69.917 eV)
   186     186      1.000      -0.240 au  H             1.00      1 S              11
                        (      -6.532 eV)
   187     187       --         0.088 au  H             1.00      2 S              11
                        (       2.394 eV)
   188     188       --         1.502 au  H             1.00      3 S              11
                        (      40.869 eV)
   189     189       --         0.406 au  H             1.00      1 P:x            11
                        (      11.051 eV)
   190     190       --         0.406 au  H             1.00      1 P:y            11
                        (      11.051 eV)
   191     191       --         0.406 au  H             1.00      1 P:z            11
                        (      11.051 eV)
   192     192       --         2.569 au  H             1.00      1 D:z2           11
                        (      69.917 eV)
   193     193       --         2.569 au  H             1.00      1 D:x2-y2        11
                        (      69.917 eV)
   194     194       --         2.569 au  H             1.00      1 D:xy           11
                        (      69.917 eV)
   195     195       --         2.569 au  H             1.00      1 D:xz           11
                        (      69.917 eV)
   196     196       --         2.569 au  H             1.00      1 D:yz           11
                        (      69.917 eV)
   197     197      1.000      -0.240 au  H             1.00      1 S              12
                        (      -6.532 eV)
   198     198       --         0.088 au  H             1.00      2 S              12
                        (       2.394 eV)
   199     199       --         1.502 au  H             1.00      3 S              12
                        (      40.869 eV)
   200     200       --         0.406 au  H             1.00      1 P:x            12
                        (      11.051 eV)
   201     201       --         0.406 au  H             1.00      1 P:y            12
                        (      11.051 eV)
   202     202       --         0.406 au  H             1.00      1 P:z            12
                        (      11.051 eV)
   203     203       --         2.569 au  H             1.00      1 D:z2           12
                        (      69.917 eV)
   204     204       --         2.569 au  H             1.00      1 D:x2-y2        12
                        (      69.917 eV)
   205     205       --         2.569 au  H             1.00      1 D:xy           12
                        (      69.917 eV)
   206     206       --         2.569 au  H             1.00      1 D:xz           12
                        (      69.917 eV)
   207     207       --         2.569 au  H             1.00      1 D:yz           12
                        (      69.917 eV)
   208     208      1.000      -0.240 au  H             1.00      1 S              13
                        (      -6.532 eV)
   209     209       --         0.088 au  H             1.00      2 S              13
                        (       2.394 eV)
   210     210       --         1.502 au  H             1.00      3 S              13
                        (      40.869 eV)
   211     211       --         0.406 au  H             1.00      1 P:x            13
                        (      11.051 eV)
   212     212       --         0.406 au  H             1.00      1 P:y            13
                        (      11.051 eV)
   213     213       --         0.406 au  H             1.00      1 P:z            13
                        (      11.051 eV)
   214     214       --         2.569 au  H             1.00      1 D:z2           13
                        (      69.917 eV)
   215     215       --         2.569 au  H             1.00      1 D:x2-y2        13
                        (      69.917 eV)
   216     216       --         2.569 au  H             1.00      1 D:xy           13
                        (      69.917 eV)
   217     217       --         2.569 au  H             1.00      1 D:xz           13
                        (      69.917 eV)
   218     218       --         2.569 au  H             1.00      1 D:yz           13
                        (      69.917 eV)
   219     219      2.000    -488.642 au  Br            1.00      1 S              14
                        (  -13296.634 eV)
   220     220      2.000     -63.585 au  Br            1.00      2 S              14
                        (   -1730.246 eV)
   221     221      2.000      -8.709 au  Br            1.00      3 S              14
                        (    -236.987 eV)
   222     222      2.000      -0.733 au  Br            1.00      4 S              14
                        (     -19.946 eV)
   223     223       --         0.224 au  Br            1.00      5 S              14
                        (       6.099 eV)
   224     224       --         2.414 au  Br            1.00      6 S              14
                        (      65.683 eV)
   225     225       --        13.546 au  Br            1.00      7 S              14
                        (     368.609 eV)
   226     226       --       615.209 au  Br            1.00      8 S              14
                        (   16740.684 eV)
   227     227      2.000     -56.116 au  Br            1.00      1 P:x            14
                        (   -1526.987 eV)
   228     228      2.000      -6.365 au  Br            1.00      2 P:x            14
                        (    -173.205 eV)
   229     229      1.667      -0.284 au  Br            1.00      3 P:x            14
                        (      -7.716 eV)
   230     230       --         0.137 au  Br            1.00      4 P:x            14
                        (       3.720 eV)
   231     231       --         1.208 au  Br            1.00      5 P:x            14
                        (      32.874 eV)
   232     232       --         8.734 au  Br            1.00      6 P:x            14
                        (     237.661 eV)
   233     233       --        95.627 au  Br            1.00      7 P:x            14
                        (    2602.141 eV)
   234     234      2.000     -56.116 au  Br            1.00      1 P:y            14
                        (   -1526.987 eV)
   235     235      2.000      -6.365 au  Br            1.00      2 P:y            14
                        (    -173.205 eV)
   236     236      1.667      -0.284 au  Br            1.00      3 P:y            14
                        (      -7.716 eV)
   237     237       --         0.137 au  Br            1.00      4 P:y            14
                        (       3.720 eV)
   238     238       --         1.208 au  Br            1.00      5 P:y            14
                        (      32.874 eV)
   239     239       --         8.734 au  Br            1.00      6 P:y            14
                        (     237.661 eV)
   240     240       --        95.627 au  Br            1.00      7 P:y            14
                        (    2602.141 eV)
   241     241      2.000     -56.116 au  Br            1.00      1 P:z            14
                        (   -1526.987 eV)
   242     242      2.000      -6.365 au  Br            1.00      2 P:z            14
                        (    -173.205 eV)
   243     243      1.667      -0.284 au  Br            1.00      3 P:z            14
                        (      -7.716 eV)
   244     244       --         0.137 au  Br            1.00      4 P:z            14
                        (       3.720 eV)
   245     245       --         1.208 au  Br            1.00      5 P:z            14
                        (      32.874 eV)
   246     246       --         8.734 au  Br            1.00      6 P:z            14
                        (     237.661 eV)
   247     247       --        95.627 au  Br            1.00      7 P:z            14
                        (    2602.141 eV)
   248     248      2.000      -2.452 au  Br            1.00      1 D:z2           14
                        (     -66.719 eV)
   249     249       --         0.270 au  Br            1.00      2 D:z2           14
                        (       7.341 eV)
   250     250       --         2.706 au  Br            1.00      3 D:z2           14
                        (      73.633 eV)
   251     251       --        20.525 au  Br            1.00      4 D:z2           14
                        (     558.519 eV)
   252     252      2.000      -2.452 au  Br            1.00      1 D:x2-y2        14
                        (     -66.719 eV)
   253     253       --         0.270 au  Br            1.00      2 D:x2-y2        14
                        (       7.341 eV)
   254     254       --         2.706 au  Br            1.00      3 D:x2-y2        14
                        (      73.633 eV)
   255     255       --        20.525 au  Br            1.00      4 D:x2-y2        14
                        (     558.519 eV)
   256     256      2.000      -2.452 au  Br            1.00      1 D:xy           14
                        (     -66.719 eV)
   257     257       --         0.270 au  Br            1.00      2 D:xy           14
                        (       7.341 eV)
   258     258       --         2.706 au  Br            1.00      3 D:xy           14
                        (      73.633 eV)
   259     259       --        20.525 au  Br            1.00      4 D:xy           14
                        (     558.519 eV)
   260     260      2.000      -2.452 au  Br            1.00      1 D:xz           14
                        (     -66.719 eV)
   261     261       --         0.270 au  Br            1.00      2 D:xz           14
                        (       7.341 eV)
   262     262       --         2.706 au  Br            1.00      3 D:xz           14
                        (      73.633 eV)
   263     263       --        20.525 au  Br            1.00      4 D:xz           14
                        (     558.519 eV)
   264     264      2.000      -2.452 au  Br            1.00      1 D:yz           14
                        (     -66.719 eV)
   265     265       --         0.270 au  Br            1.00      2 D:yz           14
                        (       7.341 eV)
   266     266       --         2.706 au  Br            1.00      3 D:yz           14
                        (      73.633 eV)
   267     267       --        20.525 au  Br            1.00      4 D:yz           14
                        (     558.519 eV)
   268     268       --         0.857 au  Br            1.00      1 F:z3           14
                        (      23.313 eV)
   269     269       --         0.857 au  Br            1.00      1 F:z            14
                        (      23.313 eV)
   270     270       --         0.857 au  Br            1.00      1 F:xyz          14
                        (      23.313 eV)
   271     271       --         0.857 au  Br            1.00      1 F:z2x          14
                        (      23.313 eV)
   272     272       --         0.857 au  Br            1.00      1 F:z2y          14
                        (      23.313 eV)
   273     273       --         0.857 au  Br            1.00      1 F:x            14
                        (      23.313 eV)
   274     274       --         0.857 au  Br            1.00      1 F:y            14
                        (      23.313 eV)
   275     275      2.000     -14.160 au  N             1.00      1 S              15
                        (    -385.319 eV)
   276     276      2.000      -0.678 au  N             1.00      2 S              15
                        (     -18.450 eV)
   277     277       --         0.517 au  N             1.00      3 S              15
                        (      14.073 eV)
   278     278       --         6.872 au  N             1.00      4 S              15
                        (     186.990 eV)
   279     279       --        63.432 au  N             1.00      5 S              15
                        (    1726.082 eV)
   280     280      1.000      -0.260 au  N             1.00      1 P:x            15
                        (      -7.062 eV)
   281     281       --         0.281 au  N             1.00      2 P:x            15
                        (       7.649 eV)
   282     282       --         3.275 au  N             1.00      3 P:x            15
                        (      89.105 eV)
   283     283      1.000      -0.260 au  N             1.00      1 P:y            15
                        (      -7.062 eV)
   284     284       --         0.281 au  N             1.00      2 P:y            15
                        (       7.649 eV)
   285     285       --         3.275 au  N             1.00      3 P:y            15
                        (      89.105 eV)
   286     286      1.000      -0.260 au  N             1.00      1 P:z            15
                        (      -7.062 eV)
   287     287       --         0.281 au  N             1.00      2 P:z            15
                        (       7.649 eV)
   288     288       --         3.275 au  N             1.00      3 P:z            15
                        (      89.105 eV)
   289     289       --         1.250 au  N             1.00      1 D:z2           15
                        (      34.005 eV)
   290     290       --         1.250 au  N             1.00      1 D:x2-y2        15
                        (      34.005 eV)
   291     291       --         1.250 au  N             1.00      1 D:xy           15
                        (      34.005 eV)
   292     292       --         1.250 au  N             1.00      1 D:xz           15
                        (      34.005 eV)
   293     293       --         1.250 au  N             1.00      1 D:yz           15
                        (      34.005 eV)
   294     294       --         4.013 au  N             1.00      1 F:z3           15
                        (     109.190 eV)
   295     295       --         4.013 au  N             1.00      1 F:z            15
                        (     109.190 eV)
   296     296       --         4.013 au  N             1.00      1 F:xyz          15
                        (     109.190 eV)
   297     297       --         4.013 au  N             1.00      1 F:z2x          15
                        (     109.190 eV)
   298     298       --         4.013 au  N             1.00      1 F:z2y          15
                        (     109.190 eV)
   299     299       --         4.013 au  N             1.00      1 F:x            15
                        (     109.190 eV)
   300     300       --         4.013 au  N             1.00      1 F:y            15
                        (     109.190 eV)



 ================================
 (Slater-type)  F U N C T I O N S  ***  (Basis and Fit)  ***
 ================================
  

 Atom Type    1  (C)
 ==============

 Valence Basis Sets:  10
 -----------------------
   1 S    7.680000
   1 S    5.000000
   2 S    1.280000
   2 S    2.100000
   2 S    4.600000
   2 P    0.820000
   2 P    1.480000
   2 P    2.940000
   3 D    2.200000
   4 F    3.300000

 Atom Type    2  (H)
 ==============

 Valence Basis Sets:   5
 -----------------------
   1 S    0.690000
   1 S    0.920000
   1 S    1.580000
   2 P    1.250000
   3 D    2.500000

 Atom Type    3  (Br)
 ==============

 Valence Basis Sets:  20
 -----------------------
   1 S   41.300000
   1 S   32.800000
   2 S   13.900000
   2 P   19.450000
   2 P   13.100000
   3 S    7.200000
   3 S    4.950000
   3 P    7.900000
   3 P    5.050000
   3 D   10.900000
   3 D    6.050000
   3 D    3.500000
   4 S    4.500000
   4 S    2.800000
   4 S    1.800000
   4 P    3.250000
   4 P    1.950000
   4 P    1.200000
   4 D    1.800000
   4 F    1.800000

 Atom Type    4  (N)
 ==============

 Valence Basis Sets:  10
 -----------------------
   1 S    8.740000
   1 S    5.900000
   2 S    5.150000
   2 S    2.500000
   2 S    1.500000
   2 P    3.680000
   2 P    1.880000
   2 P    1.000000
   3 D    2.200000
   4 F    3.300000


 BAS: List of all Elementary Cartesian Basis Functions
 =====================================================

 The numbering in the list below (to the right of the function characteristics) is referred
 to in print-outs of MO eigenvectors and Mulliken populations in the BAS representation
 (as contrasted to the SFO representation).

 Notes:
 1. The functions are characterized by a polynomial prefactor (powers of x,y,z and r) and
    an exponential decay factor alpha.
 2. Since the basis sets are specific for an atom TYPE, the individual functions occur on
    all atoms of that type.
 3. The word 'Core' in the left margin signals that it is a Core Function (CF) : not a
    degree of freedom in the valence set, but only used to ensure orthogonalization of
    the other valence basis functions on the frozen Core Orbitals.


 (power of) X  Y  Z  R     Alpha  on Atom
            ==========     =====     ==========

 C                                    1    2    3    4    5
                                  ---------------------------------------------------------------------------
            0  0  0  0     7.680      1   31   61   91  121
            0  0  0  0     5.000      2   32   62   92  122
            0  0  0  1     1.280      3   33   63   93  123
            0  0  0  1     2.100      4   34   64   94  124
            0  0  0  1     4.600      5   35   65   95  125
            1  0  0  0     0.820      6   36   66   96  126
            0  1  0  0     0.820      7   37   67   97  127
            0  0  1  0     0.820      8   38   68   98  128
            1  0  0  0     1.480      9   39   69   99  129
            0  1  0  0     1.480     10   40   70  100  130
            0  0  1  0     1.480     11   41   71  101  131
            1  0  0  0     2.940     12   42   72  102  132
            0  1  0  0     2.940     13   43   73  103  133
            0  0  1  0     2.940     14   44   74  104  134
            2  0  0  0     2.200     15   45   75  105  135
            1  1  0  0     2.200     16   46   76  106  136
            1  0  1  0     2.200     17   47   77  107  137
            0  2  0  0     2.200     18   48   78  108  138
            0  1  1  0     2.200     19   49   79  109  139
            0  0  2  0     2.200     20   50   80  110  140
            3  0  0  0     3.300     21   51   81  111  141
            2  1  0  0     3.300     22   52   82  112  142
            2  0  1  0     3.300     23   53   83  113  143
            1  2  0  0     3.300     24   54   84  114  144
            1  1  1  0     3.300     25   55   85  115  145
            1  0  2  0     3.300     26   56   86  116  146
            0  3  0  0     3.300     27   57   87  117  147
            0  2  1  0     3.300     28   58   88  118  148
            0  1  2  0     3.300     29   59   89  119  149
            0  0  3  0     3.300     30   60   90  120  150

 H                                    6    7    8    9   10   11   12   13
                                  ---------------------------------------------------------------------------
            0  0  0  0     0.690    151  163  175  187  199  211  223  235
            0  0  0  0     0.920    152  164  176  188  200  212  224  236
            0  0  0  0     1.580    153  165  177  189  201  213  225  237
            1  0  0  0     1.250    154  166  178  190  202  214  226  238
            0  1  0  0     1.250    155  167  179  191  203  215  227  239
            0  0  1  0     1.250    156  168  180  192  204  216  228  240
            2  0  0  0     2.500    157  169  181  193  205  217  229  241
            1  1  0  0     2.500    158  170  182  194  206  218  230  242
            1  0  1  0     2.500    159  171  183  195  207  219  231  243
            0  2  0  0     2.500    160  172  184  196  208  220  232  244
            0  1  1  0     2.500    161  173  185  197  209  221  233  245
            0  0  2  0     2.500    162  174  186  198  210  222  234  246

 Br                                  14
                                  ---------------------------------------------------------------------------
            0  0  0  0    41.300    247
            0  0  0  0    32.800    248
            0  0  0  1    13.900    249
            1  0  0  0    19.450    250
            0  1  0  0    19.450    251
            0  0  1  0    19.450    252
            1  0  0  0    13.100    253
            0  1  0  0    13.100    254
            0  0  1  0    13.100    255
            0  0  0  2     7.200    256
            0  0  0  2     4.950    257
            1  0  0  1     7.900    258
            0  1  0  1     7.900    259
            0  0  1  1     7.900    260
            1  0  0  1     5.050    261
            0  1  0  1     5.050    262
            0  0  1  1     5.050    263
            2  0  0  0    10.900    264
            1  1  0  0    10.900    265
            1  0  1  0    10.900    266
            0  2  0  0    10.900    267
            0  1  1  0    10.900    268
            0  0  2  0    10.900    269
            2  0  0  0     6.050    270
            1  1  0  0     6.050    271
            1  0  1  0     6.050    272
            0  2  0  0     6.050    273
            0  1  1  0     6.050    274
            0  0  2  0     6.050    275
            2  0  0  0     3.500    276
            1  1  0  0     3.500    277
            1  0  1  0     3.500    278
            0  2  0  0     3.500    279
            0  1  1  0     3.500    280
            0  0  2  0     3.500    281
            0  0  0  3     4.500    282
            0  0  0  3     2.800    283
            0  0  0  3     1.800    284
            1  0  0  2     3.250    285
            0  1  0  2     3.250    286
            0  0  1  2     3.250    287
            1  0  0  2     1.950    288
            0  1  0  2     1.950    289
            0  0  1  2     1.950    290
            1  0  0  2     1.200    291
            0  1  0  2     1.200    292
            0  0  1  2     1.200    293
            2  0  0  1     1.800    294
            1  1  0  1     1.800    295
            1  0  1  1     1.800    296
            0  2  0  1     1.800    297
            0  1  1  1     1.800    298
            0  0  2  1     1.800    299
            3  0  0  0     1.800    300
            2  1  0  0     1.800    301
            2  0  1  0     1.800    302
            1  2  0  0     1.800    303
            1  1  1  0     1.800    304
            1  0  2  0     1.800    305
            0  3  0  0     1.800    306
            0  2  1  0     1.800    307
            0  1  2  0     1.800    308
            0  0  3  0     1.800    309

 N                                   15
                                  ---------------------------------------------------------------------------
            0  0  0  0     8.740    310
            0  0  0  0     5.900    311
            0  0  0  1     5.150    312
            0  0  0  1     2.500    313
            0  0  0  1     1.500    314
            1  0  0  0     3.680    315
            0  1  0  0     3.680    316
            0  0  1  0     3.680    317
            1  0  0  0     1.880    318
            0  1  0  0     1.880    319
            0  0  1  0     1.880    320
            1  0  0  0     1.000    321
            0  1  0  0     1.000    322
            0  0  1  0     1.000    323
            2  0  0  0     2.200    324
            1  1  0  0     2.200    325
            1  0  1  0     2.200    326
            0  2  0  0     2.200    327
            0  1  1  0     2.200    328
            0  0  2  0     2.200    329
            3  0  0  0     3.300    330
            2  1  0  0     3.300    331
            2  0  1  0     3.300    332
            1  2  0  0     3.300    333
            1  1  1  0     3.300    334
            1  0  2  0     3.300    335
            0  3  0  0     3.300    336
            0  2  1  0     3.300    337
            0  1  2  0     3.300    338
            0  0  3  0     3.300    339

 Total number of charge fitting functions (nprimf)      1074
 Total number of Cartesian basis functions (naos)        339
 Total number of Cartesian core functions  (ncos)          0

 ***************************************************************************************************



                                              ***********************
                                              *  T E C H N I C A L  *
                                              ***********************
  



 =============================================================
 P A R A L L E L I Z A T I O N  and  V E C T O R I Z A T I O N
 =============================================================
  
 Nr of parallel processes:                                1
 Maximum vector length in NumInt loops:                 128



 =====================
 S C F   U P D A T E S
 =====================
  
 Max. nr. of cycles:                               200
 Convergence criterion:                              0.0000010000
   secondary criterion:                              0.0010000000

 Mix parameter (when DIIS does not apply):           0.2000000000
 Mixed ADIIS+SDIIS will be used                  
    Max number of expansion vectors:                10
    Pure ADIIS when Max([F,P]) is above              0.1000000000
    Pure SDIIS when Max([F,P]) is below              0.0010000000
 Automatic ElectronSmearing (in case of problematic SCF convergence) disabled



 =================
 P R E C I S I O N  ***  (General: NumInt, NeglectFunctionTails, ...)  ***
 =================
  

 NumInt:           Target precision:                 4.0000000000
 -------           Initial precision:                4.0000000000
                   Min. precision (optimization):    4.0000000000

 Neglect Functions:          Basis functions:        0.1000000000E-05
 ------------------          Fit functions:          0.1000000000E-05



 ===========================
 L I N E A R   S C A L I N G
 ===========================
  

 Cut-off radii density fit:                        0.1000000000E-07
 Overlap cut-off criterion AO matrix elements:     0.1000000000E-05
 Cut-offs for Coulomb potential and fitted density:0.1000000000E-07
 Cut-off criterion for Coulomb multipole terms:    0.1000000000E-07
 Progressive Convergence parameter:                 0.000000000    
 ***************************************************************************************************



                                            ***************************
                                            *  C O M P U T A T I O N  *
                                            ***************************
  

 Number of elements of the density matrix on this node (used, total):     57630     57630



 ===========================================
 Numerical Integration : Fuzzy Cells (Becke)
 ===========================================
  
 Becke grid quality: NORMAL         
  
 Lebedev angular grid order:             min:  11 max:  23
 Nr. of radial points:                   min:  46 max:  77

 Total nr. of points:     100342
 Nr. of blocks:              784
 Block length:               128
 Nr. of dummy points:         10


 Test of Precision of the Numerical Integration Grid
 ===================================================

 Integral of the Total Core Density:                   0.00000000000000



 ========================
 Density Fitting (zlmFit)
 ========================
  
 ZlmFit Fit Quality: NORMAL         
  
 Max L-expansion:                        min:   6 max:   7
 Nr. of radial interpolation points:     min:  39 max:  72



 =====
 S C F  ***  ScaSCF  ***
 =====
  
 Initial density matrix is calculated as sum of fragments

 CYCLE    1
 SCF Error: norm([F,P])=      6.181454635455, max([F,P])=      1.433560584551
 orbitals (Q,E):
 ---------------
 A :31...50          ( 2.00    -0.5360)  ( 2.00    -0.5189)  ( 2.00    -0.5137)  ( 2.00    -0.4994)
                     ( 2.00    -0.4856)  ( 2.00    -0.4480)  ( 2.00    -0.4438)  ( 2.00    -0.3722)
                     ( 2.00    -0.2967)  ( 2.00    -0.2954)  ( 0.00    -0.1857)  ( 0.00    -0.1539)
                     ( 0.00    -0.1436)  ( 0.00    -0.0663)  ( 0.00    -0.0436)  ( 0.00    -0.0386)
                     ( 0.00    -0.0274)  ( 0.00    -0.0145)  ( 0.00    -0.0108)  ( 0.00     0.0038)

 CYCLE    2
   MIX coefficients:  0.8000  0.2000
 SCF Error: norm([F,P])=      1.150174119211, max([F,P])=      0.227149335333
 orbitals (Q,E):
 ---------------
 A :31...41          ( 2.00    -0.4730)  ( 2.00    -0.4572)  ( 2.00    -0.4491)  ( 2.00    -0.4368)
                     ( 2.00    -0.4126)  ( 2.00    -0.3842)  ( 2.00    -0.3822)  ( 2.00    -0.3467)
                     ( 2.00    -0.2908)  ( 2.00    -0.2896)  ( 0.00    -0.1568)

 CYCLE    3
  SDIIS (wt  0.000): -0.6111  1.6111
 A-DIIS (wt  1.000):  0.0000  1.0000
  DIIS coefficients:  0.0000  1.0000
 SCF Error: norm([F,P])=      0.565925920856, max([F,P])=      0.105493088541
 orbitals (Q,E):
 ---------------
 A :31...41          ( 2.00    -0.3056)  ( 2.00    -0.2948)  ( 2.00    -0.2867)  ( 2.00    -0.2667)
                     ( 2.00    -0.2652)  ( 2.00    -0.2406)  ( 2.00    -0.2323)  ( 2.00    -0.2227)
                     ( 2.00    -0.2148)  ( 2.00    -0.2121)  ( 0.00    -0.0710)

 CYCLE    4
  SDIIS (wt  0.000):  0.1573  0.3629  0.4798
 A-DIIS (wt  1.000): -0.0000  0.6406  0.3594
  DIIS coefficients: -0.0000  0.6406  0.3594
 SCF Error: norm([F,P])=      0.786630009743, max([F,P])=      0.171678927933
 orbitals (Q,E):
 ---------------
 A :31...41          ( 2.00    -0.3731)  ( 2.00    -0.3594)  ( 2.00    -0.3513)  ( 2.00    -0.3385)
                     ( 2.00    -0.3096)  ( 2.00    -0.2917)  ( 2.00    -0.2872)  ( 2.00    -0.2827)
                     ( 2.00    -0.2296)  ( 2.00    -0.2280)  ( 0.00    -0.1030)

 CYCLE    5
  SDIIS (wt  0.528): -0.1177  0.4099  0.0711  0.6367
 A-DIIS (wt  0.472):  0.0000  0.0000  0.0000  1.0000
  DIIS coefficients: -0.0622  0.2165  0.0376  0.8081
 SCF Error: norm([F,P])=      0.149109162176, max([F,P])=      0.047700948372
 orbitals (Q,E):
 ---------------
 A :31...41          ( 2.00    -0.3830)  ( 2.00    -0.3653)  ( 2.00    -0.3592)  ( 2.00    -0.3453)
                     ( 2.00    -0.3187)  ( 2.00    -0.3022)  ( 2.00    -0.2992)  ( 2.00    -0.2952)
                     ( 2.00    -0.2522)  ( 2.00    -0.2503)  ( 0.00    -0.1035)

 CYCLE    6
  SDIIS (wt  0.000): -0.0261  0.1421  0.0249  0.5561  0.3031
 A-DIIS (wt  1.000):  0.0000  0.0000  0.0000  0.5929  0.4071
  DIIS coefficients:  0.0000  0.0000  0.0000  0.5929  0.4071
 SCF Error: norm([F,P])=      0.189668410572, max([F,P])=      0.080730360937
 orbitals (Q,E):
 ---------------
 A :31...41          ( 2.00    -0.3861)  ( 2.00    -0.3711)  ( 2.00    -0.3641)  ( 2.00    -0.3511)
                     ( 2.00    -0.3207)  ( 2.00    -0.3032)  ( 2.00    -0.3011)  ( 2.00    -0.2954)
                     ( 2.00    -0.2429)  ( 2.00    -0.2412)  ( 0.00    -0.1106)

 CYCLE    7
  SDIIS (wt  0.845):  0.0165  0.0297  0.0378  0.3406  0.2549  0.3205
 A-DIIS (wt  0.155):  0.0000  0.0000  0.0000  0.0000  0.0058  0.9942
  DIIS coefficients:  0.0139  0.0251  0.0320  0.2879  0.2163  0.4249
 SCF Error: norm([F,P])=      0.057244269392, max([F,P])=      0.016336270430
 orbitals (Q,E):
 ---------------
 A :31...41          ( 2.00    -0.3800)  ( 2.00    -0.3650)  ( 2.00    -0.3583)  ( 2.00    -0.3445)
                     ( 2.00    -0.3184)  ( 2.00    -0.2990)  ( 2.00    -0.2962)  ( 2.00    -0.2914)
                     ( 2.00    -0.2417)  ( 2.00    -0.2400)  ( 0.00    -0.1056)

 CYCLE    8
  SDIIS (wt  0.890): -0.0079  0.0236  0.0070  0.1709  0.1062  0.3411  0.3592
 A-DIIS (wt  0.110):  0.0000  0.0000  0.0000  0.0000  0.0000  0.3038  0.6962
  DIIS coefficients: -0.0071  0.0210  0.0062  0.1520  0.0945  0.3370  0.3964
 SCF Error: norm([F,P])=      0.035115944124, max([F,P])=      0.011913767917
 orbitals (Q,E):
 ---------------
 A :31...41          ( 2.00    -0.3813)  ( 2.00    -0.3664)  ( 2.00    -0.3596)  ( 2.00    -0.3460)
                     ( 2.00    -0.3170)  ( 2.00    -0.2991)  ( 2.00    -0.2961)  ( 2.00    -0.2913)
                     ( 2.00    -0.2411)  ( 2.00    -0.2394)  ( 0.00    -0.1066)

 CYCLE    9
  SDIIS (wt  0.988): -0.0026  0.0070  0.0016  0.0631  0.0390  0.1577  0.2467  0.4875
 A-DIIS (wt  0.012):  0.0000  0.0000  0.0000  0.0000  0.0000  0.0000  0.0230  0.9770
  DIIS coefficients: -0.0026  0.0069  0.0016  0.0624  0.0386  0.1558  0.2440  0.4933
 SCF Error: norm([F,P])=      0.006183624871, max([F,P])=      0.002185509532
 orbitals (Q,E):
 ---------------
 A :31...41          ( 2.00    -0.3813)  ( 2.00    -0.3663)  ( 2.00    -0.3595)  ( 2.00    -0.3459)
                     ( 2.00    -0.3176)  ( 2.00    -0.2994)  ( 2.00    -0.2966)  ( 2.00    -0.2916)
                     ( 2.00    -0.2413)  ( 2.00    -0.2396)  ( 0.00    -0.1067)

 CYCLE   10
  SDIIS (wt  1.000): -0.0006  0.0012  0.0001  0.0126  0.0085  0.0392  0.0765  0.2321  0.6303
  DIIS coefficients: -0.0006  0.0012  0.0001  0.0126  0.0085  0.0392  0.0765  0.2321  0.6303
 SCF Error: norm([F,P])=      0.000675247475, max([F,P])=      0.000144769698
 orbitals (Q,E):
 ---------------
 A :31...41          ( 2.00    -0.3813)  ( 2.00    -0.3663)  ( 2.00    -0.3595)  ( 2.00    -0.3459)
                     ( 2.00    -0.3176)  ( 2.00    -0.2994)  ( 2.00    -0.2965)  ( 2.00    -0.2916)
                     ( 2.00    -0.2413)  ( 2.00    -0.2396)  ( 0.00    -0.1067)

 CYCLE   11
  SDIIS (wt  1.000):  0.0000 -0.0000 -0.0000  0.0013  0.0012  0.0064  0.0176  0.0768  0.3088  0.5879
  DIIS coefficients:  0.0000 -0.0000 -0.0000  0.0013  0.0012  0.0064  0.0176  0.0768  0.3088  0.5879
 SCF Error: norm([F,P])=      0.000171389553, max([F,P])=      0.000033943974
 orbitals (Q,E):
 ---------------
 A :31...41          ( 2.00    -0.3813)  ( 2.00    -0.3663)  ( 2.00    -0.3595)  ( 2.00    -0.3459)
                     ( 2.00    -0.3176)  ( 2.00    -0.2994)  ( 2.00    -0.2965)  ( 2.00    -0.2916)
                     ( 2.00    -0.2413)  ( 2.00    -0.2396)  ( 0.00    -0.1067)

 CYCLE   12
  SDIIS (wt  1.000): -0.0000 -0.0000  0.0001  0.0002  0.0013  0.0054  0.0282  0.1260  0.3101  0.5288
  DIIS coefficients: -0.0000 -0.0000  0.0001  0.0002  0.0013  0.0054  0.0282  0.1260  0.3101  0.5288
 SCF Error: norm([F,P])=      0.000049693842, max([F,P])=      0.000013128053
 orbitals (Q,E):
 ---------------
 A :31...41          ( 2.00    -0.3813)  ( 2.00    -0.3663)  ( 2.00    -0.3595)  ( 2.00    -0.3459)
                     ( 2.00    -0.3176)  ( 2.00    -0.2994)  ( 2.00    -0.2965)  ( 2.00    -0.2916)
                     ( 2.00    -0.2413)  ( 2.00    -0.2396)  ( 0.00    -0.1067)

 CYCLE   13
  SDIIS (wt  1.000): -0.0000  0.0000  0.0000  0.0001  0.0009  0.0049  0.0221  0.0675  0.2124  0.6920
  DIIS coefficients: -0.0000  0.0000  0.0000  0.0001  0.0009  0.0049  0.0221  0.0675  0.2124  0.6920
 SCF Error: norm([F,P])=      0.000010796928, max([F,P])=      0.000002331819
 orbitals (Q,E):
 ---------------
 A :31...41          ( 2.00    -0.3813)  ( 2.00    -0.3663)  ( 2.00    -0.3595)  ( 2.00    -0.3459)
                     ( 2.00    -0.3176)  ( 2.00    -0.2994)  ( 2.00    -0.2965)  ( 2.00    -0.2916)
                     ( 2.00    -0.2413)  ( 2.00    -0.2396)  ( 0.00    -0.1067)

 CYCLE   14
  SDIIS (wt  1.000):  0.0000  0.0000  0.0000  0.0001  0.0000  0.0003  0.0039  0.0422  0.2589  0.6946
  DIIS coefficients:  0.0000  0.0000  0.0000  0.0001  0.0000  0.0003  0.0039  0.0422  0.2589  0.6946
 SCF Error: norm([F,P])=      0.000002425497, max([F,P])=      0.000000654797
 orbitals (Q,E):
 ---------------
 A :31...41          ( 2.00    -0.3813)  ( 2.00    -0.3663)  ( 2.00    -0.3595)  ( 2.00    -0.3459)
                     ( 2.00    -0.3176)  ( 2.00    -0.2994)  ( 2.00    -0.2965)  ( 2.00    -0.2916)
                     ( 2.00    -0.2413)  ( 2.00    -0.2396)  ( 0.00    -0.1067)

 SCF CONVERGED

 CYCLE   15
 ***************************************************************************************************



                                                *******************
                                                *  R E S U L T S  *
                                                *******************
  
 *** Using FIT density in Focky
  SDIIS (wt  1.000):  0.0000  0.0000  0.0000  0.0001  0.0009  0.0037  0.0198  0.1008  0.3639  0.5107
  DIIS coefficients:  0.0000  0.0000  0.0000  0.0001  0.0009  0.0037  0.0198  0.1008  0.3639  0.5107
 SCF Error: norm([F,P])=      0.000001328802, max([F,P])=      0.000000286957

 Scaled ZORA Orbital Energies, per Irrep and Spin:
 =================================================
                        Occup              E (au)              E (eV)       Diff (eV) with prev. cycle
                        -----      --------------------        ------       --------------------------
 A
              31        2.000     -0.38132633359941E+00       -10.376               1.07E-06
              32        2.000     -0.36632278029659E+00        -9.968               1.53E-06
              33        2.000     -0.35951657493581E+00        -9.783               1.45E-06
              34        2.000     -0.34594923355543E+00        -9.414               9.48E-07
              35        2.000     -0.31759069206483E+00        -8.642              -1.22E-06
              36        2.000     -0.29936176740284E+00        -8.146               4.36E-07
              37        2.000     -0.29652068100764E+00        -8.069              -1.67E-06
              38        2.000     -0.29162959204465E+00        -7.936              -2.90E-07
              39        2.000     -0.24130967521554E+00        -6.566               3.70E-06
              40        2.000     -0.23963519365582E+00        -6.521               3.63E-06
              41        0.000     -0.10667063832502E+00        -2.903
              42        0.000     -0.35732021857727E-01        -0.972
              43        0.000     -0.25545603685800E-01        -0.695
              44        0.000     -0.52904559415214E-02        -0.144
              45        0.000      0.42257025236195E-02         0.115
              46        0.000      0.92108930964061E-02         0.251
              47        0.000      0.24047905548682E-01         0.654
              48        0.000      0.45259219463902E-01         1.232
              49        0.000      0.57953143243152E-01         1.577
              50        0.000      0.61939776093623E-01         1.685
  
 HOMO :       40 A                -0.23963519365582E+00
 LUMO :       41 A                -0.10667063832502E+00
  


 All Electron Calculation, thus no Orbital Energies of the Core Orbitals are calculated


 Fit test: (difference of exact and fit density, squared integrated, result summed over spins)
         Sum-of-Fragments:                             0.00000000395842
         Orthogonalized Fragments:                     0.00104180343607
         SCF:                                          0.00115260181114



 ==========================
 Electron Density at Nuclei
 ==========================
  
 The electron density is calculated at points on a small sphere around the center of a nucleus.
 The printed electron density is the average electron density on these points.
 The radius of the sphere is the printed approximate finite nuclear radius.
 Note: ZORA-4 density is used, which includes small component density

         Atom        Nuclear Radius (Angstrom)             Electron Density (a.u.)
         ----        -------------------------             -----------------------
     1)   C                 0.0000320678                              127.24104
     2)   H                 0.0000181514                                0.51172
     3)   Br                0.0000536685                            33513.04728
     4)   C                 0.0000320678                              126.98158
     5)   H                 0.0000181514                                0.51856
     6)   C                 0.0000320678                              126.99567
     7)   H                 0.0000181514                                0.51036
     8)   H                 0.0000181514                                0.50608
[...]
                                    1.85%     3 S              40.869  0.00    13 H
                                   -1.79%     3 S              10.158  0.00     2 C
                                    1.79%     2 S               2.394  0.00     6 H
                                   -1.78%     5 S               6.099  0.00    14 Br
                                    1.64%     2 P:x             4.589  0.00     4 C
                                    1.59%     2 P:x             4.589  0.00     3 C
                                    1.58%     2 S             -13.620  2.00     2 C
                                    1.58%     2 P:y             4.589  0.00     1 C
                                    1.41%     3 S              40.869  0.00    10 H
                                    1.28%     2 P:x             4.589  0.00     1 C
                                   -1.22%     4 P:y             3.720  0.00    14 Br
                                    1.09%     1 P:x            -5.239  0.67     5 C
       1.685  0.00    50 A         20.49%     1 S              -6.532  1.00    11 H
                                   20.43%     1 S              -6.532  1.00     8 H
                                  -19.74%     2 P:x             4.589  0.00     3 C
                                   11.03%     1 S              -6.532  1.00     9 H
                                   10.25%     2 S               2.394  0.00     9 H
                                    8.73%     1 P:x            -5.239  0.67     3 C
                                    8.08%     2 S               2.394  0.00    11 H
                                    7.86%     1 S              -6.532  1.00     7 H
                                    6.38%     1 S              -6.532  1.00    10 H
                                    6.04%     2 S               2.394  0.00    12 H
                                    4.10%     2 S               2.394  0.00    10 H
                                    4.07%     2 P:z             4.589  0.00     3 C
                                    3.58%     1 S              -6.532  1.00    12 H
                                    3.42%     1 S              -6.532  1.00    13 H
                                   -3.17%     2 P:z             4.589  0.00     5 C
                                    2.93%     2 S               2.394  0.00     7 H
                                   -2.76%     2 P:x             4.589  0.00     5 C
                                   -2.42%     2 P:y             4.589  0.00     5 C
                                    2.35%     2 S             -13.620  2.00     1 C
                                   -2.32%     3 S              10.158  0.00     1 C
                                    2.06%     1 P:y            -5.239  0.67     5 C
                                   -1.84%     2 P:x             4.589  0.00     2 C
                                    1.81%     3 S              40.869  0.00     8 H
                                   -1.80%     2 P:y             4.589  0.00     1 C
                                    1.80%     3 S              40.869  0.00    11 H
                                    1.62%     1 S              -6.532  1.00     6 H
                                   -1.60%     2 P:z             4.589  0.00     1 C
                                    1.47%     1 P:z            -5.239  0.67     5 C
                                   -1.23%     2 S               2.394  0.00    13 H
       1.935  0.00    51 A         25.93%     1 S              -6.532  1.00    12 H
                                   22.50%     1 S              -6.532  1.00     9 H
                                   13.15%     1 S              -6.532  1.00    10 H
                                    9.79%     1 S              -6.532  1.00    13 H
                                    9.42%     2 S               2.394  0.00     9 H
                                   -9.21%     2 P:x             4.589  0.00     5 C
                                   -8.95%     2 P:y             4.589  0.00     3 C
                                    8.73%     1 S              -6.532  1.00     7 H
                                    7.18%     1 P:x            -5.239  0.67     5 C
                                   -5.98%     2 P:z             4.589  0.00     3 C
                                    5.87%     2 S               2.394  0.00    12 H
                                    4.39%     1 P:z            -5.239  0.67     3 C
                                   -4.10%     2 S               2.394  0.00    13 H
                                    3.93%     1 P:y            -5.239  0.67     3 C
                                    3.40%     2 S               2.394  0.00     7 H
                                   -3.29%     2 P:y             4.589  0.00     5 C
                                    2.96%     1 S              -6.532  1.00     6 H
                                    2.93%     2 S               2.394  0.00     6 H
                                   -2.66%     2 S               2.394  0.00    10 H
                                    2.44%     1 P:y            -5.239  0.67     5 C
                                   -2.17%     2 P:x             4.589  0.00     2 C
                                    2.04%     2 P:z             4.589  0.00     4 C
                                   -2.02%     2 P:z             4.589  0.00     1 C
                                    1.73%     3 S              40.869  0.00     7 H
                                    1.57%     2 S             -13.620  2.00     2 C
                                   -1.45%     3 S              10.158  0.00     2 C
                                   -1.42%     2 P:y             4.589  0.00     1 C
                                    1.41%     1 P:z            -5.239  0.67     1 C
                                    1.35%     3 S              40.869  0.00     6 H
                                    1.31%     1 P:x            -5.239  0.67     1 C
                                    1.23%     3 S              40.869  0.00    10 H
                                    1.23%     1 P:x            -5.239  0.67     4 C
                                    1.12%     2 S             -13.620  2.00     1 C
                                    1.05%     1 P:z            -5.239  0.67     5 C
       2.461  0.00    52 A         25.82%     1 P:z            -5.239  0.67     5 C
                                  -18.10%     2 P:x             4.589  0.00     2 C
                                   12.69%     1 S              -6.532  1.00    11 H
                                   12.66%     1 S              -6.532  1.00     9 H
                                   11.79%     1 P:x            -5.239  0.67     2 C
                                  -10.82%     2 S               2.394  0.00    11 H
                                   10.68%     1 S              -6.532  1.00     6 H
                                    9.53%     2 P:z             4.589  0.00     5 C
                                    8.57%     2 P:y             4.589  0.00     4 C
                                    7.94%     1 P:z            -5.239  0.67     3 C
                                   -6.15%     3 S              14.073  0.00    15 N
                                    6.07%     2 S             -13.620  2.00     4 C
                                    3.74%     4 P:y             3.720  0.00    14 Br
                                    3.71%     1 P:x            -5.239  0.67     4 C
                                    3.35%     1 P:x            -5.239  0.67     5 C
                                    3.33%     2 P:z             4.589  0.00     2 C
                                   -3.32%     2 S               2.394  0.00     9 H
                                    2.85%     2 S             -13.620  2.00     2 C
                                   -2.67%     2 P:x             4.589  0.00     3 C
                                    2.47%     2 P:x             4.589  0.00     4 C
                                    2.25%     1 P:z            -5.239  0.67     2 C
                                    1.97%     1 S              -6.532  1.00     8 H
                                    1.74%     3 S              10.158  0.00     4 C
                                   -1.71%     2 P:y             4.589  0.00     2 C
                                    1.60%     2 S             -13.620  2.00     1 C
                                   -1.45%     3 S              10.158  0.00     1 C
                                    1.44%     2 P:y             4.589  0.00     1 C
                                   -1.42%     3 S              10.158  0.00     2 C
                                    1.26%     2 P:x             4.589  0.00     5 C
                                   -1.24%     2 S               2.394  0.00     6 H
                                    1.17%     3 S              40.869  0.00     6 H
                                    1.12%     2 P:z             4.589  0.00     3 C
                                   -1.10%     2 S               2.394  0.00    10 H



 =======================================================================
 Electrostatic potential at the Nuclei due to electrons and other nuclei
 =======================================================================
  
         Atom                  Potential
         ----                  ---------
     1)   C                  14.69732675
     2)   H                   1.05678988
     3)   Br                180.54835269
     4)   C                  14.70994846
     5)   H                   1.05981192
     6)   C                  14.76441210
     7)   H                   1.08300832
     8)   H                   1.08998043
     9)   H                   1.09206422
    10)   C                  14.75776935
    11)   N                  18.43348992
    12)   C                  14.76686236
    13)   H                   1.09059152
    14)   H                   1.09632395
    15)   H                   1.09321095
 Mulliken charges used for AMS results%charges...


    =====================
     CALCULATION RESULTS
    =====================

Energy (hartree)            -2.95805251


--------------
Atomic charges
--------------
  Index   Atom    Charge
      1      C    0.3227
      2      H   -0.1343
      3     Br   -0.2831
      4      C    0.1840
      5      H   -0.1542
      6      C    0.6900
      7      H   -0.2267
      8      H   -0.1528
      9      H   -0.2027
     10      C    0.1003
     11      N   -0.2512
     12      C    0.7180
     13      H   -0.2209
     14      H   -0.1730
     15      H   -0.2161


Dipole moment vector    (Debye):     3.90019337   -1.86512326   -2.78304263
              magnitude (Debye):     5.14154834


-----------------------
Molecular orbitals info
-----------------------
n orbitals:              300
n spin:                    1

Note: only printing virtual orbitals with
      energy smaller than HOMO + 100. eV

HOMO (eV):              -6.5208
LUMO (eV):              -2.9027
HOMO-LUMO gap (eV):      3.6181

   Index   Energy (eV)    Occupation
     197       93.2447         0.000       
     196       92.5926         0.000       
     195       92.0900         0.000       
     194       90.8222         0.000       
     193       90.4761         0.000       
     192       87.5676         0.000       
     191       86.7139         0.000       
     190       86.3571         0.000       
     189       86.0706         0.000       
     188       84.7077         0.000       
     187       84.3105         0.000       
     186       82.6770         0.000       
     185       81.7602         0.000       
     184       81.3649         0.000       
     183       80.9954         0.000       
     182       80.4114         0.000       
     181       79.7902         0.000       
     180       78.8372         0.000       
     179       78.5153         0.000       
     178       77.8550         0.000       
     177       77.3842         0.000       
     176       77.1832         0.000       
     175       76.9834         0.000       
     174       76.5239         0.000       
     173       76.2085         0.000       
     172       75.3015         0.000       
     171       74.4043         0.000       
     170       73.4366         0.000       
     169       72.6494         0.000       
     168       71.9270         0.000       
     167       71.0185         0.000       
     166       70.1292         0.000       
     165       69.7125         0.000       
     164       67.5046         0.000       
     163       66.3737         0.000       
     162       64.9281         0.000       
     161       64.5240         0.000       
     160       63.6263         0.000       
     159       62.4699         0.000       
     158       61.9337         0.000       
     157       60.9939         0.000       
     156       59.5567         0.000       
     155       58.8684         0.000       
     154       58.3460         0.000       
     153       56.9381         0.000       
     152       56.8435         0.000       
     151       56.3288         0.000       
     150       54.7818         0.000       
     149       54.0331         0.000       
     148       53.4224         0.000       
     147       52.0918         0.000       
     146       51.3780         0.000       
     145       50.0027         0.000       
     144       49.6186         0.000       
     143       49.3151         0.000       
     142       47.7982         0.000       
     141       47.0042         0.000       
     140       46.4275         0.000       
     139       45.7642         0.000       
     138       45.0592         0.000       
     137       44.4847         0.000       
     136       43.9644         0.000       
     135       42.9432         0.000       
     134       42.0864         0.000       
     133       41.7300         0.000       
     132       39.8603         0.000       
     131       38.9800         0.000       
     130       38.5517         0.000       
     129       38.0801         0.000       
     128       37.3501         0.000       
     127       36.7017         0.000       
     126       36.5566         0.000       
     125       36.3289         0.000       
     124       35.4649         0.000       
     123       35.1913         0.000       
     122       34.4260         0.000       
     121       33.3999         0.000       
     120       33.0761         0.000       
     119       32.6688         0.000       
     118       31.4039         0.000       
     117       31.3329         0.000       
     116       31.1916         0.000       
     115       30.5751         0.000       
     114       30.3526         0.000       
     113       29.8536         0.000       
     112       29.1341         0.000       
     111       28.9674         0.000       
     110       28.6875         0.000       
     109       28.0710         0.000       
     108       28.0404         0.000       
     107       27.1047         0.000       
     106       26.4027         0.000       
     105       26.3496         0.000       
     104       26.0646         0.000       
     103       25.4264         0.000       
     102       24.8256         0.000       
     101       24.6058         0.000       
     100       24.1058         0.000       
      99       23.5001         0.000       
      98       23.2418         0.000       
      97       22.6140         0.000       
      96       22.0680         0.000       
      95       21.7099         0.000       
      94       21.2672         0.000       
      93       19.8398         0.000       
      92       19.2715         0.000       
      91       18.5250         0.000       
      90       18.1331         0.000       
      89       16.6335         0.000       
      88       15.9094         0.000       
      87       14.9690         0.000       
      86       14.2867         0.000       
      85       13.7491         0.000       
      84       13.0692         0.000       
      83       12.6087         0.000       
      82       12.3937         0.000       
      81       11.9225         0.000       
      80       11.2320         0.000       
      79       10.9941         0.000       
      78       10.6917         0.000       
      77       10.4854         0.000       
      76       10.2047         0.000       
      75        9.8541         0.000       
      74        9.6434         0.000       
      73        9.2521         0.000       
      72        9.0274         0.000       
      71        8.6998         0.000       
      70        8.4665         0.000       
      69        8.0063         0.000       
      68        7.4688         0.000       
      67        7.2269         0.000       
      66        6.9139         0.000       
      65        6.2995         0.000       
      64        6.1850         0.000       
      63        5.6389         0.000       
      62        5.3232         0.000       
      61        5.1416         0.000       
      60        4.8883         0.000       
      59        4.6133         0.000       
      58        4.5763         0.000       
      57        4.0148         0.000       
      56        3.5409         0.000       
      55        3.3605         0.000       
      54        3.1154         0.000       
      53        2.9584         0.000       
      52        2.4605         0.000       
      51        1.9351         0.000       
      50        1.6855         0.000       
      49        1.5770         0.000       
      48        1.2316         0.000       
      47        0.6544         0.000       
      46        0.2506         0.000       
      45        0.1150         0.000       
      44       -0.1440         0.000       
      43       -0.6951         0.000       
      42       -0.9723         0.000       
      41       -2.9027         0.000 < LUMO
      40       -6.5208         2.000 < HOMO
      39       -6.5664         2.000       
      38       -7.9356         2.000       
      37       -8.0687         2.000       
      36       -8.1460         2.000       
      35       -8.6421         2.000       
      34       -9.4138         2.000       
      33       -9.7829         2.000       
      32       -9.9682         2.000       
      31      -10.3764         2.000       
      30      -11.0461         2.000       
      29      -11.6817         2.000       
      28      -12.2780         2.000       
      27      -13.2346         2.000       
      26      -15.7740         2.000       
      25      -16.8472         2.000       
      24      -18.6663         2.000       
      23      -19.4943         2.000       
      22      -21.3556         2.000       
      21      -22.5160         2.000       
      20      -65.2090         2.000       
      19      -65.2096         2.000       
      18      -65.4460         2.000       
      17      -65.4494         2.000       
      16      -65.5263         2.000       
      15     -171.7838         2.000       
      14     -171.7873         2.000       
      13     -172.1069         2.000       
      12     -235.6645         2.000       
      11     -270.5275         2.000       
      10     -270.5894         2.000       
       9     -271.1966         2.000       
       8     -272.0211         2.000       
       7     -272.5393         2.000       
       6     -381.6639         2.000       
       5    -1525.8994         2.000       
       4    -1525.9003         2.000       
       3    -1526.0108         2.000       
       2    -1729.0250         2.000       
       1   -13295.5223         2.000       

AMS application finished. Exiting.
NORMAL TERMINATION
     Total cpu time:      53.10
  Total system time:       0.38
 Total elapsed time:      53.68
NORMAL TERMINATION
