srun: Job 662083 step creation temporarily disabled, retrying (Requested nodes are busy)
srun: Job 662083 step creation still disabled, retrying (Requested nodes are busy)
srun: Job 662083 step creation still disabled, retrying (Requested nodes are busy)
srun: Job 662083 step creation still disabled, retrying (Requested nodes are busy)
srun: Job 662083 step creation still disabled, retrying (Requested nodes are busy)
srun: Job 662083 step creation still disabled, retrying (Requested nodes are busy)
srun: Job 662083 step creation still disabled, retrying (Requested nodes are busy)
srun: Job 662083 step creation still disabled, retrying (Requested nodes are busy)
srun: Step created for StepId=662083.26

 *******************************************************************************
 *                                                                             *
 *  --------------------------------                                           *
 *   Amsterdam Modeling Suite (AMS)              2026.103                      *
 *  --------------------------------                                           *
 *                                               r260501 2026-05-01 873454b5   *
 *                                                                             *
 *                                                                             *
 *                              =================                              *
 *                              |               |                              *
 *                              |     A M S     |                              *
 *                              |               |                              *
 *                              =================                              *
 *                                                                             *
 *                                                                             *
 *   Online information and documentation:  https://www.scm.com/support/       *
 *   E-mail:  support@scm.com   info@scm.com                                   *
 *                                                                             *
 *   Scientific publications using AMS results must be properly referenced     *
 *   See the User Manuals (or the web site) for recommended citations          *
 *   The terms and conditions of the End User License Agreement apply to       *
 *   the use of AMS, https://www.scm.com/license-terms/                        *
 *                                                                             *
 **********************  x86_64_linux_intel / intelmpi  ************************
 
 Licensed to: Jong-June Jeon / University of Seoul 2026-06-02 13:44:15
 SCM User ID: u30731
  
 AMS 2026.103  RunTime: Jun02-2026 23:31:51  ShM Nodes: 1  Procs: 1

 AMS jobname: c4_fragA_opt
 AMS jobid  : 1721646065

 Start   directory: /gpfs/home1/yeseo1ee/projects/eda-asm-prediction/ADF_800/adf_outputs/batch_000/dipolar_000224/
 Results directory: /gpfs/home1/yeseo1ee/projects/eda-asm-prediction/ADF_800/adf_outputs/batch_000/dipolar_000224/c4_fragA_opt.results/
 Scratch directory: /tmp/amstmp_c4_fragA_opt_kid0.1721646065/

 RNG seed: 1089996107 -1023924215 -1239596964 1828486735 -1333239658 -1109594336 -573466453 -18901146



                      ************************************************************************
                      *  ADF 2026.103  RunTime: Jun02-2026 23:31:51  ShM Nodes: 1  Procs: 1  *
                      ************************************************************************
  

       ***************************
       *  GEOMETRY OPTIMIZATION  *
       ***************************

Optimization Method                    Quasi Newton
Optimization Coordinates               Delocalized Coordinates
Optimize lattice                       F
 
 ------------------------------------------------------
 Convergence criteria (Hartree,Angstrom)
 ------------------------------------------------------
 Maximum gradient               0.000100000000
 Maximum rms gradient           0.000066666667
 Maximum step allowed           0.010000000000
 Maximum rms step allowed       0.006666666667
 Maximum energy change allowe   0.000090000000
 Maximum stress energy allowe   0.000500000000
 
Initial model Hessian                  Automatic Hessian
 
------------------------------------
Quasi-Newton Optimizer Parameters
------------------------------------
Hessian Update Method                  BFGS
Maximum number of steps                  200
First GDIIS cycle                          0
Maximum GDIIS vectors                      0
Trust radius (bohr)                        0.200000
Trust radius varies                        T
Constraints converged at all steps         T
Use projector                              T
 
 Rigid motions settings for: old optimizer
 Atomic rotations (x,y,z):     T T T
 Atomic translations (x,y,z):  T T T
 Tolerance:                  1.000000000000000E-006

--------
Geometry
--------
Formula: CH5N3
Atoms
  Index Symbol   x (angstrom)   y (angstrom)   z (angstrom)
      1      C     1.79128000     2.68854000    -1.72125000
      2      N     0.34142000     2.63248000    -1.84404000
      3      N    -0.13244000     1.59210000    -2.47325000
      4      N     0.25660000     0.35663000    -2.33773000
      5      H     2.03462000     3.45791000    -0.97789000
      6      H     2.29060000     1.75494000    -1.41575000
      7      H     2.22098000     3.01137000    -2.68663000
      8      H    -1.13202000     1.67755000    -2.67696000
      9      H     1.26626000     0.35564000    -2.16328000

Total System Charge              0.00000


----------------
ADF Engine Input
----------------
 
   Basis
     Type TZ2P
     Core None
   End
   XC
     GGA BLYP
     Dispersion GRIMME3 BJDAMP
   End
   Symmetry NOSYM
   NumericalQuality Normal
   Unrestricted No
   SCF
     Iterations 200
     Converge 1.0e-6
   End
   Save TAPE21
 

 Title: *** (NO TITLE) ***

 Using automatic Hessian for delocalized coordinates.
 *** GO1_GOStep1 ***

 Energy gradients wrt nuclear displacements
 ==========================================

     Atom      Cartesian (a.u./angstrom)
                 X         Y         Z
 ----------------------------------------
     1 C    -0.002819  0.002912 -0.014809
     2 N     0.002405 -0.076374  0.063919
     3 N    -0.006908  0.025824 -0.121743
     4 N     0.003918  0.043749  0.084633
     5 H     0.003163  0.002217  0.002598
     6 H    -0.001875  0.001484 -0.003412
     7 H    -0.000007  0.003346 -0.002433
     8 H     0.003676 -0.001713  0.005472
     9 H    -0.001554 -0.001445 -0.014225
 ----------------------------------------
 
----------------------------------------------------------------------
Geometry Convergence after Step   1       (Hartree/Angstrom,Angstrom)
----------------------------------------------------------------------
current energy                               -1.73491166 Hartree
energy change                      -1.73491166     0.00009000    F
constrained gradient max            0.12177904     0.00010000    F
constrained gradient rms            0.03605411     0.00006667    F
gradient max                        0.12177904
gradient rms                        0.03605411
cart. step max                      0.09910635     0.01000000    F
cart. step rms                      0.04390260     0.00666667    F
 

--------
Geometry
--------
Formula: CH5N3
Atoms
  Index Symbol   x (angstrom)   y (angstrom)   z (angstrom)
      1      C     1.80100135     2.72019566    -1.70601395
      2      N     0.35223494     2.65533869    -1.84738113
      3      N    -0.12435450     1.57482661    -2.42629045
      4      N     0.22211702     0.30838298    -2.40604243
      5      H     2.02726624     3.53444774    -1.00868129
      6      H     2.29682807     1.80889897    -1.33124201
      7      H     2.24834954     2.98107266    -2.68074489
      8      H    -1.12152006     1.68746305    -2.63717154
      9      H     1.23537742     0.25653365    -2.25321230

Total System Charge              0.00000

 *** GO1_GOStep2 ***

 Energy gradients wrt nuclear displacements
 ==========================================

     Atom      Cartesian (a.u./angstrom)
                 X         Y         Z
 ----------------------------------------
     1 C    -0.004162  0.006970 -0.011271
     2 N     0.002701 -0.024763  0.055294
     3 N     0.007847  0.013984 -0.086403
     4 N    -0.004594 -0.000696  0.055482
     5 H     0.002449  0.000918  0.001551
     6 H     0.001353  0.002887 -0.001343
     7 H    -0.000834  0.002903 -0.001457
     8 H     0.000852 -0.000584  0.001007
     9 H    -0.005611 -0.001619 -0.012859
 ----------------------------------------

 dE(predicted):    -0.13039E-01, dE(actual):    -0.10772E-01, Trust radius:    0.400000, all in a.u.
 
----------------------------------------------------------------------
Geometry Convergence after Step   2       (Hartree/Angstrom,Angstrom)
----------------------------------------------------------------------
current energy                               -1.74568380 Hartree
energy change                      -0.01077214     0.00009000    F
constrained gradient max            0.08644265     0.00010000    F
constrained gradient rms            0.02351301     0.00006667    F
gradient max                        0.08644265
gradient rms                        0.02351301
cart. step max                      0.18174350     0.01000000    F
cart. step rms                      0.07193945     0.00666667    F
 

--------
Geometry
--------
Formula: CH5N3
Atoms
  Index Symbol   x (angstrom)   y (angstrom)   z (angstrom)
      1      C     1.77564591     2.68861268    -1.69943664
      2      N     0.32895952     2.70643999    -1.88032411
      3      N    -0.13881699     1.58795204    -2.36520427
      4      N     0.30086544     0.35867268    -2.47339662
      5      H     2.03708677     3.55744051    -1.08726964
      6      H     2.18142475     1.78735293    -1.20680918
      7      H     2.27320745     2.79932916    -2.67749080
      8      H    -1.14643069     1.65674407    -2.54415339
      9      H     1.32535783     0.38461594    -2.36269535

Total System Charge              0.00000

 *** GO1_GOStep3 ***

 Energy gradients wrt nuclear displacements
 ==========================================

     Atom      Cartesian (a.u./angstrom)
                 X         Y         Z
 ----------------------------------------
     1 C    -0.005373 -0.006309 -0.007859
     2 N    -0.005390 -0.004677  0.026647
     3 N     0.013099  0.010858 -0.041902
     4 N    -0.006152 -0.006130  0.031777
     5 H     0.000456  0.000122  0.001502
     6 H     0.003615  0.000495 -0.001403
     7 H    -0.002596  0.002994 -0.000336
     8 H     0.000508  0.001376 -0.000688
     9 H     0.001832  0.001271 -0.007737
 ----------------------------------------

 dE(predicted):    -0.10386E-01, dE(actual):    -0.99056E-02, Trust radius:    0.800000, all in a.u.
 
----------------------------------------------------------------------
Geometry Convergence after Step   3       (Hartree/Angstrom,Angstrom)
----------------------------------------------------------------------
current energy                               -1.75558937 Hartree
energy change                      -0.00990557     0.00009000    F
constrained gradient max            0.04190501     0.00010000    F
constrained gradient rms            0.01235716     0.00006667    F
gradient max                        0.04190501
gradient rms                        0.01235716
cart. step max                      0.21603752     0.01000000    F
cart. step rms                      0.08732308     0.00666667    F
 

--------
Geometry
--------
Formula: CH5N3
Atoms
  Index Symbol   x (angstrom)   y (angstrom)   z (angstrom)
      1      C     1.77443292     2.67859829    -1.67048501
      2      N     0.33105479     2.70576108    -1.89523204
      3      N    -0.15804782     1.58136015    -2.33616943
      4      N     0.33353345     0.40379271    -2.61520205
      5      H     2.05239422     3.63256273    -1.21278387
      6      H     2.11043546     1.86427719    -1.00487187
      7      H     2.31554672     2.58329164    -2.62738642
      8      H    -1.18052503     1.61151638    -2.40873567
      9      H     1.35847529     0.46599983    -2.52591364

Total System Charge              0.00000

 *** GO1_GOStep4 ***

 Energy gradients wrt nuclear displacements
 ==========================================

     Atom      Cartesian (a.u./angstrom)
                 X         Y         Z
 ----------------------------------------
     1 C     0.000168 -0.003045  0.007327
     2 N     0.005409 -0.004472 -0.003992
     3 N    -0.007177  0.003461 -0.015975
     4 N    -0.000181  0.000546  0.008867
     5 H     0.001959  0.000436  0.001571
     6 H     0.004097  0.002939  0.000488
     7 H    -0.004456  0.001986 -0.000188
     8 H    -0.000571 -0.001833  0.004816
     9 H     0.000752 -0.000019 -0.002914
 ----------------------------------------

 dE(predicted):    -0.62365E-02, dE(actual):    -0.41640E-02, Trust radius:    0.800000, all in a.u.
 
----------------------------------------------------------------------
Geometry Convergence after Step   4       (Hartree/Angstrom,Angstrom)
----------------------------------------------------------------------
current energy                               -1.75975338 Hartree
energy change                      -0.00416400     0.00009000    F
constrained gradient max            0.01598259     0.00010000    F
constrained gradient rms            0.00478312     0.00006667    F
gradient max                        0.01598259
gradient rms                        0.00478312
cart. step max                      0.09314179     0.01000000    F
cart. step rms                      0.04192520     0.00666667    F
 

--------
Geometry
--------
Formula: CH5N3
Atoms
  Index Symbol   x (angstrom)   y (angstrom)   z (angstrom)
      1      C     1.76083463     2.66562958    -1.68064930
      2      N     0.30535435     2.69099797    -1.80209025
      3      N    -0.15635213     1.57639862    -2.27994324
      4      N     0.38045664     0.46463254    -2.69932692
      5      H     2.06780198     3.62845296    -1.26530702
      6      H     2.09884047     1.85909849    -1.00583747
      7      H     2.26435328     2.52237476    -2.65372227
      8      H    -1.16381623     1.62539795    -2.46363388
      9      H     1.37982701     0.49417712    -2.44626965

Total System Charge              0.00000

 *** GO1_GOStep5 ***

 Energy gradients wrt nuclear displacements
 ==========================================

     Atom      Cartesian (a.u./angstrom)
                 X         Y         Z
 ----------------------------------------
     1 C     0.000369 -0.004610 -0.008140
     2 N    -0.006070 -0.006223 -0.005547
     3 N     0.004034 -0.003987  0.023078
     4 N    -0.000578  0.011895 -0.009636
     5 H    -0.000626  0.000827 -0.000921
     6 H    -0.003181 -0.001468 -0.000976
     7 H     0.002475  0.001427  0.001184
     8 H     0.002202  0.002915 -0.005483
     9 H     0.001375 -0.000776  0.006440
 ----------------------------------------

 dE(predicted):    -0.13419E-02, dE(actual):     0.32493E-03, Trust radius:    0.097615, all in a.u.
 
----------------------------------------------------------------------
Geometry Convergence after Step   5       (Hartree/Angstrom,Angstrom)
----------------------------------------------------------------------
current energy                               -1.75942845 Hartree
energy change                       0.00032493     0.00009000    F
constrained gradient max            0.02303432     0.00010000    F
constrained gradient rms            0.00639871     0.00006667    F
gradient max                        0.02303432
gradient rms                        0.00639871
cart. step max                      0.03996480     0.01000000    F
cart. step rms                      0.01511488     0.00666667    F
 

--------
Geometry
--------
Formula: CH5N3
Atoms
  Index Symbol   x (angstrom)   y (angstrom)   z (angstrom)
      1      C     1.76739258     2.67503253    -1.67153027
      2      N     0.31421793     2.69385099    -1.81969367
      3      N    -0.15510637     1.57692447    -2.29863973
      4      N     0.36037407     0.44338050    -2.69531632
      5      H     2.06504107     3.64284768    -1.26124176
      6      H     2.10594798     1.87829871    -0.98500685
      7      H     2.28042674     2.52435580    -2.63850698
      8      H    -1.16998501     1.61914140    -2.44060995
      9      H     1.36899101     0.47332792    -2.48623446

Total System Charge              0.00000

 *** GO1_GOStep6 ***

 Energy gradients wrt nuclear displacements
 ==========================================

     Atom      Cartesian (a.u./angstrom)
                 X         Y         Z
 ----------------------------------------
     1 C     0.000905 -0.000448 -0.002116
     2 N    -0.000555  0.000293 -0.002529
     3 N    -0.000277 -0.003331  0.009974
     4 N     0.000267  0.003475 -0.006882
     5 H    -0.000020  0.000362 -0.000181
     6 H    -0.000892 -0.000425 -0.000339
     7 H     0.000454  0.000713  0.000384
     8 H     0.000206  0.000761 -0.001926
     9 H    -0.000089 -0.001401  0.003614
 ----------------------------------------

 dE(predicted):    -0.84045E-03, dE(actual):    -0.77855E-03, Trust radius:    0.195230, all in a.u.
 
----------------------------------------------------------------------
Geometry Convergence after Step   6       (Hartree/Angstrom,Angstrom)
----------------------------------------------------------------------
current energy                               -1.76020700 Hartree
energy change                      -0.00077855     0.00009000    F
constrained gradient max            0.00994847     0.00010000    F
constrained gradient rms            0.00274803     0.00006667    F
gradient max                        0.00994847
gradient rms                        0.00274803
cart. step max                      0.08607434     0.01000000    F
cart. step rms                      0.02489698     0.00666667    F
 

--------
Geometry
--------
Formula: CH5N3
Atoms
  Index Symbol   x (angstrom)   y (angstrom)   z (angstrom)
      1      C     1.76475853     2.67055767    -1.66293701
      2      N     0.31525944     2.70244165    -1.83722478
      3      N    -0.15436594     1.57755270    -2.29745725
      4      N     0.35894061     0.43391888    -2.66845220
      5      H     2.06837088     3.64863786    -1.28292457
      6      H     2.08480724     1.89617877    -0.94262725
      7      H     2.29019599     2.47768299    -2.61588587
      8      H    -1.17234545     1.61002432    -2.41696227
      9      H     1.38167871     0.51016516    -2.57230880

Total System Charge              0.00000

 *** GO1_GOStep7 ***

 Energy gradients wrt nuclear displacements
 ==========================================

     Atom      Cartesian (a.u./angstrom)
                 X         Y         Z
 ----------------------------------------
     1 C    -0.000571 -0.002661  0.001399
     2 N    -0.001062  0.002053 -0.003112
     3 N     0.001467 -0.001018  0.005174
     4 N     0.000172 -0.000934  0.001265
     5 H    -0.000298 -0.000049  0.000500
     6 H     0.001092  0.000867  0.000264
     7 H    -0.001257 -0.000767 -0.000313
     8 H     0.000355  0.001122 -0.002203
     9 H     0.000101  0.001387 -0.002974
 ----------------------------------------

 dE(predicted):    -0.30571E-03, dE(actual):    -0.10110E-03, Trust radius:    0.195230, all in a.u.
 
----------------------------------------------------------------------
Geometry Convergence after Step   7       (Hartree/Angstrom,Angstrom)
----------------------------------------------------------------------
current energy                               -1.76030810 Hartree
energy change                      -0.00010110     0.00009000    F
constrained gradient max            0.00516789     0.00010000    F
constrained gradient rms            0.00170504     0.00006667    F
gradient max                        0.00516789
gradient rms                        0.00170504
cart. step max                      0.04734534     0.01000000    F
cart. step rms                      0.01655547     0.00666667    F
 

--------
Geometry
--------
Formula: CH5N3
Atoms
  Index Symbol   x (angstrom)   y (angstrom)   z (angstrom)
      1      C     1.76756323     2.67594144    -1.66863800
      2      N     0.31741580     2.70074406    -1.83934716
      3      N    -0.15317795     1.58107140    -2.31304761
      4      N     0.35307347     0.42990054    -2.67088901
      5      H     2.06412284     3.64396479    -1.25846239
      6      H     2.09559346     1.88145704    -0.97420975
      7      H     2.29396302     2.51948511    -2.62770006
      8      H    -1.17264551     1.61229295    -2.41952257
      9      H     1.37139163     0.48230266    -2.52496346

Total System Charge              0.00000

 *** GO1_GOStep8 ***

 Energy gradients wrt nuclear displacements
 ==========================================

     Atom      Cartesian (a.u./angstrom)
                 X         Y         Z
 ----------------------------------------
     1 C    -0.000245 -0.000609  0.000602
     2 N    -0.000277  0.001024  0.000327
     3 N     0.001111  0.000488 -0.002018
     4 N    -0.000344 -0.001088  0.000126
     5 H     0.000075 -0.000065  0.000217
     6 H     0.000423  0.000339 -0.000123
     7 H    -0.000303  0.000186 -0.000145
     8 H    -0.000103 -0.000193  0.000910
     9 H    -0.000337 -0.000082  0.000103
 ----------------------------------------

 dE(predicted):    -0.15401E-03, dE(actual):    -0.12109E-03, Trust radius:    0.195230, all in a.u.
 
----------------------------------------------------------------------
Geometry Convergence after Step   8       (Hartree/Angstrom,Angstrom)
----------------------------------------------------------------------
current energy                               -1.76042919 Hartree
energy change                      -0.00012109     0.00009000    F
constrained gradient max            0.00203089     0.00010000    F
constrained gradient rms            0.00062058     0.00006667    F
gradient max                        0.00203089
gradient rms                        0.00062058
cart. step max                      0.00857527     0.01000000    T
cart. step rms                      0.00328942     0.00666667    T
 

--------
Geometry
--------
Formula: CH5N3
Atoms
  Index Symbol   x (angstrom)   y (angstrom)   z (angstrom)
      1      C     1.76735007     2.67488714    -1.66808996
      2      N     0.31666299     2.69898229    -1.83517253
      3      N    -0.15470402     1.57978662    -2.30842186
      4      N     0.35533272     0.43329352    -2.67457913
      5      H     2.06552373     3.64528288    -1.26479812
      6      H     2.09407629     1.88390333    -0.96891061
      7      H     2.29282171     2.51090984    -2.62645393
      8      H    -1.17344984     1.61212652    -2.42148057
      9      H     1.37368634     0.48798784    -2.52887329

Total System Charge              0.00000

 *** GO1_GOStep9 ***

 Energy gradients wrt nuclear displacements
 ==========================================

     Atom      Cartesian (a.u./angstrom)
                 X         Y         Z
 ----------------------------------------
     1 C     0.000187 -0.000135  0.000241
     2 N     0.000201  0.000164 -0.000317
     3 N    -0.000502 -0.000321  0.000475
     4 N     0.000053  0.000070 -0.000305
     5 H     0.000121  0.000020  0.000097
     6 H     0.000065  0.000105 -0.000092
     7 H    -0.000094  0.000090 -0.000035
     8 H    -0.000067  0.000058 -0.000095
     9 H     0.000036 -0.000050  0.000032
 ----------------------------------------

 dE(predicted):    -0.11157E-04, dE(actual):    -0.10885E-04, Trust radius:    0.195230, all in a.u.
 
----------------------------------------------------------------------
Geometry Convergence after Step   9       (Hartree/Angstrom,Angstrom)
----------------------------------------------------------------------
current energy                               -1.76044008 Hartree
energy change                      -0.00001088     0.00009000    T
constrained gradient max            0.00049342     0.00010000    F
constrained gradient rms            0.00019576     0.00006667    F
gradient max                        0.00049342
gradient rms                        0.00019576
cart. step max                      0.00273174     0.01000000    T
cart. step rms                      0.00100294     0.00666667    T
 

--------
Geometry
--------
Formula: CH5N3
Atoms
  Index Symbol   x (angstrom)   y (angstrom)   z (angstrom)
      1      C     1.76696788     2.67458963    -1.66791720
      2      N     0.31636728     2.69927257    -1.83463855
      3      N    -0.15419753     1.58021244    -2.30863222
      4      N     0.35586662     0.43386139    -2.67511118
      5      H     2.06562734     3.64553917    -1.26648416
      6      H     2.09274051     1.88451621    -0.96714012
      7      H     2.29266295     2.50817811    -2.62576184
      8      H    -1.17311545     1.61169606    -2.42010111
      9      H     1.37438041     0.48929444    -2.53099362

Total System Charge              0.00000

 *** GO1_GOStep10 ***

 Energy gradients wrt nuclear displacements
 ==========================================

     Atom      Cartesian (a.u./angstrom)
                 X         Y         Z
 ----------------------------------------
     1 C     0.000008 -0.000268  0.000099
     2 N    -0.000151  0.000217 -0.000147
     3 N     0.000256 -0.000036  0.000259
     4 N    -0.000102 -0.000043 -0.000178
     5 H     0.000011 -0.000006  0.000047
     6 H     0.000038  0.000030 -0.000061
     7 H    -0.000048  0.000019 -0.000037
     8 H    -0.000010  0.000055  0.000037
     9 H    -0.000003  0.000030 -0.000020
 ----------------------------------------
 
----------------------------------------------------------------------
Geometry Convergence after Step  10       (Hartree/Angstrom,Angstrom)
----------------------------------------------------------------------
current energy                               -1.76044106 Hartree
energy change                      -0.00000099     0.00009000    T
constrained gradient max            0.00026452     0.00010000    F
constrained gradient rms            0.00011498     0.00006667    F
gradient max                        0.00026452
gradient rms                        0.00011498
cart. step max                      0.00032115     0.01000000    T
cart. step rms                      0.00015509     0.00666667    T
 

--------
Geometry
--------
Formula: CH5N3
Atoms
  Index Symbol   x (angstrom)   y (angstrom)   z (angstrom)
      1      C     1.76704617     2.67467117    -1.66785705
      2      N     0.31642324     2.69897402    -1.83431740
      3      N    -0.15431380     1.58021601    -2.30886045
      4      N     0.35574279     0.43379974    -2.67504024
      5      H     2.06562925     3.64572641    -1.26667783
      6      H     2.09292480     1.88470922    -0.96692207
      7      H     2.29280245     2.50806843    -2.62563533
      8      H    -1.17323810     1.61169239    -2.42020433
      9      H     1.37428320     0.48930261    -2.53126529

Total System Charge              0.00000

 *** GO1_GOStep11 ***

 Energy gradients wrt nuclear displacements
 ==========================================

     Atom      Cartesian (a.u./angstrom)
                 X         Y         Z
 ----------------------------------------
     1 C     0.000036 -0.000073  0.000055
     2 N    -0.000031  0.000037  0.000006
     3 N     0.000046  0.000003  0.000017
     4 N    -0.000058 -0.000003 -0.000013
     5 H     0.000028 -0.000021  0.000027
     6 H     0.000022 -0.000013 -0.000040
     7 H    -0.000018  0.000017 -0.000023
     8 H    -0.000008  0.000030  0.000034
     9 H    -0.000017  0.000022 -0.000062
 ----------------------------------------
 
---------------------------------------------------------
Geometry Convergence after Step  11       ** CONVERGED **
---------------------------------------------------------
current energy                               -1.76044091 Hartree
energy change                       0.00000016     0.00009000    T
constrained gradient max            0.00005780     0.00010000    T
constrained gradient rms            0.00002520     0.00006667    T
gradient max                        0.00005780
gradient rms                        0.00002520
cart. step max                      0.00039413     0.01000000    T
cart. step rms                      0.00015464     0.00666667    T
 
Geometry optimization converged

Optimized geometry:

--------
Geometry
--------
Formula: CH5N3
Atoms
  Index Symbol   x (angstrom)   y (angstrom)   z (angstrom)
      1      C     1.76704617     2.67467117    -1.66785705
      2      N     0.31642324     2.69897402    -1.83431740
      3      N    -0.15431380     1.58021601    -2.30886045
      4      N     0.35574279     0.43379974    -2.67504024
      5      H     2.06562925     3.64572641    -1.26667783
      6      H     2.09292480     1.88470922    -0.96692207
      7      H     2.29280245     2.50806843    -2.62563533
      8      H    -1.17323810     1.61169239    -2.42020433
      9      H     1.37428320     0.48930261    -2.53126529

Total System Charge              0.00000

Performing a single point calculation on the final geometry ...

 *** adf ***



 ===========================
 A T T A C H E D   F I L E S
 ===========================
  
 Restart/tmp/amstmp_c4_fragA_opt_kid0.1721646065/GO1_GOStep11.rkf*** GO1_GOStep11 ***



 ===============================
 M O D E L   P A R A M E T E R S
 ===============================
  
 DENSITY FUNCTIONAL POTENTIAL (scf)
    LDA:                               Exchange only                           == Not Default ==
    Gradient Corrections:              Becke88 LYP                             == Not Default ==

 SPIN  (restricted / unrestr.)
    Molecule:                          Restricted                               
    Fragments:                         Restricted                               

 OTHER ASPECTS
    Relativistic Corrections:          scalar (ZORA,MAPA)                       

    Nuclear Charge Density Model:      Point Charge Nuclei                      
    Core Treatment:                    Frozen Orbital(s)                        

    Hyperfine or Zeeman Interaction:   ---                                      

 Settings for Grimme D3 dispersion correction

      damping                        BJ
      s6                          1.000
      s8                          2.700
      a1                          0.430
      a2                          4.236

 Other (technical) parameters

      alpha                      14.000
      version                         4
 



 ===============
 G E O M E T R Y  ***  3D  Molecule  ***
 ===============
  

 ATOMS
 =====                            X Y Z                    CHARGE
                                (Angstrom)             Nucl     +Core       At.Mass
                       --------------------------    ----------------       -------
    1  C               1.7670    2.6747   -1.6679      6.00      6.00       12.0000
    2  N               0.3164    2.6990   -1.8343      7.00      7.00       14.0031
    3  N              -0.1543    1.5802   -2.3089      7.00      7.00       14.0031
    4  N               0.3557    0.4338   -2.6750      7.00      7.00       14.0031
    5  H               2.0656    3.6457   -1.2667      1.00      1.00        1.0078
    6  H               2.0929    1.8847   -0.9669      1.00      1.00        1.0078
    7  H               2.2928    2.5081   -2.6256      1.00      1.00        1.0078
    8  H              -1.1732    1.6117   -2.4202      1.00      1.00        1.0078
    9  H               1.3743    0.4893   -2.5313      1.00      1.00        1.0078


 FRAGMENTS
 =========                                     Atoms in this Fragment     Cart. coord.s (Angstrom)
                                               -------------------------------------------------------
    1  C                                                 1  C            1.7670    2.6747   -1.6679
    2  N                                                 2  N            0.3164    2.6990   -1.8343
    3  N                                                 3  N           -0.1543    1.5802   -2.3089
    4  N                                                 4  N            0.3557    0.4338   -2.6750
    5  H                                                 5  H            2.0656    3.6457   -1.2667
    6  H                                                 6  H            2.0929    1.8847   -0.9669
    7  H                                                 7  H            2.2928    2.5081   -2.6256
    8  H                                                 8  H           -1.1732    1.6117   -2.4202
    9  H                                                 9  H            1.3743    0.4893   -2.5313


 Interatomic Distance Matrix (Angstrom)
 --------------------------------------

   1)     0.000
   2)     1.460   0.000
   3)     2.302   1.303   0.000
   4)     2.833   2.416   1.307   0.000
   5)     1.092   2.068   3.206   3.902   0.000
   6)     1.105   2.138   2.635   2.836   1.787   0.000
   7)     1.105   2.137   2.636   2.839   1.787   1.783   0.000
   8)     3.216   1.935   1.025   1.947   3.995   3.585   3.586   0.000
   9)     2.382   2.547   1.891   1.030   3.470   2.216   2.220   2.786   0.000

 Min. Distance =    1.0255
 Max. Distance =    3.9948



 =====================================
 S Y M M E T R Y ,   E L E C T R O N S
 =====================================
  
 Symmetry: NOSYM

 Irreducible Representations, including subspecies
 -------------------------------------------------
 A


 Configuration of Valence Electrons
 ==================================
 ( determined in the SCF procedure )

 Total:   32

 Net Charge: 0 (Nuclei minus Electrons)

 Aufbau principle for MO occupations will be applied through SCF cycle no.     100
 Thereafter, the program will assign electrons to MOs that are spatially
 similar to the occupied MOs in a "reference" cycle ("KeepOrbitals").
 The reference cycle is always the PREVIOUS cycle: it will evolve with
 the SCF procedure.
 ***************************************************************************************************



                                      ****************************************
                                      *  B U I L D : (Fragments, Functions)  *
                                      ****************************************
  



 =======
 S F O s  ***  (Symmetrized Fragment Orbitals)  ***
 =======
  
 SFOs are linear combinations of (valence) Fragment Orbitals (FOs), such that the SFOs transform as the
 irreducible representations of the (molecular) symmetry group. Each SFO is therefore characterized by
 an irrep of the molecule and by a few (or only one) generating FOs.
 The SFOs constitute a symmetry-adapted basis for the Fock matrix. The MO eigenvector coefficients in
 this basis provide a direct interpretation of the MOs in terms of Frontier Orbital Theory.

 The SFOs are combined with auxiliary Core Functions (CFs) to ensure orthogonalization on the (frozen)
 Core Orbitals (COs). The Core-orthogonalized SFOs (CSFOs) constitute the true Fock basis.

 The FOs, and hence also the (C)SFOs are combinations of the elementary basis functions (BAS). The basis
 functions that participate in the description of the SFOs depend on the irrep. The indices of the
 involved functions are printed below for each irrep.
 (The complete list of primitive basis functions is printed in another section)

 Total nr. of (C)SFOs (summation over all irreps) :   159

 NOTE: a (C)SFO that is defined as a combination of more than one FO is usually NOT normalized.



                                       === A ===
 Nr. of SFOs :  159
 Cartesian basis functions that participate in this irrep (total number =   180) :
      1     2     3     4     5     6     9    12     7    10
     13     8    11    14    15    16    17    18    19    20
     21    22    23    24    25    26    27    28    29    30
     31    32    33    34    35    36    39    42    37    40
     43    38    41    44    45    46    47    48    49    50
     51    52    53    54    55    56    57    58    59    60
     61    62    63    64    65    66    69    72    67    70
     73    68    71    74    75    76    77    78    79    80
     81    82    83    84    85    86    87    88    89    90
     91    92    93    94    95    96    99   102    97   100
    103    98   101   104   105   106   107   108   109   110
    111   112   113   114   115   116   117   118   119   120
    121   122   123   124   125   126   127   128   129   130
    131   132   133   134   135   136   137   138   139   140
    141   142   143   144   145   146   147   148   149   150
    151   152   153   154   155   156   157   158   159   160
    161   162   163   164   165   166   167   168   169   170
    171   172   173   174   175   176   177   178   179   180

    SFO  (index         Fragment          Generating    Expansion in Fragment Orbitals
  indx  incl.CFs)   Occup   Orb.Energy   FragmentType  Coeff.   Orbital     on Fragment
 --------------------------------------------------------------------------------------
     1       1      2.000     -10.066 au  C             1.00      1 S               1
                        (    -273.921 eV)
     2       2      2.000      -0.501 au  C             1.00      2 S               1
                        (     -13.620 eV)
     3       3       --         0.373 au  C             1.00      3 S               1
                        (      10.158 eV)
     4       4       --         5.405 au  C             1.00      4 S               1
                        (     147.073 eV)
     5       5       --        49.848 au  C             1.00      5 S               1
                        (    1356.422 eV)
     6       6      0.667      -0.193 au  C             1.00      1 P:x             1
                        (      -5.239 eV)
     7       7       --         0.169 au  C             1.00      2 P:x             1
                        (       4.589 eV)
     8       8       --         2.013 au  C             1.00      3 P:x             1
                        (      54.789 eV)
     9       9      0.667      -0.193 au  C             1.00      1 P:y             1
                        (      -5.239 eV)
    10      10       --         0.169 au  C             1.00      2 P:y             1
                        (       4.589 eV)
    11      11       --         2.013 au  C             1.00      3 P:y             1
                        (      54.789 eV)
    12      12      0.667      -0.193 au  C             1.00      1 P:z             1
                        (      -5.239 eV)
    13      13       --         0.169 au  C             1.00      2 P:z             1
                        (       4.589 eV)
    14      14       --         2.013 au  C             1.00      3 P:z             1
                        (      54.789 eV)
    15      15       --         1.243 au  C             1.00      1 D:z2            1
                        (      33.824 eV)
    16      16       --         1.243 au  C             1.00      1 D:x2-y2         1
                        (      33.824 eV)
    17      17       --         1.243 au  C             1.00      1 D:xy            1
                        (      33.824 eV)
    18      18       --         1.243 au  C             1.00      1 D:xz            1
                        (      33.824 eV)
    19      19       --         1.243 au  C             1.00      1 D:yz            1
                        (      33.824 eV)
    20      20       --         4.016 au  C             1.00      1 F:z3            1
                        (     109.271 eV)
    21      21       --         4.016 au  C             1.00      1 F:z             1
                        (     109.271 eV)
    22      22       --         4.016 au  C             1.00      1 F:xyz           1
                        (     109.271 eV)
    23      23       --         4.016 au  C             1.00      1 F:z2x           1
                        (     109.271 eV)
    24      24       --         4.016 au  C             1.00      1 F:z2y           1
                        (     109.271 eV)
    25      25       --         4.016 au  C             1.00      1 F:x             1
                        (     109.271 eV)
    26      26       --         4.016 au  C             1.00      1 F:y             1
                        (     109.271 eV)
    27      27      2.000     -14.160 au  N             1.00      1 S               2
                        (    -385.319 eV)
    28      28      2.000      -0.678 au  N             1.00      2 S               2
                        (     -18.450 eV)
    29      29       --         0.517 au  N             1.00      3 S               2
                        (      14.073 eV)
    30      30       --         6.872 au  N             1.00      4 S               2
                        (     186.990 eV)
    31      31       --        63.432 au  N             1.00      5 S               2
                        (    1726.082 eV)
    32      32      1.000      -0.260 au  N             1.00      1 P:x             2
                        (      -7.062 eV)
    33      33       --         0.281 au  N             1.00      2 P:x             2
                        (       7.649 eV)
    34      34       --         3.275 au  N             1.00      3 P:x             2
                        (      89.105 eV)
    35      35      1.000      -0.260 au  N             1.00      1 P:y             2
                        (      -7.062 eV)
    36      36       --         0.281 au  N             1.00      2 P:y             2
                        (       7.649 eV)
    37      37       --         3.275 au  N             1.00      3 P:y             2
                        (      89.105 eV)
    38      38      1.000      -0.260 au  N             1.00      1 P:z             2
                        (      -7.062 eV)
    39      39       --         0.281 au  N             1.00      2 P:z             2
                        (       7.649 eV)
    40      40       --         3.275 au  N             1.00      3 P:z             2
                        (      89.105 eV)
    41      41       --         1.250 au  N             1.00      1 D:z2            2
                        (      34.005 eV)
    42      42       --         1.250 au  N             1.00      1 D:x2-y2         2
                        (      34.005 eV)
    43      43       --         1.250 au  N             1.00      1 D:xy            2
                        (      34.005 eV)
    44      44       --         1.250 au  N             1.00      1 D:xz            2
                        (      34.005 eV)
    45      45       --         1.250 au  N             1.00      1 D:yz            2
                        (      34.005 eV)
    46      46       --         4.013 au  N             1.00      1 F:z3            2
                        (     109.190 eV)
    47      47       --         4.013 au  N             1.00      1 F:z             2
                        (     109.190 eV)
    48      48       --         4.013 au  N             1.00      1 F:xyz           2
                        (     109.190 eV)
    49      49       --         4.013 au  N             1.00      1 F:z2x           2
                        (     109.190 eV)
    50      50       --         4.013 au  N             1.00      1 F:z2y           2
                        (     109.190 eV)
    51      51       --         4.013 au  N             1.00      1 F:x             2
                        (     109.190 eV)
    52      52       --         4.013 au  N             1.00      1 F:y             2
                        (     109.190 eV)
    53      53      2.000     -14.160 au  N             1.00      1 S               3
                        (    -385.319 eV)
    54      54      2.000      -0.678 au  N             1.00      2 S               3
                        (     -18.450 eV)
    55      55       --         0.517 au  N             1.00      3 S               3
                        (      14.073 eV)
    56      56       --         6.872 au  N             1.00      4 S               3
                        (     186.990 eV)
    57      57       --        63.432 au  N             1.00      5 S               3
                        (    1726.082 eV)
    58      58      1.000      -0.260 au  N             1.00      1 P:x             3
                        (      -7.062 eV)
    59      59       --         0.281 au  N             1.00      2 P:x             3
                        (       7.649 eV)
    60      60       --         3.275 au  N             1.00      3 P:x             3
                        (      89.105 eV)
    61      61      1.000      -0.260 au  N             1.00      1 P:y             3
                        (      -7.062 eV)
    62      62       --         0.281 au  N             1.00      2 P:y             3
                        (       7.649 eV)
    63      63       --         3.275 au  N             1.00      3 P:y             3
                        (      89.105 eV)
    64      64      1.000      -0.260 au  N             1.00      1 P:z             3
                        (      -7.062 eV)
    65      65       --         0.281 au  N             1.00      2 P:z             3
                        (       7.649 eV)
    66      66       --         3.275 au  N             1.00      3 P:z             3
                        (      89.105 eV)
    67      67       --         1.250 au  N             1.00      1 D:z2            3
                        (      34.005 eV)
    68      68       --         1.250 au  N             1.00      1 D:x2-y2         3
                        (      34.005 eV)
    69      69       --         1.250 au  N             1.00      1 D:xy            3
                        (      34.005 eV)
    70      70       --         1.250 au  N             1.00      1 D:xz            3
                        (      34.005 eV)
    71      71       --         1.250 au  N             1.00      1 D:yz            3
                        (      34.005 eV)
    72      72       --         4.013 au  N             1.00      1 F:z3            3
                        (     109.190 eV)
    73      73       --         4.013 au  N             1.00      1 F:z             3
                        (     109.190 eV)
    74      74       --         4.013 au  N             1.00      1 F:xyz           3
                        (     109.190 eV)
    75      75       --         4.013 au  N             1.00      1 F:z2x           3
                        (     109.190 eV)
    76      76       --         4.013 au  N             1.00      1 F:z2y           3
                        (     109.190 eV)
    77      77       --         4.013 au  N             1.00      1 F:x             3
                        (     109.190 eV)
    78      78       --         4.013 au  N             1.00      1 F:y             3
                        (     109.190 eV)
    79      79      2.000     -14.160 au  N             1.00      1 S               4
                        (    -385.319 eV)
    80      80      2.000      -0.678 au  N             1.00      2 S               4
                        (     -18.450 eV)
    81      81       --         0.517 au  N             1.00      3 S               4
                        (      14.073 eV)
    82      82       --         6.872 au  N             1.00      4 S               4
                        (     186.990 eV)
    83      83       --        63.432 au  N             1.00      5 S               4
                        (    1726.082 eV)
    84      84      1.000      -0.260 au  N             1.00      1 P:x             4
                        (      -7.062 eV)
    85      85       --         0.281 au  N             1.00      2 P:x             4
                        (       7.649 eV)
    86      86       --         3.275 au  N             1.00      3 P:x             4
                        (      89.105 eV)
    87      87      1.000      -0.260 au  N             1.00      1 P:y             4
                        (      -7.062 eV)
    88      88       --         0.281 au  N             1.00      2 P:y             4
                        (       7.649 eV)
    89      89       --         3.275 au  N             1.00      3 P:y             4
                        (      89.105 eV)
    90      90      1.000      -0.260 au  N             1.00      1 P:z             4
                        (      -7.062 eV)
    91      91       --         0.281 au  N             1.00      2 P:z             4
                        (       7.649 eV)
    92      92       --         3.275 au  N             1.00      3 P:z             4
                        (      89.105 eV)
    93      93       --         1.250 au  N             1.00      1 D:z2            4
                        (      34.005 eV)
    94      94       --         1.250 au  N             1.00      1 D:x2-y2         4
                        (      34.005 eV)
    95      95       --         1.250 au  N             1.00      1 D:xy            4
                        (      34.005 eV)
    96      96       --         1.250 au  N             1.00      1 D:xz            4
                        (      34.005 eV)
    97      97       --         1.250 au  N             1.00      1 D:yz            4
                        (      34.005 eV)
    98      98       --         4.013 au  N             1.00      1 F:z3            4
                        (     109.190 eV)
    99      99       --         4.013 au  N             1.00      1 F:z             4
                        (     109.190 eV)
   100     100       --         4.013 au  N             1.00      1 F:xyz           4
                        (     109.190 eV)
   101     101       --         4.013 au  N             1.00      1 F:z2x           4
                        (     109.190 eV)
   102     102       --         4.013 au  N             1.00      1 F:z2y           4
                        (     109.190 eV)
   103     103       --         4.013 au  N             1.00      1 F:x             4
                        (     109.190 eV)
   104     104       --         4.013 au  N             1.00      1 F:y             4
                        (     109.190 eV)
   105     105      1.000      -0.240 au  H             1.00      1 S               5
                        (      -6.532 eV)
   106     106       --         0.088 au  H             1.00      2 S               5
                        (       2.394 eV)
   107     107       --         1.502 au  H             1.00      3 S               5
                        (      40.869 eV)
   108     108       --         0.406 au  H             1.00      1 P:x             5
                        (      11.051 eV)
   109     109       --         0.406 au  H             1.00      1 P:y             5
                        (      11.051 eV)
   110     110       --         0.406 au  H             1.00      1 P:z             5
                        (      11.051 eV)
   111     111       --         2.569 au  H             1.00      1 D:z2            5
                        (      69.917 eV)
   112     112       --         2.569 au  H             1.00      1 D:x2-y2         5
                        (      69.917 eV)
   113     113       --         2.569 au  H             1.00      1 D:xy            5
                        (      69.917 eV)
   114     114       --         2.569 au  H             1.00      1 D:xz            5
                        (      69.917 eV)
   115     115       --         2.569 au  H             1.00      1 D:yz            5
                        (      69.917 eV)
   116     116      1.000      -0.240 au  H             1.00      1 S               6
                        (      -6.532 eV)
   117     117       --         0.088 au  H             1.00      2 S               6
                        (       2.394 eV)
   118     118       --         1.502 au  H             1.00      3 S               6
                        (      40.869 eV)
   119     119       --         0.406 au  H             1.00      1 P:x             6
                        (      11.051 eV)
   120     120       --         0.406 au  H             1.00      1 P:y             6
                        (      11.051 eV)
   121     121       --         0.406 au  H             1.00      1 P:z             6
                        (      11.051 eV)
   122     122       --         2.569 au  H             1.00      1 D:z2            6
                        (      69.917 eV)
   123     123       --         2.569 au  H             1.00      1 D:x2-y2         6
                        (      69.917 eV)
   124     124       --         2.569 au  H             1.00      1 D:xy            6
                        (      69.917 eV)
   125     125       --         2.569 au  H             1.00      1 D:xz            6
                        (      69.917 eV)
   126     126       --         2.569 au  H             1.00      1 D:yz            6
                        (      69.917 eV)
   127     127      1.000      -0.240 au  H             1.00      1 S               7
                        (      -6.532 eV)
   128     128       --         0.088 au  H             1.00      2 S               7
                        (       2.394 eV)
   129     129       --         1.502 au  H             1.00      3 S               7
                        (      40.869 eV)
   130     130       --         0.406 au  H             1.00      1 P:x             7
                        (      11.051 eV)
   131     131       --         0.406 au  H             1.00      1 P:y             7
                        (      11.051 eV)
   132     132       --         0.406 au  H             1.00      1 P:z             7
                        (      11.051 eV)
   133     133       --         2.569 au  H             1.00      1 D:z2            7
                        (      69.917 eV)
   134     134       --         2.569 au  H             1.00      1 D:x2-y2         7
                        (      69.917 eV)
   135     135       --         2.569 au  H             1.00      1 D:xy            7
                        (      69.917 eV)
   136     136       --         2.569 au  H             1.00      1 D:xz            7
                        (      69.917 eV)
   137     137       --         2.569 au  H             1.00      1 D:yz            7
                        (      69.917 eV)
   138     138      1.000      -0.240 au  H             1.00      1 S               8
                        (      -6.532 eV)
   139     139       --         0.088 au  H             1.00      2 S               8
                        (       2.394 eV)
   140     140       --         1.502 au  H             1.00      3 S               8
                        (      40.869 eV)
   141     141       --         0.406 au  H             1.00      1 P:x             8
                        (      11.051 eV)
   142     142       --         0.406 au  H             1.00      1 P:y             8
                        (      11.051 eV)
   143     143       --         0.406 au  H             1.00      1 P:z             8
                        (      11.051 eV)
   144     144       --         2.569 au  H             1.00      1 D:z2            8
                        (      69.917 eV)
   145     145       --         2.569 au  H             1.00      1 D:x2-y2         8
                        (      69.917 eV)
   146     146       --         2.569 au  H             1.00      1 D:xy            8
                        (      69.917 eV)
   147     147       --         2.569 au  H             1.00      1 D:xz            8
                        (      69.917 eV)
   148     148       --         2.569 au  H             1.00      1 D:yz            8
                        (      69.917 eV)
   149     149      1.000      -0.240 au  H             1.00      1 S               9
                        (      -6.532 eV)
   150     150       --         0.088 au  H             1.00      2 S               9
                        (       2.394 eV)
   151     151       --         1.502 au  H             1.00      3 S               9
                        (      40.869 eV)
   152     152       --         0.406 au  H             1.00      1 P:x             9
                        (      11.051 eV)
   153     153       --         0.406 au  H             1.00      1 P:y             9
                        (      11.051 eV)
   154     154       --         0.406 au  H             1.00      1 P:z             9
                        (      11.051 eV)
   155     155       --         2.569 au  H             1.00      1 D:z2            9
                        (      69.917 eV)
   156     156       --         2.569 au  H             1.00      1 D:x2-y2         9
                        (      69.917 eV)
   157     157       --         2.569 au  H             1.00      1 D:xy            9
                        (      69.917 eV)
   158     158       --         2.569 au  H             1.00      1 D:xz            9
                        (      69.917 eV)
   159     159       --         2.569 au  H             1.00      1 D:yz            9
                        (      69.917 eV)



 ================================
 (Slater-type)  F U N C T I O N S  ***  (Basis and Fit)  ***
 ================================
  

 Atom Type    1  (C)
 ==============

 Valence Basis Sets:  10
 -----------------------
   1 S    7.680000
   1 S    5.000000
   2 S    1.280000
   2 S    2.100000
   2 S    4.600000
   2 P    0.820000
   2 P    1.480000
   2 P    2.940000
   3 D    2.200000
   4 F    3.300000

 Atom Type    2  (N)
 ==============

 Valence Basis Sets:  10
 -----------------------
   1 S    8.740000
   1 S    5.900000
   2 S    5.150000
   2 S    2.500000
   2 S    1.500000
   2 P    3.680000
   2 P    1.880000
   2 P    1.000000
   3 D    2.200000
   4 F    3.300000

 Atom Type    3  (H)
 ==============

 Valence Basis Sets:   5
 -----------------------
   1 S    0.690000
   1 S    0.920000
   1 S    1.580000
   2 P    1.250000
   3 D    2.500000


 BAS: List of all Elementary Cartesian Basis Functions
 =====================================================

 The numbering in the list below (to the right of the function characteristics) is referred
 to in print-outs of MO eigenvectors and Mulliken populations in the BAS representation
 (as contrasted to the SFO representation).

 Notes:
 1. The functions are characterized by a polynomial prefactor (powers of x,y,z and r) and
    an exponential decay factor alpha.
 2. Since the basis sets are specific for an atom TYPE, the individual functions occur on
    all atoms of that type.
 3. The word 'Core' in the left margin signals that it is a Core Function (CF) : not a
    degree of freedom in the valence set, but only used to ensure orthogonalization of
    the other valence basis functions on the frozen Core Orbitals.


 (power of) X  Y  Z  R     Alpha  on Atom
            ==========     =====     ==========

 C                                    1
                                  ---------------------------------------------------------------------------
            0  0  0  0     7.680      1
            0  0  0  0     5.000      2
            0  0  0  1     1.280      3
            0  0  0  1     2.100      4
            0  0  0  1     4.600      5
            1  0  0  0     0.820      6
            0  1  0  0     0.820      7
            0  0  1  0     0.820      8
            1  0  0  0     1.480      9
            0  1  0  0     1.480     10
            0  0  1  0     1.480     11
            1  0  0  0     2.940     12
            0  1  0  0     2.940     13
            0  0  1  0     2.940     14
            2  0  0  0     2.200     15
            1  1  0  0     2.200     16
            1  0  1  0     2.200     17
            0  2  0  0     2.200     18
            0  1  1  0     2.200     19
            0  0  2  0     2.200     20
            3  0  0  0     3.300     21
            2  1  0  0     3.300     22
            2  0  1  0     3.300     23
            1  2  0  0     3.300     24
            1  1  1  0     3.300     25
            1  0  2  0     3.300     26
            0  3  0  0     3.300     27
            0  2  1  0     3.300     28
            0  1  2  0     3.300     29
            0  0  3  0     3.300     30

 N                                    2    3    4
                                  ---------------------------------------------------------------------------
            0  0  0  0     8.740     31   61   91
            0  0  0  0     5.900     32   62   92
            0  0  0  1     5.150     33   63   93
            0  0  0  1     2.500     34   64   94
            0  0  0  1     1.500     35   65   95
            1  0  0  0     3.680     36   66   96
            0  1  0  0     3.680     37   67   97
            0  0  1  0     3.680     38   68   98
            1  0  0  0     1.880     39   69   99
            0  1  0  0     1.880     40   70  100
            0  0  1  0     1.880     41   71  101
            1  0  0  0     1.000     42   72  102
            0  1  0  0     1.000     43   73  103
            0  0  1  0     1.000     44   74  104
            2  0  0  0     2.200     45   75  105
            1  1  0  0     2.200     46   76  106
            1  0  1  0     2.200     47   77  107
            0  2  0  0     2.200     48   78  108
            0  1  1  0     2.200     49   79  109
            0  0  2  0     2.200     50   80  110
            3  0  0  0     3.300     51   81  111
            2  1  0  0     3.300     52   82  112
            2  0  1  0     3.300     53   83  113
            1  2  0  0     3.300     54   84  114
            1  1  1  0     3.300     55   85  115
            1  0  2  0     3.300     56   86  116
            0  3  0  0     3.300     57   87  117
            0  2  1  0     3.300     58   88  118
            0  1  2  0     3.300     59   89  119
            0  0  3  0     3.300     60   90  120

 H                                    5    6    7    8    9
                                  ---------------------------------------------------------------------------
            0  0  0  0     0.690    121  133  145  157  169
            0  0  0  0     0.920    122  134  146  158  170
            0  0  0  0     1.580    123  135  147  159  171
            1  0  0  0     1.250    124  136  148  160  172
            0  1  0  0     1.250    125  137  149  161  173
            0  0  1  0     1.250    126  138  150  162  174
            2  0  0  0     2.500    127  139  151  163  175
            1  1  0  0     2.500    128  140  152  164  176
            1  0  1  0     2.500    129  141  153  165  177
            0  2  0  0     2.500    130  142  154  166  178
            0  1  1  0     2.500    131  143  155  167  179
            0  0  2  0     2.500    132  144  156  168  180

 Total number of charge fitting functions (nprimf)       586
 Total number of Cartesian basis functions (naos)        180
 Total number of Cartesian core functions  (ncos)          0

 ***************************************************************************************************



                                              ***********************
                                              *  T E C H N I C A L  *
                                              ***********************
  



 =============================================================
 P A R A L L E L I Z A T I O N  and  V E C T O R I Z A T I O N
 =============================================================
  
 Nr of parallel processes:                                1
 Maximum vector length in NumInt loops:                 128



 =====================
 S C F   U P D A T E S
 =====================
  
 Max. nr. of cycles:                               200
 Convergence criterion:                              0.0000010000
   secondary criterion:                              0.0010000000

 Mix parameter (when DIIS does not apply):           0.2000000000
 Mixed ADIIS+SDIIS will be used                  
    Max number of expansion vectors:                10
    Pure ADIIS when Max([F,P]) is above              0.1000000000
    Pure SDIIS when Max([F,P]) is below              0.0010000000
 Automatic ElectronSmearing (in case of problematic SCF convergence) disabled



 =================
 P R E C I S I O N  ***  (General: NumInt, NeglectFunctionTails, ...)  ***
 =================
  

 NumInt:           Target precision:                 4.0000000000
 -------           Initial precision:                4.0000000000
                   Min. precision (optimization):    4.0000000000

 Neglect Functions:          Basis functions:        0.1000000000E-05
 ------------------          Fit functions:          0.1000000000E-05



 ===========================
 L I N E A R   S C A L I N G
 ===========================
  

 Cut-off radii density fit:                        0.1000000000E-07
 Overlap cut-off criterion AO matrix elements:     0.1000000000E-05
 Cut-offs for Coulomb potential and fitted density:0.1000000000E-07
 Cut-off criterion for Coulomb multipole terms:    0.1000000000E-07
 Progressive Convergence parameter:                 0.000000000    

 Number of elements of the density matrix on this node (used, total):     16290     16290



 ===========================================
 Numerical Integration : Fuzzy Cells (Becke)
 ===========================================
  
 Becke grid quality: NORMAL         
  
 Lebedev angular grid order:             min:  11 max:  23
 Nr. of radial points:                   min:  46 max:  52

 Total nr. of points:      57943
 Nr. of blocks:              453
 Block length:               128
 Nr. of dummy points:         41


 Test of Precision of the Numerical Integration Grid
 ===================================================

 Integral of the Total Core Density:                   0.00000000000000



 ========================
 Density Fitting (zlmFit)
 ========================
  
 ZlmFit Fit Quality: NORMAL         
  
 Max L-expansion:                        min:   6 max:   7
 Nr. of radial interpolation points:     min:  39 max:  48



 =====
 S C F  ***  ScaSCF  ***
 =====
  
 Initial density matrix is taken from previous geometry

 CYCLE    1
  ***********************************************************
  ** : orbital data taken from :/tmp/amstmp_c4_fragA_opt_kid0.1721646065/GO1_GOStep11.rkf
  ***********************************************************
 SCF Error: norm([F,P])=      0.000000111994, max([F,P])=      0.000000028481
 orbitals (Q,E):
 ---------------
 A :7...26           ( 2.00    -0.6957)  ( 2.00    -0.5894)  ( 2.00    -0.4799)  ( 2.00    -0.4583)
                     ( 2.00    -0.4271)  ( 2.00    -0.3727)  ( 2.00    -0.3629)  ( 2.00    -0.2806)
                     ( 2.00    -0.2439)  ( 2.00    -0.2089)  ( 0.00    -0.0742)  ( 0.00    -0.0123)
                     ( 0.00    -0.0054)  ( 0.00     0.0358)  ( 0.00     0.0478)  ( 0.00     0.0664)
                     ( 0.00     0.0734)  ( 0.00     0.1429)  ( 0.00     0.1599)  ( 0.00     0.2130)

 CYCLE    2
  SDIIS (wt  0.000):  0.5861  0.4139
 A-DIIS (wt  1.000):  0.0000  1.0000
  DIIS coefficients:  0.0000  1.0000
 SCF Error: norm([F,P])=      0.000000158013, max([F,P])=      0.000000037804
 orbitals (Q,E):
 ---------------
 A :7...17           ( 2.00    -0.6957)  ( 2.00    -0.5894)  ( 2.00    -0.4799)  ( 2.00    -0.4583)
                     ( 2.00    -0.4271)  ( 2.00    -0.3727)  ( 2.00    -0.3629)  ( 2.00    -0.2806)
                     ( 2.00    -0.2439)  ( 2.00    -0.2089)  ( 0.00    -0.0742)

 SCF CONVERGED

 CYCLE    3
 ***************************************************************************************************



                                                *******************
                                                *  R E S U L T S  *
                                                *******************
  
 *** Using FIT density in Focky
  SDIIS (wt  0.000):  1.6100 -0.6100
 A-DIIS (wt  1.000):  0.0000  1.0000
  DIIS coefficients:  0.0000  1.0000
 SCF Error: norm([F,P])=      0.000000242237, max([F,P])=      0.000000051506

 Scaled ZORA Orbital Energies, per Irrep and Spin:
 =================================================
                        Occup              E (au)              E (eV)       Diff (eV) with prev. cycle
                        -----      --------------------        ------       --------------------------
 A
               7        2.000     -0.69570394603542E+00       -18.931              -1.84E-06
               8        2.000     -0.58943418258829E+00       -16.039              -1.50E-06
               9        2.000     -0.47993261644968E+00       -13.060              -1.73E-06
              10        2.000     -0.45831999260398E+00       -12.472              -1.94E-06
              11        2.000     -0.42714599074037E+00       -11.623              -1.86E-06
              12        2.000     -0.37267058067542E+00       -10.141              -1.52E-06
              13        2.000     -0.36294891246466E+00        -9.876              -1.48E-06
              14        2.000     -0.28061354829093E+00        -7.636              -1.65E-06
              15        2.000     -0.24385301454111E+00        -6.636              -2.10E-06
              16        2.000     -0.20885565505307E+00        -5.683              -2.02E-06
              17        0.000     -0.74214579560337E-01        -2.019
              18        0.000     -0.12337276051401E-01        -0.336
              19        0.000     -0.54327855501864E-02        -0.148
              20        0.000      0.35830251099650E-01         0.975
              21        0.000      0.47831696003165E-01         1.302
              22        0.000      0.66394137789455E-01         1.807
              23        0.000      0.73385093787695E-01         1.997
              24        0.000      0.14288134681393E+00         3.888
              25        0.000      0.15992436454550E+00         4.352
              26        0.000      0.21298747458007E+00         5.796
  
 HOMO :       16 A                -0.20885565505307E+00
 LUMO :       17 A                -0.74214579560337E-01
  


 All Electron Calculation, thus no Orbital Energies of the Core Orbitals are calculated


 Fit test: (difference of exact and fit density, squared integrated, result summed over spins)
         Sum-of-Fragments:                             0.00000000009134
         Orthogonalized Fragments:                     0.00004357880788
         SCF:                                          0.00010600197497



 ==========================
 Electron Density at Nuclei
 ==========================
  
 The electron density is calculated at points on a small sphere around the center of a nucleus.
 The printed electron density is the average electron density on these points.
 The radius of the sphere is the printed approximate finite nuclear radius.
 Note: ZORA-4 density is used, which includes small component density

         Atom        Nuclear Radius (Angstrom)             Electron Density (a.u.)
         ----        -------------------------             -----------------------
     1)   C                 0.0000320678                              127.00318
     2)   N                 0.0000333706                              206.53002
     3)   N                 0.0000333706                              206.05578
     4)   N                 0.0000333706                              206.54476
     5)   H                 0.0000181514                                0.51027
     6)   H                 0.0000181514                                0.50417
     7)   H                 0.0000181514                                0.50415
     8)   H                 0.0000181514                                0.49611
     9)   H                 0.0000181514                                0.49900



 =======================================
 M U L L I K E N   P O P U L A T I O N S
 =======================================
  
 The survey below gives for each atom:
 a) the total charge (Z minus electrons)
 b) the net spin polarization (nr of electrons spin-A minus spin-B)
 c) for each spin the atomic electron valence density (integrated) per L-value.

 Atom              Charge    Spin density          S         P         D         F
 ----              ------    ------------       ------    ------    ------    ------
 1 C               0.7335                       2.7879    2.4201    0.0553    0.0033
 2 N              -0.2693                       3.6291    3.5557    0.0781    0.0065
 3 N               0.3280                       3.2633    3.2599    0.1406    0.0082
 4 N              -0.2298                       3.5864    3.5782    0.0600    0.0051
 5 H              -0.2235                       1.1411    0.0766    0.0058    0.0000
 6 H              -0.1810                       1.0930    0.0819    0.0061    0.0000
 7 H              -0.1807                       1.0928    0.0819    0.0061    0.0000
 8 H               0.0217                       0.8752    0.0932    0.0100    0.0000
 9 H               0.0011                       0.8646    0.1254    0.0089    0.0000

 Populations of individual BAS functions
 ----------------------------------------
 1 C            0.5069  1.4834 -0.0931  0.9360 -0.0453 -0.0868 -0.1842 -0.1699  0.6582  0.8266
                0.8011  0.1732  0.2027  0.1992  0.0150  0.0110  0.0149  0.0047  0.0074  0.0023
                0.0049  0.0007  0.0019 -0.0021  0.0002 -0.0015 -0.0001  0.0003  0.0003 -0.0012
 2 N            0.5474  1.4323 -0.0250  0.9875  0.6869  0.1766  0.1786  0.1746  0.7969  0.7380
                0.7236  0.1809  0.2549  0.3315  0.0238  0.0175  0.0099  0.0112  0.0153  0.0004
                0.0065  0.0008  0.0029 -0.0002  0.0007 -0.0046  0.0044  0.0040 -0.0029 -0.0051
 3 N            0.5504  1.4321 -0.0401  1.0243  0.2964  0.1857  0.1728  0.1749  0.9034  0.8497
                0.8482 -0.0623 -0.0234  0.2109  0.0278  0.0272  0.0065  0.0488  0.0360 -0.0059
                0.0014 -0.0009  0.0015  0.0048  0.0012 -0.0042  0.0087  0.0070 -0.0045 -0.0067
 4 N            0.5475  1.4319 -0.0257  0.9978  0.6350  0.1826  0.1749  0.1804  0.8025  0.7244
                0.7386  0.1428  0.2613  0.3709  0.0195  0.0110  0.0035  0.0141  0.0142 -0.0021
                0.0047 -0.0010  0.0015  0.0011  0.0006 -0.0041  0.0061  0.0044 -0.0034 -0.0048
 5 H            0.1753  0.6620  0.3038  0.0147  0.0363  0.0256 -0.0046  0.0014  0.0004  0.0102
                0.0016 -0.0032
 6 H            0.1055  0.6772  0.3103  0.0197  0.0345  0.0276 -0.0042  0.0009  0.0009  0.0047
                0.0013  0.0024
 7 H            0.1051  0.6774  0.3103  0.0217  0.0271  0.0331 -0.0011  0.0005  0.0015 -0.0055
                0.0017  0.0090
 8 H           -0.0613  0.6229  0.3136  0.0438  0.0223  0.0271  0.0158  0.0031  0.0029 -0.0068
                0.0004 -0.0055
 9 H           -0.1117  0.6520  0.3243  0.0463  0.0353  0.0438  0.0142  0.0028  0.0028 -0.0050
                0.0002 -0.0061

 Gross Charges per Atom (Z minus electrons)
 ==========================================
             0.7335   -0.2693    0.3280   -0.2298   -0.2235   -0.1810   -0.1807    0.0217    0.0011
 Net Total: -0.00000000


 Atom-Atom Population Matrix (off-diagonal elements not doubled)
 ===============================================================

     1 :     3.8456
     2 :     0.4056    6.7617
     3 :    -0.0484    0.4508    5.4775
     4 :    -0.0102   -0.1013    0.4552    6.4916
     5 :     0.3446   -0.0447    0.0017    0.0012    1.0623
     6 :     0.3592   -0.0427   -0.0193    0.0079   -0.0676    1.0369
     7 :     0.3593   -0.0427   -0.0192    0.0079   -0.0678   -0.0919    1.0367
     8 :    -0.0025   -0.0892    0.4394   -0.0788   -0.0029   -0.0026   -0.0026    0.7191
     9 :     0.0133   -0.0283   -0.0659    0.4562   -0.0034    0.0011    0.0010   -0.0015    0.6264



 =================================================
 H I R S H F E L D   C H A R G E   A N A L Y S I S
 =================================================
  
 For each fragment: the (numerical) integral of rho(scf) * rho(fragment)/rho(sum-of-fragments)
 (nuclear charges are included, electrons are counted negative)

 The fragments and their ordering are defined in the early G E O M E T R Y output section.
 If you use single-atom fragments, this usually implies that all atoms of the same
 chemical type are grouped together. This may not be the order in which you listed them
 in the input file!

  Fragment                       Charge
 ------------------------------------------
    1  C                        -0.0682
    2  N                        -0.1486
    3  N                         0.0783
    4  N                        -0.2218
    5  H                         0.0496
    6  H                         0.0384
    7  H                         0.0384
    8  H                         0.1524
    9  H                         0.0814

 Sum of these charges =         -0.00000809
 (accuracy NumInt/Tails)



 =============================
 V O R O N O I   C H A R G E S
 =============================
  
 For each atom: the (numerical) integral of the total electronic charge density in its Voronoi cell,
 i.e. the region of space that is closer to that atom than to any other atom.
 (cf. Wigner-Seitz cells in crystals)

 Within the Voronoi cell the subintegrals over the atomic sphere and the remaining part are evaluated
 separately to give the numbers of electrons (negative charge) in these regions.
 The net total charge in the cell (including the nuclear charge) is also given.

 Values are provided for
    a) the Initial (sum-of-fragments) density
    b) the Orthogonalized-Fragments density
    c) the SCF density
    d) the Voronoi Deformation Density (VDD): the difference SCF-Initial for the complete atomic cell

  Atom                Initial                    OrthFrag                   SCF
             Sphere RestCell NetTotal   Sphere RestCell NetTotal   Sphere RestCell NetTotal      VDD
 -------     ------------------------   ------------------------   ------------------------    -----
    1 C      -2.272   -2.236    1.492   -2.448   -2.475    1.077   -2.304   -2.254    1.442   -0.049
    2 N      -2.323   -4.696   -0.019   -2.441   -4.564   -0.005   -2.338   -4.879   -0.218   -0.199
    3 N      -2.330   -4.090    0.580   -2.502   -4.061    0.437   -2.344   -3.993    0.662    0.083
    4 N      -2.323   -4.168    0.509   -2.427   -4.195    0.378   -2.339   -4.396    0.265   -0.244
    5 H      -0.075   -1.423   -0.499   -0.098   -1.277   -0.375   -0.110   -1.334   -0.445    0.054
    6 H      -0.075   -1.401   -0.476   -0.099   -1.250   -0.349   -0.109   -1.333   -0.442    0.034
    7 H      -0.075   -1.392   -0.466   -0.099   -1.244   -0.343   -0.108   -1.327   -0.435    0.031
    8 H      -0.079   -1.491   -0.569   -0.089   -1.342   -0.430   -0.107   -1.261   -0.369    0.200
    9 H      -0.079   -1.473   -0.551   -0.094   -1.296   -0.391   -0.108   -1.353   -0.461    0.090
 ---------------------------------------------------------------------------------------------------
[...]
                                    2.15%     1 S              -6.532  1.00     7 H
                                    1.83%     1 D:x2-y2        34.005  0.00     3 N
                                    1.71%     2 S               2.394  0.00     9 H
                                    1.70%     2 S             -18.450  2.00     3 N
                                    1.57%     1 P:y            -7.062  1.00     2 N
                                    1.30%     1 S              -6.532  1.00     5 H
                                    1.28%     2 P:x             4.589  0.00     1 C
                                    1.01%     1 P:y            -5.239  0.67     1 C
      -6.636  2.00    15 A         26.70%     1 P:y            -7.062  1.00     2 N
                                   19.01%     1 P:y            -7.062  1.00     4 N
                                   14.95%     1 P:x            -7.062  1.00     2 N
                                    7.98%     2 S             -18.450  2.00     2 N
                                    5.45%     2 P:y             7.649  0.00     3 N
                                    4.39%     1 P:x            -7.062  1.00     4 N
                                    3.96%     2 S             -18.450  2.00     4 N
                                    3.54%     1 P:z            -7.062  1.00     4 N
                                    2.14%     1 P:z            -7.062  1.00     2 N
                                    1.73%     1 S              -6.532  1.00     6 H
                                    1.72%     1 S              -6.532  1.00     7 H
                                    1.71%     1 P:x            -5.239  0.67     1 C
                                    1.12%     1 S              -6.532  1.00     9 H
                                    1.07%     2 P:x             4.589  0.00     1 C
      -5.683  2.00    16 A         40.03%     1 P:z            -7.062  1.00     4 N
                                   37.02%     1 P:z            -7.062  1.00     2 N
                                    5.57%     1 P:y            -7.062  1.00     4 N
                                    5.17%     1 P:y            -7.062  1.00     2 N
                                    3.48%     1 S              -6.532  1.00     7 H
                                    3.47%     1 S              -6.532  1.00     6 H
                                    1.41%     1 P:z            11.051  0.00     9 H
                                    1.23%     1 D:yz           34.005  0.00     3 N
      -2.019  0.00    17 A         28.21%     1 P:z            -7.062  1.00     3 N
                                   27.90%     1 P:z            -7.062  1.00     4 N
                                   27.77%     1 P:z            -7.062  1.00     2 N
                                    3.93%     1 P:y            -7.062  1.00     3 N
                                    3.89%     1 P:y            -7.062  1.00     4 N
                                    3.87%     1 P:y            -7.062  1.00     2 N
                                   -3.02%     2 P:z             7.649  0.00     3 N
                                    2.60%     1 S              -6.532  1.00     7 H
                                    2.58%     1 S              -6.532  1.00     6 H
                                    1.20%     1 P:z            11.051  0.00     8 H
                                   -1.18%     2 P:z             7.649  0.00     2 N
                                    1.06%     1 P:z            11.051  0.00     9 H
      -0.336  0.00    18 A         19.56%     2 S               2.394  0.00     8 H
                                   13.60%     2 S               2.394  0.00     7 H
                                   13.58%     2 S               2.394  0.00     6 H
                                   13.25%     1 S              -6.532  1.00     8 H
                                   10.28%     2 S               2.394  0.00     9 H
                                    9.48%     2 S               2.394  0.00     5 H
                                   -8.17%     3 S              10.158  0.00     1 C
                                    6.14%     1 S              -6.532  1.00     5 H
                                    5.73%     1 S              -6.532  1.00     7 H
                                    5.71%     1 S              -6.532  1.00     6 H
                                    3.34%     1 S              -6.532  1.00     9 H
                                    2.43%     2 S             -13.620  2.00     1 C
                                   -1.95%     3 S              14.073  0.00     4 N
                                    1.86%     1 P:x            11.051  0.00     8 H
                                    1.51%     1 P:x            -7.062  1.00     3 N
      -0.148  0.00    19 A         50.92%     1 S              -6.532  1.00     8 H
                                   23.59%     2 S               2.394  0.00     8 H
                                   12.12%     1 S              -6.532  1.00     9 H
                                  -12.08%     2 P:x             7.649  0.00     3 N
                                    6.46%     2 S               2.394  0.00     9 H
                                    5.77%     2 S               2.394  0.00     6 H
                                    5.73%     2 S               2.394  0.00     7 H
                                    4.04%     1 S              -6.532  1.00     6 H
                                    4.00%     1 S              -6.532  1.00     7 H
                                   -3.40%     2 P:x             7.649  0.00     4 N
                                    2.61%     1 P:x            11.051  0.00     8 H
                                    1.92%     2 S             -18.450  2.00     3 N
                                   -1.58%     3 S              10.158  0.00     1 C
                                   -1.52%     3 S              14.073  0.00     3 N
                                   -1.05%     2 P:y             4.589  0.00     1 C
                                   -1.02%     1 P:x            -7.062  1.00     4 N
       0.975  0.00    20 A         55.40%     2 S               2.394  0.00     5 H
                                   38.24%     1 S              -6.532  1.00     5 H
                                  -24.22%     2 P:y             4.589  0.00     1 C
                                   22.97%     1 S              -6.532  1.00     9 H
                                   22.20%     2 S               2.394  0.00     9 H
                                   -4.24%     2 P:z             4.589  0.00     1 C
                                   -3.47%     2 P:y             7.649  0.00     3 N
                                    2.95%     2 S               2.394  0.00     8 H
                                   -2.80%     2 P:x             4.589  0.00     1 C
                                   -2.29%     2 P:y             7.649  0.00     2 N
                                   -2.22%     2 P:x             7.649  0.00     4 N
                                   -1.50%     2 P:y             7.649  0.00     4 N
                                   -1.48%     3 S              14.073  0.00     4 N
                                   -1.46%     3 S              10.158  0.00     1 C
                                   -1.29%     1 P:y            -7.062  1.00     3 N
                                    1.14%     3 S              40.869  0.00     5 H
       1.302  0.00    21 A        -35.06%     2 P:z             4.589  0.00     1 C
                                   33.25%     1 S              -6.532  1.00     7 H
                                   32.97%     1 S              -6.532  1.00     6 H
                                   27.19%     2 S               2.394  0.00     7 H
                                   26.98%     2 S               2.394  0.00     6 H
                                    6.28%     1 P:z            -5.239  0.67     1 C
                                   -4.84%     2 P:y             4.589  0.00     1 C
                                    2.73%     3 S              40.869  0.00     7 H
                                    2.71%     3 S              40.869  0.00     6 H
                                    1.59%     2 P:z             7.649  0.00     2 N
                                    1.56%     1 P:z            -7.062  1.00     2 N
       1.807  0.00    22 A         23.08%     1 S              -6.532  1.00     5 H
                                   21.56%     1 S              -6.532  1.00     9 H
                                   13.96%     2 P:x             4.589  0.00     1 C
                                  -10.56%     2 P:y             4.589  0.00     1 C
                                    9.91%     1 S              -6.532  1.00     6 H
                                    9.79%     1 S              -6.532  1.00     7 H
                                    9.71%     1 P:x            -5.239  0.67     1 C
                                    7.89%     1 P:y            -5.239  0.67     1 C
                                    5.41%     2 S               2.394  0.00     9 H
                                   -5.11%     2 S               2.394  0.00     5 H
                                    4.07%     2 S               2.394  0.00     6 H
                                    4.02%     2 S               2.394  0.00     7 H
                                   -3.80%     3 S              14.073  0.00     2 N
                                    3.36%     1 P:x            -7.062  1.00     2 N
                                   -2.65%     3 S              14.073  0.00     4 N
                                   -2.37%     2 P:x             7.649  0.00     4 N
                                   -2.36%     2 S               2.394  0.00     8 H
                                    2.15%     1 P:z            -5.239  0.67     1 C
                                    1.82%     1 P:x            -7.062  1.00     4 N
                                    1.81%     1 S              -6.532  1.00     8 H
                                    1.61%     3 S              40.869  0.00     9 H
                                    1.43%     2 S             -13.620  2.00     1 C
                                   -1.05%     2 P:z             4.589  0.00     1 C
       1.997  0.00    23 A         43.57%     1 P:x            -5.239  0.67     1 C
                                   32.91%     2 P:x             4.589  0.00     1 C
                                   11.55%     1 S              -6.532  1.00     6 H
                                   11.40%     1 S              -6.532  1.00     7 H
                                  -10.23%     3 S              14.073  0.00     2 N
                                    8.07%     1 P:y            -5.239  0.67     1 C
                                    7.70%     1 S              -6.532  1.00     9 H
                                    7.31%     1 S              -6.532  1.00     5 H
                                    6.90%     2 S             -18.450  2.00     2 N
                                   -5.12%     2 S               2.394  0.00     5 H
                                   -4.33%     2 P:y             4.589  0.00     1 C
                                    3.47%     1 P:x            -7.062  1.00     2 N
                                   -3.43%     2 S               2.394  0.00     9 H
                                   -3.41%     2 P:y             7.649  0.00     3 N
                                   -2.79%     2 P:x             7.649  0.00     2 N
                                   -2.00%     1 P:y            -7.062  1.00     3 N
                                    1.68%     1 S              -6.532  1.00     8 H
                                   -1.51%     2 P:y             7.649  0.00     2 N
                                   -1.47%     2 S               2.394  0.00     8 H
                                   -1.39%     3 P:x            54.789  0.00     1 C
                                    1.34%     1 P:x            -7.062  1.00     4 N
                                   -1.14%     2 P:y             7.649  0.00     4 N
                                    1.11%     1 P:y            11.051  0.00     8 H
                                   -1.04%     3 S              40.869  0.00     7 H
                                   -1.03%     3 S              40.869  0.00     6 H

 Energy gradients wrt nuclear displacements
 ==========================================

     Atom      Cartesian (a.u./angstrom)
                 X         Y         Z
 ----------------------------------------
     1 C     0.000036 -0.000073  0.000055
     2 N    -0.000031  0.000037  0.000006
     3 N     0.000046  0.000003  0.000017
     4 N    -0.000058 -0.000003 -0.000013
     5 H     0.000028 -0.000021  0.000027
     6 H     0.000022 -0.000013 -0.000040
     7 H    -0.000018  0.000017 -0.000023
     8 H    -0.000008  0.000030  0.000034
     9 H    -0.000017  0.000022 -0.000062
 ----------------------------------------



 =======================================================================
 Electrostatic potential at the Nuclei due to electrons and other nuclei
 =======================================================================
  
         Atom                  Potential
         ----                  ---------
     1)   C                  14.75328755
     2)   N                  18.40288641
     3)   N                  18.27445003
     4)   N                  18.41317279
     5)   H                   1.10228270
     6)   H                   1.09330546
     7)   H                   1.09329542
     8)   H                   0.98627169
     9)   H                   1.04278715
 Mulliken charges used for AMS results%charges...


    =====================
     CALCULATION RESULTS
    =====================

Energy (hartree)            -1.76044091

Gradients (hartree/bohr)
  Index   Atom            d/dx            d/dy            d/dz
      1      C    0.0000189925   -0.0000387123    0.0000291545
      2      N   -0.0000165381    0.0000195981    0.0000029757
      3      N    0.0000245978    0.0000014821    0.0000088443
      4      N   -0.0000305876   -0.0000014860   -0.0000070823
      5      H    0.0000148247   -0.0000110782    0.0000144113
      6      H    0.0000118204   -0.0000069310   -0.0000210564
      7      H   -0.0000097605    0.0000091583   -0.0000119745
      8      H   -0.0000042255    0.0000160819    0.0000177539
      9      H   -0.0000091237    0.0000118872   -0.0000330265


--------------
Atomic charges
--------------
  Index   Atom    Charge
      1      C    0.7335
      2      N   -0.2693
      3      N    0.3280
      4      N   -0.2298
      5      H   -0.2235
      6      H   -0.1810
      7      H   -0.1807
      8      H    0.0217
      9      H    0.0011


Dipole moment vector    (Debye):     0.85771184    0.52688350    0.30026878
              magnitude (Debye):     1.05044618


-----------------------
Molecular orbitals info
-----------------------
n orbitals:              159
n spin:                    1

Note: only printing virtual orbitals with
      energy smaller than HOMO + 100. eV

HOMO (eV):              -5.6833
LUMO (eV):              -2.0195
HOMO-LUMO gap (eV):      3.6638

   Index   Energy (eV)    Occupation
     101       94.0143         0.000       
     100       92.9642         0.000       
      99       92.7771         0.000       
      98       90.5801         0.000       
      97       86.4565         0.000       
      96       86.0027         0.000       
      95       84.7866         0.000       
      94       82.2209         0.000       
      93       81.8980         0.000       
      92       81.3636         0.000       
      91       79.2737         0.000       
      90       78.9889         0.000       
      89       77.2910         0.000       
      88       76.6303         0.000       
      87       76.1614         0.000       
      86       75.9030         0.000       
      85       74.1394         0.000       
      84       72.2018         0.000       
      83       69.8502         0.000       
      82       66.3926         0.000       
      81       65.4257         0.000       
      80       62.1968         0.000       
      79       61.6042         0.000       
      78       59.7104         0.000       
      77       57.0642         0.000       
      76       56.3553         0.000       
      75       56.1006         0.000       
      74       55.6318         0.000       
      73       53.1106         0.000       
      72       52.8923         0.000       
      71       50.1874         0.000       
      70       49.8344         0.000       
      69       48.2588         0.000       
      68       45.7045         0.000       
      67       45.0719         0.000       
      66       43.9066         0.000       
      65       42.7812         0.000       
      64       42.1666         0.000       
      63       39.2488         0.000       
      62       38.3652         0.000       
      61       38.0793         0.000       
      60       36.4453         0.000       
      59       34.3686         0.000       
      58       33.1684         0.000       
      57       32.5349         0.000       
      56       32.4509         0.000       
      55       31.2123         0.000       
      54       30.5941         0.000       
      53       28.4891         0.000       
      52       28.3579         0.000       
      51       27.4830         0.000       
      50       26.2253         0.000       
      49       25.4009         0.000       
      48       23.4874         0.000       
      47       23.1008         0.000       
      46       19.6489         0.000       
      45       19.0645         0.000       
      44       17.2744         0.000       
      43       16.8397         0.000       
      42       16.0579         0.000       
      41       15.1530         0.000       
      40       13.6370         0.000       
      39       11.8932         0.000       
      38       11.6964         0.000       
      37       10.9755         0.000       
      36       10.8895         0.000       
      35        9.5197         0.000       
      34        9.0910         0.000       
      33        8.7370         0.000       
      32        8.6240         0.000       
      31        7.7289         0.000       
      30        7.1609         0.000       
      29        7.1446         0.000       
      28        6.1908         0.000       
      27        5.9129         0.000       
      26        5.7957         0.000       
      25        4.3518         0.000       
      24        3.8880         0.000       
      23        1.9969         0.000       
      22        1.8067         0.000       
      21        1.3016         0.000       
      20        0.9750         0.000       
      19       -0.1478         0.000       
      18       -0.3357         0.000       
      17       -2.0195         0.000 < LUMO
      16       -5.6833         2.000 < HOMO
      15       -6.6356         2.000       
      14       -7.6359         2.000       
      13       -9.8763         2.000       
      12      -10.1409         2.000       
      11      -11.6232         2.000       
      10      -12.4715         2.000       
       9      -13.0596         2.000       
       8      -16.0393         2.000       
       7      -18.9311         2.000       
       6      -22.1801         2.000       
       5      -27.0296         2.000       
       4     -270.8773         2.000       
       3     -381.9731         2.000       
       2     -382.2377         2.000       
       1     -385.4245         2.000       

AMS application finished. Exiting.
NORMAL TERMINATION
     Total cpu time:     120.67
  Total system time:       0.80
 Total elapsed time:     122.19
NORMAL TERMINATION
