
 *******************************************************************************
 *                                                                             *
 *  --------------------------------                                           *
 *   Amsterdam Modeling Suite (AMS)              2026.103                      *
 *  --------------------------------                                           *
 *                                               r260501 2026-05-01 873454b5   *
 *                                                                             *
 *                                                                             *
 *                              =================                              *
 *                              |               |                              *
 *                              |     A M S     |                              *
 *                              |               |                              *
 *                              =================                              *
 *                                                                             *
 *                                                                             *
 *   Online information and documentation:  https://www.scm.com/support/       *
 *   E-mail:  support@scm.com   info@scm.com                                   *
 *                                                                             *
 *   Scientific publications using AMS results must be properly referenced     *
 *   See the User Manuals (or the web site) for recommended citations          *
 *   The terms and conditions of the End User License Agreement apply to       *
 *   the use of AMS, https://www.scm.com/license-terms/                        *
 *                                                                             *
 **********************  x86_64_linux_intel / intelmpi  ************************
 
 Licensed to: Jong-June Jeon / University of Seoul 2026-05-13 16:10:32
 SCM User ID: u30731
  
 AMS 2026.103  RunTime: May30-2026 10:14:54  ShM Nodes: 1  Procs: 1

 AMS jobname: c2_fragB_ts
 AMS jobid  : 2037028220

 Start   directory: /gpfs/home1/yeseo1ee/projects/eda-asm-prediction/adf_outputs/batch_000/dipolar_000441/
 Results directory: /gpfs/home1/yeseo1ee/projects/eda-asm-prediction/adf_outputs/batch_000/dipolar_000441/c2_fragB_ts.results/
 Scratch directory: /tmp/amstmp_c2_fragB_ts_kid0.2037028220/

 RNG seed: 1606445841 -1119004079 1342086567 -2124373763 762419146 878053781 -1893862412 -1824235073



                      ************************************************************************
                      *  ADF 2026.103  RunTime: May30-2026 10:14:54  ShM Nodes: 1  Procs: 1  *
                      ************************************************************************
  

       ****************************
       * SINGLE POINT CALCULATION *
       ****************************

--------
Geometry
--------
Formula: C13H11NO
Atoms
  Index Symbol   x (angstrom)   y (angstrom)   z (angstrom)
      1      N     1.29707000    -0.49940000    -1.42840000
      2      C     1.84651000    -0.89760000    -0.23143000
      3      C     1.46654000    -2.04119000     0.51543000
      4      C     2.15110000    -2.38463000     1.68176000
      5      C     3.21570000    -1.60919000     2.14996000
      6      C     3.61034000    -0.48500000     1.40813000
      7      C     2.95357000    -0.13825000     0.23294000
      8      O     0.11283000    -1.11972000    -1.77015000
      9      C    -1.04162000    -0.98052000    -1.16788000
     10      C    -1.41508000    -0.82619000     0.22986000
     11      C    -2.66526000    -1.39220000     0.57239000
     12      C    -3.15439000    -1.31119000     1.87325000
     13      C    -2.41505000    -0.64152000     2.85439000
     14      C    -1.19350000    -0.04460000     2.52218000
     15      C    -0.69394000    -0.12635000     1.22520000
     16      H     0.65094000    -2.67304000     0.16498000
     17      H     1.83894000    -3.27463000     2.23470000
     18      H     3.73888000    -1.87949000     3.06956000
     19      H     4.45034000     0.12601000     1.74929000
     20      H     3.27470000     0.72563000    -0.34979000
     21      H    -1.82421000    -1.37518000    -1.82370000
     22      H    -3.24254000    -1.91296000    -0.19464000
     23      H    -4.11411000    -1.76851000     2.12266000
     24      H    -2.79726000    -0.57163000     3.87537000
     25      H    -0.62734000     0.50054000     3.28029000
     26      H     0.22852000     0.39121000     0.98178000

Total System Charge              0.00000


----------------
ADF Engine Input
----------------
 
   Basis
     Type TZ2P
     Core None
   End
   XC
     GGA BLYP
     Dispersion GRIMME3 BJDAMP
   End
   Symmetry NOSYM
   NumericalQuality Normal
   Unrestricted No
   SCF
     Iterations 200
     Converge 1.0e-6
   End
   Save TAPE21
 

 Title: *** (NO TITLE) ***

 *** adf ***



 ===========================
 A T T A C H E D   F I L E S
 ===========================
  



 ===============================
 M O D E L   P A R A M E T E R S
 ===============================
  
 DENSITY FUNCTIONAL POTENTIAL (scf)
    LDA:                               Exchange only                           == Not Default ==
    Gradient Corrections:              Becke88 LYP                             == Not Default ==

 SPIN  (restricted / unrestr.)
    Molecule:                          Restricted                               
    Fragments:                         Restricted                               

 OTHER ASPECTS
    Relativistic Corrections:          scalar (ZORA,MAPA)                       

    Nuclear Charge Density Model:      Point Charge Nuclei                      
    Core Treatment:                    Frozen Orbital(s)                        

    Hyperfine or Zeeman Interaction:   ---                                      

 Settings for Grimme D3 dispersion correction

      damping                        BJ
      s6                          1.000
      s8                          2.700
      a1                          0.430
      a2                          4.236

 Other (technical) parameters

      alpha                      14.000
      version                         4
 


 Fragment File(s)
 ----------------
 N:
         file : /gpfs/home1/yeseo1ee/projects/eda-asm-prediction/adf_outputs/batch_000/dipolar_000441/c2_fragB_ts.results/t21.44EAA48D.N
         jobid: 0
         title: Nitrogen (TZ2P)
 C:
         file : /gpfs/home1/yeseo1ee/projects/eda-asm-prediction/adf_outputs/batch_000/dipolar_000441/c2_fragB_ts.results/t21.50BA88D5.C
         jobid: 0
         title: Carbon (TZ2P)
 O:
         file : /gpfs/home1/yeseo1ee/projects/eda-asm-prediction/adf_outputs/batch_000/dipolar_000441/c2_fragB_ts.results/t21.6E90ABAE.O
         jobid: 0
         title: Oxygen (TZ2P)
 H:
         file : /gpfs/home1/yeseo1ee/projects/eda-asm-prediction/adf_outputs/batch_000/dipolar_000441/c2_fragB_ts.results/t21.6F35CCAB.H
         jobid: 0
         title: Hydrogen (TZ2P)



 ===============
 G E O M E T R Y  ***  3D  Molecule  ***
 ===============
  

 ATOMS
 =====                            X Y Z                    CHARGE
                                (Angstrom)             Nucl     +Core       At.Mass
                       --------------------------    ----------------       -------
    1  N               1.2971   -0.4994   -1.4284      7.00      7.00       14.0031
    2  C               1.8465   -0.8976   -0.2314      6.00      6.00       12.0000
    3  C               1.4665   -2.0412    0.5154      6.00      6.00       12.0000
    4  C               2.1511   -2.3846    1.6818      6.00      6.00       12.0000
    5  C               3.2157   -1.6092    2.1500      6.00      6.00       12.0000
    6  C               3.6103   -0.4850    1.4081      6.00      6.00       12.0000
    7  C               2.9536   -0.1383    0.2329      6.00      6.00       12.0000
    8  O               0.1128   -1.1197   -1.7701      8.00      8.00       15.9949
    9  C              -1.0416   -0.9805   -1.1679      6.00      6.00       12.0000
   10  C              -1.4151   -0.8262    0.2299      6.00      6.00       12.0000
   11  C              -2.6653   -1.3922    0.5724      6.00      6.00       12.0000
   12  C              -3.1544   -1.3112    1.8733      6.00      6.00       12.0000
   13  C              -2.4150   -0.6415    2.8544      6.00      6.00       12.0000
   14  C              -1.1935   -0.0446    2.5222      6.00      6.00       12.0000
   15  C              -0.6939   -0.1263    1.2252      6.00      6.00       12.0000
   16  H               0.6509   -2.6730    0.1650      1.00      1.00        1.0078
   17  H               1.8389   -3.2746    2.2347      1.00      1.00        1.0078
   18  H               3.7389   -1.8795    3.0696      1.00      1.00        1.0078
   19  H               4.4503    0.1260    1.7493      1.00      1.00        1.0078
   20  H               3.2747    0.7256   -0.3498      1.00      1.00        1.0078
   21  H              -1.8242   -1.3752   -1.8237      1.00      1.00        1.0078
   22  H              -3.2425   -1.9130   -0.1946      1.00      1.00        1.0078
   23  H              -4.1141   -1.7685    2.1227      1.00      1.00        1.0078
   24  H              -2.7973   -0.5716    3.8754      1.00      1.00        1.0078
   25  H              -0.6273    0.5005    3.2803      1.00      1.00        1.0078
   26  H               0.2285    0.3912    0.9818      1.00      1.00        1.0078


 FRAGMENTS
 =========                                     Atoms in this Fragment     Cart. coord.s (Angstrom)
                                               -------------------------------------------------------
    1  N                                                 1  N            1.2971   -0.4994   -1.4284
    2  C                                                 2  C            1.8465   -0.8976   -0.2314
    3  C                                                 3  C            1.4665   -2.0412    0.5154
    4  C                                                 4  C            2.1511   -2.3846    1.6818
    5  C                                                 5  C            3.2157   -1.6092    2.1500
    6  C                                                 6  C            3.6103   -0.4850    1.4081
    7  C                                                 7  C            2.9536   -0.1383    0.2329
    8  C                                                 9  C           -1.0416   -0.9805   -1.1679
    9  C                                                10  C           -1.4151   -0.8262    0.2299
   10  C                                                11  C           -2.6653   -1.3922    0.5724
   11  C                                                12  C           -3.1544   -1.3112    1.8733
   12  C                                                13  C           -2.4150   -0.6415    2.8544
   13  C                                                14  C           -1.1935   -0.0446    2.5222
   14  C                                                15  C           -0.6939   -0.1263    1.2252
   15  O                                                 8  O            0.1128   -1.1197   -1.7701
   16  H                                                16  H            0.6509   -2.6730    0.1650
   17  H                                                17  H            1.8389   -3.2746    2.2347
   18  H                                                18  H            3.7389   -1.8795    3.0696
   19  H                                                19  H            4.4503    0.1260    1.7493
   20  H                                                20  H            3.2747    0.7256   -0.3498
   21  H                                                21  H           -1.8242   -1.3752   -1.8237
   22  H                                                22  H           -3.2425   -1.9130   -0.1946
   23  H                                                23  H           -4.1141   -1.7685    2.1227
   24  H                                                24  H           -2.7973   -0.5716    3.8754
   25  H                                                25  H           -0.6273    0.5005    3.2803
   26  H                                                26  H            0.2285    0.3912    0.9818



 =====================================
 S Y M M E T R Y ,   E L E C T R O N S
 =====================================
  
 Symmetry: NOSYM

 Irreducible Representations, including subspecies
 -------------------------------------------------
 A


 Configuration of Valence Electrons
 ==================================
 ( determined in the SCF procedure )

 Total:   104

 Net Charge: 0 (Nuclei minus Electrons)

 Aufbau principle for MO occupations will be applied through SCF cycle no.     100
 Thereafter, the program will assign electrons to MOs that are spatially
 similar to the occupied MOs in a "reference" cycle ("KeepOrbitals").
 The reference cycle is always the PREVIOUS cycle: it will evolve with
 the SCF procedure.
 ***************************************************************************************************



                                      ****************************************
                                      *  B U I L D : (Fragments, Functions)  *
                                      ****************************************
  



 =======
 S F O s  ***  (Symmetrized Fragment Orbitals)  ***
 =======
  
 SFOs are linear combinations of (valence) Fragment Orbitals (FOs), such that the SFOs transform as the
 irreducible representations of the (molecular) symmetry group. Each SFO is therefore characterized by
 an irrep of the molecule and by a few (or only one) generating FOs.
 The SFOs constitute a symmetry-adapted basis for the Fock matrix. The MO eigenvector coefficients in
 this basis provide a direct interpretation of the MOs in terms of Frontier Orbital Theory.

 The SFOs are combined with auxiliary Core Functions (CFs) to ensure orthogonalization on the (frozen)
 Core Orbitals (COs). The Core-orthogonalized SFOs (CSFOs) constitute the true Fock basis.

 The FOs, and hence also the (C)SFOs are combinations of the elementary basis functions (BAS). The basis
 functions that participate in the description of the SFOs depend on the irrep. The indices of the
 involved functions are printed below for each irrep.
 (The complete list of primitive basis functions is printed in another section)

 Total nr. of (C)SFOs (summation over all irreps) :   511

 NOTE: a (C)SFO that is defined as a combination of more than one FO is usually NOT normalized.



                                       === A ===
 Nr. of SFOs :  511
 Cartesian basis functions that participate in this irrep (total number =   582) :
      1     2     3     4     5     6     9    12     7    10
     13     8    11    14    15    16    17    18    19    20
     21    22    23    24    25    26    27    28    29    30
     31    32    33    34    35    36    39    42    37    40
     43    38    41    44    45    46    47    48    49    50
     51    52    53    54    55    56    57    58    59    60
     61    62    63    64    65    66    69    72    67    70
     73    68    71    74    75    76    77    78    79    80
     81    82    83    84    85    86    87    88    89    90
     91    92    93    94    95    96    99   102    97   100
    103    98   101   104   105   106   107   108   109   110
    111   112   113   114   115   116   117   118   119   120
    121   122   123   124   125   126   129   132   127   130
    133   128   131   134   135   136   137   138   139   140
    141   142   143   144   145   146   147   148   149   150
    151   152   153   154   155   156   159   162   157   160
    163   158   161   164   165   166   167   168   169   170
    171   172   173   174   175   176   177   178   179   180
    181   182   183   184   185   186   189   192   187   190
    193   188   191   194   195   196   197   198   199   200
    201   202   203   204   205   206   207   208   209   210
    211   212   213   214   215   216   219   222   217   220
    223   218   221   224   225   226   227   228   229   230
    231   232   233   234   235   236   237   238   239   240
    241   242   243   244   245   246   249   252   247   250
    253   248   251   254   255   256   257   258   259   260
    261   262   263   264   265   266   267   268   269   270
    271   272   273   274   275   276   279   282   277   280
    283   278   281   284   285   286   287   288   289   290
    291   292   293   294   295   296   297   298   299   300
    301   302   303   304   305   306   309   312   307   310
    313   308   311   314   315   316   317   318   319   320
    321   322   323   324   325   326   327   328   329   330
    331   332   333   334   335   336   339   342   337   340
    343   338   341   344   345   346   347   348   349   350
    351   352   353   354   355   356   357   358   359   360
    361   362   363   364   365   366   369   372   367   370
    373   368   371   374   375   376   377   378   379   380
    381   382   383   384   385   386   387   388   389   390
    391   392   393   394   395   396   399   402   397   400
    403   398   401   404   405   406   407   408   409   410
    411   412   413   414   415   416   417   418   419   420
    421   422   423   424   425   426   429   432   427   430
    433   428   431   434   435   436   437   438   439   440
    441   442   443   444   445   446   447   448   449   450
    451   452   453   454   455   456   457   458   459   460
    461   462   463   464   465   466   467   468   469   470
    471   472   473   474   475   476   477   478   479   480
    481   482   483   484   485   486   487   488   489   490
    491   492   493   494   495   496   497   498   499   500
    501   502   503   504   505   506   507   508   509   510
    511   512   513   514   515   516   517   518   519   520
    521   522   523   524   525   526   527   528   529   530
    531   532   533   534   535   536   537   538   539   540
    541   542   543   544   545   546   547   548   549   550
    551   552   553   554   555   556   557   558   559   560
    561   562   563   564   565   566   567   568   569   570
    571   572   573   574   575   576   577   578   579   580
    581   582

    SFO  (index         Fragment          Generating    Expansion in Fragment Orbitals
  indx  incl.CFs)   Occup   Orb.Energy   FragmentType  Coeff.   Orbital     on Fragment
 --------------------------------------------------------------------------------------
     1       1      2.000     -14.160 au  N             1.00      1 S               1
                        (    -385.319 eV)
     2       2      2.000      -0.678 au  N             1.00      2 S               1
                        (     -18.450 eV)
     3       3       --         0.517 au  N             1.00      3 S               1
                        (      14.073 eV)
     4       4       --         6.872 au  N             1.00      4 S               1
                        (     186.990 eV)
     5       5       --        63.432 au  N             1.00      5 S               1
                        (    1726.082 eV)
     6       6      1.000      -0.260 au  N             1.00      1 P:x             1
                        (      -7.062 eV)
     7       7       --         0.281 au  N             1.00      2 P:x             1
                        (       7.649 eV)
     8       8       --         3.275 au  N             1.00      3 P:x             1
                        (      89.105 eV)
     9       9      1.000      -0.260 au  N             1.00      1 P:y             1
                        (      -7.062 eV)
    10      10       --         0.281 au  N             1.00      2 P:y             1
                        (       7.649 eV)
    11      11       --         3.275 au  N             1.00      3 P:y             1
                        (      89.105 eV)
    12      12      1.000      -0.260 au  N             1.00      1 P:z             1
                        (      -7.062 eV)
    13      13       --         0.281 au  N             1.00      2 P:z             1
                        (       7.649 eV)
    14      14       --         3.275 au  N             1.00      3 P:z             1
                        (      89.105 eV)
    15      15       --         1.250 au  N             1.00      1 D:z2            1
                        (      34.005 eV)
    16      16       --         1.250 au  N             1.00      1 D:x2-y2         1
                        (      34.005 eV)
    17      17       --         1.250 au  N             1.00      1 D:xy            1
                        (      34.005 eV)
    18      18       --         1.250 au  N             1.00      1 D:xz            1
                        (      34.005 eV)
    19      19       --         1.250 au  N             1.00      1 D:yz            1
                        (      34.005 eV)
    20      20       --         4.013 au  N             1.00      1 F:z3            1
                        (     109.190 eV)
    21      21       --         4.013 au  N             1.00      1 F:z             1
                        (     109.190 eV)
    22      22       --         4.013 au  N             1.00      1 F:xyz           1
                        (     109.190 eV)
    23      23       --         4.013 au  N             1.00      1 F:z2x           1
                        (     109.190 eV)
    24      24       --         4.013 au  N             1.00      1 F:z2y           1
                        (     109.190 eV)
    25      25       --         4.013 au  N             1.00      1 F:x             1
                        (     109.190 eV)
    26      26       --         4.013 au  N             1.00      1 F:y             1
                        (     109.190 eV)
    27      27      2.000     -10.066 au  C             1.00      1 S               2
                        (    -273.921 eV)
    28      28      2.000      -0.501 au  C             1.00      2 S               2
                        (     -13.620 eV)
    29      29       --         0.373 au  C             1.00      3 S               2
                        (      10.158 eV)
    30      30       --         5.405 au  C             1.00      4 S               2
                        (     147.073 eV)
    31      31       --        49.848 au  C             1.00      5 S               2
                        (    1356.422 eV)
    32      32      0.667      -0.193 au  C             1.00      1 P:x             2
                        (      -5.239 eV)
    33      33       --         0.169 au  C             1.00      2 P:x             2
                        (       4.589 eV)
    34      34       --         2.013 au  C             1.00      3 P:x             2
                        (      54.789 eV)
    35      35      0.667      -0.193 au  C             1.00      1 P:y             2
                        (      -5.239 eV)
    36      36       --         0.169 au  C             1.00      2 P:y             2
                        (       4.589 eV)
    37      37       --         2.013 au  C             1.00      3 P:y             2
                        (      54.789 eV)
    38      38      0.667      -0.193 au  C             1.00      1 P:z             2
                        (      -5.239 eV)
    39      39       --         0.169 au  C             1.00      2 P:z             2
                        (       4.589 eV)
    40      40       --         2.013 au  C             1.00      3 P:z             2
                        (      54.789 eV)
    41      41       --         1.243 au  C             1.00      1 D:z2            2
                        (      33.824 eV)
    42      42       --         1.243 au  C             1.00      1 D:x2-y2         2
                        (      33.824 eV)
    43      43       --         1.243 au  C             1.00      1 D:xy            2
                        (      33.824 eV)
    44      44       --         1.243 au  C             1.00      1 D:xz            2
                        (      33.824 eV)
    45      45       --         1.243 au  C             1.00      1 D:yz            2
                        (      33.824 eV)
    46      46       --         4.016 au  C             1.00      1 F:z3            2
                        (     109.271 eV)
    47      47       --         4.016 au  C             1.00      1 F:z             2
                        (     109.271 eV)
    48      48       --         4.016 au  C             1.00      1 F:xyz           2
                        (     109.271 eV)
    49      49       --         4.016 au  C             1.00      1 F:z2x           2
                        (     109.271 eV)
    50      50       --         4.016 au  C             1.00      1 F:z2y           2
                        (     109.271 eV)
    51      51       --         4.016 au  C             1.00      1 F:x             2
                        (     109.271 eV)
    52      52       --         4.016 au  C             1.00      1 F:y             2
                        (     109.271 eV)
    53      53      2.000     -10.066 au  C             1.00      1 S               3
                        (    -273.921 eV)
    54      54      2.000      -0.501 au  C             1.00      2 S               3
                        (     -13.620 eV)
    55      55       --         0.373 au  C             1.00      3 S               3
                        (      10.158 eV)
    56      56       --         5.405 au  C             1.00      4 S               3
                        (     147.073 eV)
    57      57       --        49.848 au  C             1.00      5 S               3
                        (    1356.422 eV)
    58      58      0.667      -0.193 au  C             1.00      1 P:x             3
                        (      -5.239 eV)
    59      59       --         0.169 au  C             1.00      2 P:x             3
                        (       4.589 eV)
    60      60       --         2.013 au  C             1.00      3 P:x             3
                        (      54.789 eV)
    61      61      0.667      -0.193 au  C             1.00      1 P:y             3
                        (      -5.239 eV)
    62      62       --         0.169 au  C             1.00      2 P:y             3
                        (       4.589 eV)
    63      63       --         2.013 au  C             1.00      3 P:y             3
                        (      54.789 eV)
    64      64      0.667      -0.193 au  C             1.00      1 P:z             3
                        (      -5.239 eV)
    65      65       --         0.169 au  C             1.00      2 P:z             3
                        (       4.589 eV)
    66      66       --         2.013 au  C             1.00      3 P:z             3
                        (      54.789 eV)
    67      67       --         1.243 au  C             1.00      1 D:z2            3
                        (      33.824 eV)
    68      68       --         1.243 au  C             1.00      1 D:x2-y2         3
                        (      33.824 eV)
    69      69       --         1.243 au  C             1.00      1 D:xy            3
                        (      33.824 eV)
    70      70       --         1.243 au  C             1.00      1 D:xz            3
                        (      33.824 eV)
    71      71       --         1.243 au  C             1.00      1 D:yz            3
                        (      33.824 eV)
    72      72       --         4.016 au  C             1.00      1 F:z3            3
                        (     109.271 eV)
    73      73       --         4.016 au  C             1.00      1 F:z             3
                        (     109.271 eV)
    74      74       --         4.016 au  C             1.00      1 F:xyz           3
                        (     109.271 eV)
    75      75       --         4.016 au  C             1.00      1 F:z2x           3
                        (     109.271 eV)
    76      76       --         4.016 au  C             1.00      1 F:z2y           3
                        (     109.271 eV)
    77      77       --         4.016 au  C             1.00      1 F:x             3
                        (     109.271 eV)
    78      78       --         4.016 au  C             1.00      1 F:y             3
                        (     109.271 eV)
    79      79      2.000     -10.066 au  C             1.00      1 S               4
                        (    -273.921 eV)
    80      80      2.000      -0.501 au  C             1.00      2 S               4
                        (     -13.620 eV)
    81      81       --         0.373 au  C             1.00      3 S               4
                        (      10.158 eV)
    82      82       --         5.405 au  C             1.00      4 S               4
                        (     147.073 eV)
    83      83       --        49.848 au  C             1.00      5 S               4
                        (    1356.422 eV)
    84      84      0.667      -0.193 au  C             1.00      1 P:x             4
                        (      -5.239 eV)
    85      85       --         0.169 au  C             1.00      2 P:x             4
                        (       4.589 eV)
    86      86       --         2.013 au  C             1.00      3 P:x             4
                        (      54.789 eV)
    87      87      0.667      -0.193 au  C             1.00      1 P:y             4
                        (      -5.239 eV)
    88      88       --         0.169 au  C             1.00      2 P:y             4
                        (       4.589 eV)
    89      89       --         2.013 au  C             1.00      3 P:y             4
                        (      54.789 eV)
    90      90      0.667      -0.193 au  C             1.00      1 P:z             4
                        (      -5.239 eV)
    91      91       --         0.169 au  C             1.00      2 P:z             4
                        (       4.589 eV)
    92      92       --         2.013 au  C             1.00      3 P:z             4
                        (      54.789 eV)
    93      93       --         1.243 au  C             1.00      1 D:z2            4
                        (      33.824 eV)
    94      94       --         1.243 au  C             1.00      1 D:x2-y2         4
                        (      33.824 eV)
    95      95       --         1.243 au  C             1.00      1 D:xy            4
                        (      33.824 eV)
    96      96       --         1.243 au  C             1.00      1 D:xz            4
                        (      33.824 eV)
    97      97       --         1.243 au  C             1.00      1 D:yz            4
                        (      33.824 eV)
    98      98       --         4.016 au  C             1.00      1 F:z3            4
                        (     109.271 eV)
    99      99       --         4.016 au  C             1.00      1 F:z             4
                        (     109.271 eV)
   100     100       --         4.016 au  C             1.00      1 F:xyz           4
                        (     109.271 eV)
   101     101       --         4.016 au  C             1.00      1 F:z2x           4
                        (     109.271 eV)
   102     102       --         4.016 au  C             1.00      1 F:z2y           4
                        (     109.271 eV)
   103     103       --         4.016 au  C             1.00      1 F:x             4
                        (     109.271 eV)
   104     104       --         4.016 au  C             1.00      1 F:y             4
                        (     109.271 eV)
   105     105      2.000     -10.066 au  C             1.00      1 S               5
                        (    -273.921 eV)
   106     106      2.000      -0.501 au  C             1.00      2 S               5
                        (     -13.620 eV)
   107     107       --         0.373 au  C             1.00      3 S               5
                        (      10.158 eV)
   108     108       --         5.405 au  C             1.00      4 S               5
                        (     147.073 eV)
   109     109       --        49.848 au  C             1.00      5 S               5
                        (    1356.422 eV)
   110     110      0.667      -0.193 au  C             1.00      1 P:x             5
                        (      -5.239 eV)
   111     111       --         0.169 au  C             1.00      2 P:x             5
                        (       4.589 eV)
   112     112       --         2.013 au  C             1.00      3 P:x             5
                        (      54.789 eV)
   113     113      0.667      -0.193 au  C             1.00      1 P:y             5
                        (      -5.239 eV)
   114     114       --         0.169 au  C             1.00      2 P:y             5
                        (       4.589 eV)
   115     115       --         2.013 au  C             1.00      3 P:y             5
                        (      54.789 eV)
   116     116      0.667      -0.193 au  C             1.00      1 P:z             5
                        (      -5.239 eV)
   117     117       --         0.169 au  C             1.00      2 P:z             5
                        (       4.589 eV)
   118     118       --         2.013 au  C             1.00      3 P:z             5
                        (      54.789 eV)
   119     119       --         1.243 au  C             1.00      1 D:z2            5
                        (      33.824 eV)
   120     120       --         1.243 au  C             1.00      1 D:x2-y2         5
                        (      33.824 eV)
   121     121       --         1.243 au  C             1.00      1 D:xy            5
                        (      33.824 eV)
   122     122       --         1.243 au  C             1.00      1 D:xz            5
                        (      33.824 eV)
   123     123       --         1.243 au  C             1.00      1 D:yz            5
                        (      33.824 eV)
   124     124       --         4.016 au  C             1.00      1 F:z3            5
                        (     109.271 eV)
   125     125       --         4.016 au  C             1.00      1 F:z             5
                        (     109.271 eV)
   126     126       --         4.016 au  C             1.00      1 F:xyz           5
                        (     109.271 eV)
   127     127       --         4.016 au  C             1.00      1 F:z2x           5
                        (     109.271 eV)
   128     128       --         4.016 au  C             1.00      1 F:z2y           5
                        (     109.271 eV)
   129     129       --         4.016 au  C             1.00      1 F:x             5
                        (     109.271 eV)
   130     130       --         4.016 au  C             1.00      1 F:y             5
                        (     109.271 eV)
   131     131      2.000     -10.066 au  C             1.00      1 S               6
                        (    -273.921 eV)
   132     132      2.000      -0.501 au  C             1.00      2 S               6
                        (     -13.620 eV)
   133     133       --         0.373 au  C             1.00      3 S               6
                        (      10.158 eV)
   134     134       --         5.405 au  C             1.00      4 S               6
                        (     147.073 eV)
   135     135       --        49.848 au  C             1.00      5 S               6
                        (    1356.422 eV)
   136     136      0.667      -0.193 au  C             1.00      1 P:x             6
                        (      -5.239 eV)
   137     137       --         0.169 au  C             1.00      2 P:x             6
                        (       4.589 eV)
   138     138       --         2.013 au  C             1.00      3 P:x             6
                        (      54.789 eV)
   139     139      0.667      -0.193 au  C             1.00      1 P:y             6
                        (      -5.239 eV)
   140     140       --         0.169 au  C             1.00      2 P:y             6
                        (       4.589 eV)
   141     141       --         2.013 au  C             1.00      3 P:y             6
                        (      54.789 eV)
   142     142      0.667      -0.193 au  C             1.00      1 P:z             6
                        (      -5.239 eV)
   143     143       --         0.169 au  C             1.00      2 P:z             6
                        (       4.589 eV)
   144     144       --         2.013 au  C             1.00      3 P:z             6
                        (      54.789 eV)
   145     145       --         1.243 au  C             1.00      1 D:z2            6
                        (      33.824 eV)
   146     146       --         1.243 au  C             1.00      1 D:x2-y2         6
                        (      33.824 eV)
   147     147       --         1.243 au  C             1.00      1 D:xy            6
                        (      33.824 eV)
   148     148       --         1.243 au  C             1.00      1 D:xz            6
                        (      33.824 eV)
   149     149       --         1.243 au  C             1.00      1 D:yz            6
                        (      33.824 eV)
   150     150       --         4.016 au  C             1.00      1 F:z3            6
                        (     109.271 eV)
   151     151       --         4.016 au  C             1.00      1 F:z             6
                        (     109.271 eV)
   152     152       --         4.016 au  C             1.00      1 F:xyz           6
                        (     109.271 eV)
   153     153       --         4.016 au  C             1.00      1 F:z2x           6
                        (     109.271 eV)
   154     154       --         4.016 au  C             1.00      1 F:z2y           6
                        (     109.271 eV)
   155     155       --         4.016 au  C             1.00      1 F:x             6
                        (     109.271 eV)
   156     156       --         4.016 au  C             1.00      1 F:y             6
                        (     109.271 eV)
   157     157      2.000     -10.066 au  C             1.00      1 S               7
                        (    -273.921 eV)
   158     158      2.000      -0.501 au  C             1.00      2 S               7
                        (     -13.620 eV)
   159     159       --         0.373 au  C             1.00      3 S               7
                        (      10.158 eV)
   160     160       --         5.405 au  C             1.00      4 S               7
                        (     147.073 eV)
   161     161       --        49.848 au  C             1.00      5 S               7
                        (    1356.422 eV)
   162     162      0.667      -0.193 au  C             1.00      1 P:x             7
                        (      -5.239 eV)
   163     163       --         0.169 au  C             1.00      2 P:x             7
                        (       4.589 eV)
   164     164       --         2.013 au  C             1.00      3 P:x             7
                        (      54.789 eV)
   165     165      0.667      -0.193 au  C             1.00      1 P:y             7
                        (      -5.239 eV)
   166     166       --         0.169 au  C             1.00      2 P:y             7
                        (       4.589 eV)
   167     167       --         2.013 au  C             1.00      3 P:y             7
                        (      54.789 eV)
   168     168      0.667      -0.193 au  C             1.00      1 P:z             7
                        (      -5.239 eV)
   169     169       --         0.169 au  C             1.00      2 P:z             7
                        (       4.589 eV)
   170     170       --         2.013 au  C             1.00      3 P:z             7
                        (      54.789 eV)
   171     171       --         1.243 au  C             1.00      1 D:z2            7
                        (      33.824 eV)
   172     172       --         1.243 au  C             1.00      1 D:x2-y2         7
                        (      33.824 eV)
   173     173       --         1.243 au  C             1.00      1 D:xy            7
                        (      33.824 eV)
   174     174       --         1.243 au  C             1.00      1 D:xz            7
                        (      33.824 eV)
   175     175       --         1.243 au  C             1.00      1 D:yz            7
                        (      33.824 eV)
   176     176       --         4.016 au  C             1.00      1 F:z3            7
                        (     109.271 eV)
   177     177       --         4.016 au  C             1.00      1 F:z             7
                        (     109.271 eV)
   178     178       --         4.016 au  C             1.00      1 F:xyz           7
                        (     109.271 eV)
   179     179       --         4.016 au  C             1.00      1 F:z2x           7
                        (     109.271 eV)
   180     180       --         4.016 au  C             1.00      1 F:z2y           7
                        (     109.271 eV)
   181     181       --         4.016 au  C             1.00      1 F:x             7
                        (     109.271 eV)
   182     182       --         4.016 au  C             1.00      1 F:y             7
                        (     109.271 eV)
   183     183      2.000     -10.066 au  C             1.00      1 S               8
                        (    -273.921 eV)
   184     184      2.000      -0.501 au  C             1.00      2 S               8
                        (     -13.620 eV)
   185     185       --         0.373 au  C             1.00      3 S               8
                        (      10.158 eV)
   186     186       --         5.405 au  C             1.00      4 S               8
                        (     147.073 eV)
   187     187       --        49.848 au  C             1.00      5 S               8
                        (    1356.422 eV)
   188     188      0.667      -0.193 au  C             1.00      1 P:x             8
                        (      -5.239 eV)
   189     189       --         0.169 au  C             1.00      2 P:x             8
                        (       4.589 eV)
   190     190       --         2.013 au  C             1.00      3 P:x             8
                        (      54.789 eV)
   191     191      0.667      -0.193 au  C             1.00      1 P:y             8
                        (      -5.239 eV)
   192     192       --         0.169 au  C             1.00      2 P:y             8
                        (       4.589 eV)
   193     193       --         2.013 au  C             1.00      3 P:y             8
                        (      54.789 eV)
   194     194      0.667      -0.193 au  C             1.00      1 P:z             8
                        (      -5.239 eV)
   195     195       --         0.169 au  C             1.00      2 P:z             8
                        (       4.589 eV)
   196     196       --         2.013 au  C             1.00      3 P:z             8
                        (      54.789 eV)
   197     197       --         1.243 au  C             1.00      1 D:z2            8
                        (      33.824 eV)
   198     198       --         1.243 au  C             1.00      1 D:x2-y2         8
                        (      33.824 eV)
   199     199       --         1.243 au  C             1.00      1 D:xy            8
                        (      33.824 eV)
   200     200       --         1.243 au  C             1.00      1 D:xz            8
                        (      33.824 eV)
   201     201       --         1.243 au  C             1.00      1 D:yz            8
                        (      33.824 eV)
   202     202       --         4.016 au  C             1.00      1 F:z3            8
                        (     109.271 eV)
   203     203       --         4.016 au  C             1.00      1 F:z             8
                        (     109.271 eV)
   204     204       --         4.016 au  C             1.00      1 F:xyz           8
                        (     109.271 eV)
   205     205       --         4.016 au  C             1.00      1 F:z2x           8
                        (     109.271 eV)
   206     206       --         4.016 au  C             1.00      1 F:z2y           8
                        (     109.271 eV)
   207     207       --         4.016 au  C             1.00      1 F:x             8
                        (     109.271 eV)
   208     208       --         4.016 au  C             1.00      1 F:y             8
                        (     109.271 eV)
   209     209      2.000     -10.066 au  C             1.00      1 S               9
                        (    -273.921 eV)
   210     210      2.000      -0.501 au  C             1.00      2 S               9
                        (     -13.620 eV)
   211     211       --         0.373 au  C             1.00      3 S               9
                        (      10.158 eV)
   212     212       --         5.405 au  C             1.00      4 S               9
                        (     147.073 eV)
   213     213       --        49.848 au  C             1.00      5 S               9
                        (    1356.422 eV)
   214     214      0.667      -0.193 au  C             1.00      1 P:x             9
                        (      -5.239 eV)
   215     215       --         0.169 au  C             1.00      2 P:x             9
                        (       4.589 eV)
   216     216       --         2.013 au  C             1.00      3 P:x             9
                        (      54.789 eV)
   217     217      0.667      -0.193 au  C             1.00      1 P:y             9
                        (      -5.239 eV)
   218     218       --         0.169 au  C             1.00      2 P:y             9
                        (       4.589 eV)
   219     219       --         2.013 au  C             1.00      3 P:y             9
                        (      54.789 eV)
   220     220      0.667      -0.193 au  C             1.00      1 P:z             9
                        (      -5.239 eV)
   221     221       --         0.169 au  C             1.00      2 P:z             9
                        (       4.589 eV)
   222     222       --         2.013 au  C             1.00      3 P:z             9
                        (      54.789 eV)
   223     223       --         1.243 au  C             1.00      1 D:z2            9
                        (      33.824 eV)
   224     224       --         1.243 au  C             1.00      1 D:x2-y2         9
                        (      33.824 eV)
   225     225       --         1.243 au  C             1.00      1 D:xy            9
                        (      33.824 eV)
   226     226       --         1.243 au  C             1.00      1 D:xz            9
                        (      33.824 eV)
   227     227       --         1.243 au  C             1.00      1 D:yz            9
                        (      33.824 eV)
   228     228       --         4.016 au  C             1.00      1 F:z3            9
                        (     109.271 eV)
   229     229       --         4.016 au  C             1.00      1 F:z             9
                        (     109.271 eV)
   230     230       --         4.016 au  C             1.00      1 F:xyz           9
                        (     109.271 eV)
   231     231       --         4.016 au  C             1.00      1 F:z2x           9
                        (     109.271 eV)
   232     232       --         4.016 au  C             1.00      1 F:z2y           9
                        (     109.271 eV)
   233     233       --         4.016 au  C             1.00      1 F:x             9
                        (     109.271 eV)
   234     234       --         4.016 au  C             1.00      1 F:y             9
                        (     109.271 eV)
   235     235      2.000     -10.066 au  C             1.00      1 S              10
                        (    -273.921 eV)
   236     236      2.000      -0.501 au  C             1.00      2 S              10
                        (     -13.620 eV)
   237     237       --         0.373 au  C             1.00      3 S              10
                        (      10.158 eV)
   238     238       --         5.405 au  C             1.00      4 S              10
                        (     147.073 eV)
   239     239       --        49.848 au  C             1.00      5 S              10
                        (    1356.422 eV)
   240     240      0.667      -0.193 au  C             1.00      1 P:x            10
                        (      -5.239 eV)
   241     241       --         0.169 au  C             1.00      2 P:x            10
                        (       4.589 eV)
   242     242       --         2.013 au  C             1.00      3 P:x            10
                        (      54.789 eV)
   243     243      0.667      -0.193 au  C             1.00      1 P:y            10
                        (      -5.239 eV)
   244     244       --         0.169 au  C             1.00      2 P:y            10
                        (       4.589 eV)
   245     245       --         2.013 au  C             1.00      3 P:y            10
                        (      54.789 eV)
   246     246      0.667      -0.193 au  C             1.00      1 P:z            10
                        (      -5.239 eV)
   247     247       --         0.169 au  C             1.00      2 P:z            10
                        (       4.589 eV)
   248     248       --         2.013 au  C             1.00      3 P:z            10
                        (      54.789 eV)
   249     249       --         1.243 au  C             1.00      1 D:z2           10
                        (      33.824 eV)
   250     250       --         1.243 au  C             1.00      1 D:x2-y2        10
                        (      33.824 eV)
   251     251       --         1.243 au  C             1.00      1 D:xy           10
                        (      33.824 eV)
   252     252       --         1.243 au  C             1.00      1 D:xz           10
                        (      33.824 eV)
   253     253       --         1.243 au  C             1.00      1 D:yz           10
                        (      33.824 eV)
   254     254       --         4.016 au  C             1.00      1 F:z3           10
                        (     109.271 eV)
   255     255       --         4.016 au  C             1.00      1 F:z            10
                        (     109.271 eV)
   256     256       --         4.016 au  C             1.00      1 F:xyz          10
                        (     109.271 eV)
   257     257       --         4.016 au  C             1.00      1 F:z2x          10
                        (     109.271 eV)
   258     258       --         4.016 au  C             1.00      1 F:z2y          10
                        (     109.271 eV)
   259     259       --         4.016 au  C             1.00      1 F:x            10
                        (     109.271 eV)
   260     260       --         4.016 au  C             1.00      1 F:y            10
                        (     109.271 eV)
   261     261      2.000     -10.066 au  C             1.00      1 S              11
                        (    -273.921 eV)
   262     262      2.000      -0.501 au  C             1.00      2 S              11
                        (     -13.620 eV)
   263     263       --         0.373 au  C             1.00      3 S              11
                        (      10.158 eV)
   264     264       --         5.405 au  C             1.00      4 S              11
                        (     147.073 eV)
   265     265       --        49.848 au  C             1.00      5 S              11
                        (    1356.422 eV)
   266     266      0.667      -0.193 au  C             1.00      1 P:x            11
                        (      -5.239 eV)
   267     267       --         0.169 au  C             1.00      2 P:x            11
                        (       4.589 eV)
   268     268       --         2.013 au  C             1.00      3 P:x            11
                        (      54.789 eV)
   269     269      0.667      -0.193 au  C             1.00      1 P:y            11
                        (      -5.239 eV)
   270     270       --         0.169 au  C             1.00      2 P:y            11
                        (       4.589 eV)
   271     271       --         2.013 au  C             1.00      3 P:y            11
                        (      54.789 eV)
   272     272      0.667      -0.193 au  C             1.00      1 P:z            11
                        (      -5.239 eV)
   273     273       --         0.169 au  C             1.00      2 P:z            11
                        (       4.589 eV)
   274     274       --         2.013 au  C             1.00      3 P:z            11
                        (      54.789 eV)
   275     275       --         1.243 au  C             1.00      1 D:z2           11
                        (      33.824 eV)
   276     276       --         1.243 au  C             1.00      1 D:x2-y2        11
                        (      33.824 eV)
   277     277       --         1.243 au  C             1.00      1 D:xy           11
                        (      33.824 eV)
   278     278       --         1.243 au  C             1.00      1 D:xz           11
                        (      33.824 eV)
   279     279       --         1.243 au  C             1.00      1 D:yz           11
                        (      33.824 eV)
   280     280       --         4.016 au  C             1.00      1 F:z3           11
                        (     109.271 eV)
   281     281       --         4.016 au  C             1.00      1 F:z            11
                        (     109.271 eV)
   282     282       --         4.016 au  C             1.00      1 F:xyz          11
                        (     109.271 eV)
   283     283       --         4.016 au  C             1.00      1 F:z2x          11
                        (     109.271 eV)
   284     284       --         4.016 au  C             1.00      1 F:z2y          11
                        (     109.271 eV)
   285     285       --         4.016 au  C             1.00      1 F:x            11
                        (     109.271 eV)
   286     286       --         4.016 au  C             1.00      1 F:y            11
                        (     109.271 eV)
   287     287      2.000     -10.066 au  C             1.00      1 S              12
                        (    -273.921 eV)
   288     288      2.000      -0.501 au  C             1.00      2 S              12
                        (     -13.620 eV)
   289     289       --         0.373 au  C             1.00      3 S              12
                        (      10.158 eV)
   290     290       --         5.405 au  C             1.00      4 S              12
                        (     147.073 eV)
   291     291       --        49.848 au  C             1.00      5 S              12
                        (    1356.422 eV)
   292     292      0.667      -0.193 au  C             1.00      1 P:x            12
                        (      -5.239 eV)
   293     293       --         0.169 au  C             1.00      2 P:x            12
                        (       4.589 eV)
   294     294       --         2.013 au  C             1.00      3 P:x            12
                        (      54.789 eV)
   295     295      0.667      -0.193 au  C             1.00      1 P:y            12
                        (      -5.239 eV)
   296     296       --         0.169 au  C             1.00      2 P:y            12
                        (       4.589 eV)
   297     297       --         2.013 au  C             1.00      3 P:y            12
                        (      54.789 eV)
   298     298      0.667      -0.193 au  C             1.00      1 P:z            12
                        (      -5.239 eV)
   299     299       --         0.169 au  C             1.00      2 P:z            12
                        (       4.589 eV)
   300     300       --         2.013 au  C             1.00      3 P:z            12
                        (      54.789 eV)
   301     301       --         1.243 au  C             1.00      1 D:z2           12
                        (      33.824 eV)
   302     302       --         1.243 au  C             1.00      1 D:x2-y2        12
                        (      33.824 eV)
   303     303       --         1.243 au  C             1.00      1 D:xy           12
                        (      33.824 eV)
   304     304       --         1.243 au  C             1.00      1 D:xz           12
                        (      33.824 eV)
   305     305       --         1.243 au  C             1.00      1 D:yz           12
                        (      33.824 eV)
   306     306       --         4.016 au  C             1.00      1 F:z3           12
                        (     109.271 eV)
   307     307       --         4.016 au  C             1.00      1 F:z            12
                        (     109.271 eV)
   308     308       --         4.016 au  C             1.00      1 F:xyz          12
                        (     109.271 eV)
   309     309       --         4.016 au  C             1.00      1 F:z2x          12
                        (     109.271 eV)
   310     310       --         4.016 au  C             1.00      1 F:z2y          12
                        (     109.271 eV)
   311     311       --         4.016 au  C             1.00      1 F:x            12
                        (     109.271 eV)
   312     312       --         4.016 au  C             1.00      1 F:y            12
                        (     109.271 eV)
   313     313      2.000     -10.066 au  C             1.00      1 S              13
                        (    -273.921 eV)
   314     314      2.000      -0.501 au  C             1.00      2 S              13
                        (     -13.620 eV)
   315     315       --         0.373 au  C             1.00      3 S              13
                        (      10.158 eV)
   316     316       --         5.405 au  C             1.00      4 S              13
                        (     147.073 eV)
   317     317       --        49.848 au  C             1.00      5 S              13
                        (    1356.422 eV)
   318     318      0.667      -0.193 au  C             1.00      1 P:x            13
                        (      -5.239 eV)
   319     319       --         0.169 au  C             1.00      2 P:x            13
                        (       4.589 eV)
   320     320       --         2.013 au  C             1.00      3 P:x            13
                        (      54.789 eV)
   321     321      0.667      -0.193 au  C             1.00      1 P:y            13
                        (      -5.239 eV)
   322     322       --         0.169 au  C             1.00      2 P:y            13
                        (       4.589 eV)
   323     323       --         2.013 au  C             1.00      3 P:y            13
                        (      54.789 eV)
   324     324      0.667      -0.193 au  C             1.00      1 P:z            13
                        (      -5.239 eV)
   325     325       --         0.169 au  C             1.00      2 P:z            13
                        (       4.589 eV)
   326     326       --         2.013 au  C             1.00      3 P:z            13
                        (      54.789 eV)
   327     327       --         1.243 au  C             1.00      1 D:z2           13
                        (      33.824 eV)
   328     328       --         1.243 au  C             1.00      1 D:x2-y2        13
                        (      33.824 eV)
   329     329       --         1.243 au  C             1.00      1 D:xy           13
                        (      33.824 eV)
   330     330       --         1.243 au  C             1.00      1 D:xz           13
                        (      33.824 eV)
   331     331       --         1.243 au  C             1.00      1 D:yz           13
                        (      33.824 eV)
   332     332       --         4.016 au  C             1.00      1 F:z3           13
                        (     109.271 eV)
   333     333       --         4.016 au  C             1.00      1 F:z            13
                        (     109.271 eV)
   334     334       --         4.016 au  C             1.00      1 F:xyz          13
                        (     109.271 eV)
   335     335       --         4.016 au  C             1.00      1 F:z2x          13
                        (     109.271 eV)
   336     336       --         4.016 au  C             1.00      1 F:z2y          13
                        (     109.271 eV)
   337     337       --         4.016 au  C             1.00      1 F:x            13
                        (     109.271 eV)
   338     338       --         4.016 au  C             1.00      1 F:y            13
                        (     109.271 eV)
   339     339      2.000     -10.066 au  C             1.00      1 S              14
                        (    -273.921 eV)
   340     340      2.000      -0.501 au  C             1.00      2 S              14
                        (     -13.620 eV)
   341     341       --         0.373 au  C             1.00      3 S              14
                        (      10.158 eV)
   342     342       --         5.405 au  C             1.00      4 S              14
                        (     147.073 eV)
   343     343       --        49.848 au  C             1.00      5 S              14
                        (    1356.422 eV)
   344     344      0.667      -0.193 au  C             1.00      1 P:x            14
                        (      -5.239 eV)
   345     345       --         0.169 au  C             1.00      2 P:x            14
                        (       4.589 eV)
   346     346       --         2.013 au  C             1.00      3 P:x            14
                        (      54.789 eV)
   347     347      0.667      -0.193 au  C             1.00      1 P:y            14
                        (      -5.239 eV)
   348     348       --         0.169 au  C             1.00      2 P:y            14
                        (       4.589 eV)
   349     349       --         2.013 au  C             1.00      3 P:y            14
                        (      54.789 eV)
   350     350      0.667      -0.193 au  C             1.00      1 P:z            14
                        (      -5.239 eV)
   351     351       --         0.169 au  C             1.00      2 P:z            14
                        (       4.589 eV)
   352     352       --         2.013 au  C             1.00      3 P:z            14
                        (      54.789 eV)
   353     353       --         1.243 au  C             1.00      1 D:z2           14
                        (      33.824 eV)
   354     354       --         1.243 au  C             1.00      1 D:x2-y2        14
                        (      33.824 eV)
   355     355       --         1.243 au  C             1.00      1 D:xy           14
                        (      33.824 eV)
   356     356       --         1.243 au  C             1.00      1 D:xz           14
                        (      33.824 eV)
   357     357       --         1.243 au  C             1.00      1 D:yz           14
                        (      33.824 eV)
   358     358       --         4.016 au  C             1.00      1 F:z3           14
                        (     109.271 eV)
   359     359       --         4.016 au  C             1.00      1 F:z            14
                        (     109.271 eV)
   360     360       --         4.016 au  C             1.00      1 F:xyz          14
                        (     109.271 eV)
   361     361       --         4.016 au  C             1.00      1 F:z2x          14
                        (     109.271 eV)
   362     362       --         4.016 au  C             1.00      1 F:z2y          14
                        (     109.271 eV)
   363     363       --         4.016 au  C             1.00      1 F:x            14
                        (     109.271 eV)
   364     364       --         4.016 au  C             1.00      1 F:y            14
                        (     109.271 eV)
   365     365      2.000     -18.941 au  O             1.00      1 S              15
                        (    -515.403 eV)
   366     366      2.000      -0.876 au  O             1.00      2 S              15
                        (     -23.838 eV)
   367     367       --         0.791 au  O             1.00      3 S              15
                        (      21.524 eV)
   368     368       --        13.422 au  O             1.00      4 S              15
                        (     365.226 eV)
   369     369       --       121.561 au  O             1.00      5 S              15
                        (    3307.838 eV)
   370     370      1.333      -0.331 au  O             1.00      1 P:x            15
                        (      -9.020 eV)
   371     371       --         0.347 au  O             1.00      2 P:x            15
                        (       9.437 eV)
   372     372       --         3.820 au  O             1.00      3 P:x            15
                        (     103.939 eV)
   373     373      1.333      -0.331 au  O             1.00      1 P:y            15
                        (      -9.020 eV)
   374     374       --         0.347 au  O             1.00      2 P:y            15
                        (       9.437 eV)
   375     375       --         3.820 au  O             1.00      3 P:y            15
                        (     103.939 eV)
   376     376      1.333      -0.331 au  O             1.00      1 P:z            15
                        (      -9.020 eV)
   377     377       --         0.347 au  O             1.00      2 P:z            15
                        (       9.437 eV)
   378     378       --         3.820 au  O             1.00      3 P:z            15
                        (     103.939 eV)
   379     379       --         1.071 au  O             1.00      1 D:z2           15
                        (      29.134 eV)
   380     380       --         1.071 au  O             1.00      1 D:x2-y2        15
                        (      29.134 eV)
   381     381       --         1.071 au  O             1.00      1 D:xy           15
                        (      29.134 eV)
   382     382       --         1.071 au  O             1.00      1 D:xz           15
                        (      29.134 eV)
   383     383       --         1.071 au  O             1.00      1 D:yz           15
                        (      29.134 eV)
   384     384       --         3.359 au  O             1.00      1 F:z3           15
                        (      91.410 eV)
   385     385       --         3.359 au  O             1.00      1 F:z            15
                        (      91.410 eV)
   386     386       --         3.359 au  O             1.00      1 F:xyz          15
                        (      91.410 eV)
   387     387       --         3.359 au  O             1.00      1 F:z2x          15
                        (      91.410 eV)
   388     388       --         3.359 au  O             1.00      1 F:z2y          15
                        (      91.410 eV)
   389     389       --         3.359 au  O             1.00      1 F:x            15
                        (      91.410 eV)
   390     390       --         3.359 au  O             1.00      1 F:y            15
                        (      91.410 eV)
   391     391      1.000      -0.240 au  H             1.00      1 S              16
                        (      -6.532 eV)
   392     392       --         0.088 au  H             1.00      2 S              16
                        (       2.394 eV)
   393     393       --         1.502 au  H             1.00      3 S              16
                        (      40.869 eV)
   394     394       --         0.406 au  H             1.00      1 P:x            16
                        (      11.051 eV)
   395     395       --         0.406 au  H             1.00      1 P:y            16
                        (      11.051 eV)
   396     396       --         0.406 au  H             1.00      1 P:z            16
                        (      11.051 eV)
   397     397       --         2.569 au  H             1.00      1 D:z2           16
                        (      69.917 eV)
   398     398       --         2.569 au  H             1.00      1 D:x2-y2        16
                        (      69.917 eV)
   399     399       --         2.569 au  H             1.00      1 D:xy           16
                        (      69.917 eV)
   400     400       --         2.569 au  H             1.00      1 D:xz           16
                        (      69.917 eV)
   401     401       --         2.569 au  H             1.00      1 D:yz           16
                        (      69.917 eV)
   402     402      1.000      -0.240 au  H             1.00      1 S              17
                        (      -6.532 eV)
   403     403       --         0.088 au  H             1.00      2 S              17
                        (       2.394 eV)
   404     404       --         1.502 au  H             1.00      3 S              17
                        (      40.869 eV)
   405     405       --         0.406 au  H             1.00      1 P:x            17
                        (      11.051 eV)
   406     406       --         0.406 au  H             1.00      1 P:y            17
                        (      11.051 eV)
   407     407       --         0.406 au  H             1.00      1 P:z            17
                        (      11.051 eV)
   408     408       --         2.569 au  H             1.00      1 D:z2           17
                        (      69.917 eV)
   409     409       --         2.569 au  H             1.00      1 D:x2-y2        17
                        (      69.917 eV)
   410     410       --         2.569 au  H             1.00      1 D:xy           17
                        (      69.917 eV)
   411     411       --         2.569 au  H             1.00      1 D:xz           17
                        (      69.917 eV)
   412     412       --         2.569 au  H             1.00      1 D:yz           17
                        (      69.917 eV)
   413     413      1.000      -0.240 au  H             1.00      1 S              18
                        (      -6.532 eV)
   414     414       --         0.088 au  H             1.00      2 S              18
                        (       2.394 eV)
   415     415       --         1.502 au  H             1.00      3 S              18
                        (      40.869 eV)
   416     416       --         0.406 au  H             1.00      1 P:x            18
                        (      11.051 eV)
   417     417       --         0.406 au  H             1.00      1 P:y            18
                        (      11.051 eV)
   418     418       --         0.406 au  H             1.00      1 P:z            18
                        (      11.051 eV)
   419     419       --         2.569 au  H             1.00      1 D:z2           18
                        (      69.917 eV)
   420     420       --         2.569 au  H             1.00      1 D:x2-y2        18
                        (      69.917 eV)
   421     421       --         2.569 au  H             1.00      1 D:xy           18
                        (      69.917 eV)
   422     422       --         2.569 au  H             1.00      1 D:xz           18
                        (      69.917 eV)
   423     423       --         2.569 au  H             1.00      1 D:yz           18
                        (      69.917 eV)
   424     424      1.000      -0.240 au  H             1.00      1 S              19
                        (      -6.532 eV)
   425     425       --         0.088 au  H             1.00      2 S              19
                        (       2.394 eV)
   426     426       --         1.502 au  H             1.00      3 S              19
                        (      40.869 eV)
   427     427       --         0.406 au  H             1.00      1 P:x            19
                        (      11.051 eV)
   428     428       --         0.406 au  H             1.00      1 P:y            19
                        (      11.051 eV)
   429     429       --         0.406 au  H             1.00      1 P:z            19
                        (      11.051 eV)
   430     430       --         2.569 au  H             1.00      1 D:z2           19
                        (      69.917 eV)
   431     431       --         2.569 au  H             1.00      1 D:x2-y2        19
                        (      69.917 eV)
   432     432       --         2.569 au  H             1.00      1 D:xy           19
                        (      69.917 eV)
   433     433       --         2.569 au  H             1.00      1 D:xz           19
                        (      69.917 eV)
   434     434       --         2.569 au  H             1.00      1 D:yz           19
                        (      69.917 eV)
   435     435      1.000      -0.240 au  H             1.00      1 S              20
                        (      -6.532 eV)
   436     436       --         0.088 au  H             1.00      2 S              20
                        (       2.394 eV)
   437     437       --         1.502 au  H             1.00      3 S              20
                        (      40.869 eV)
   438     438       --         0.406 au  H             1.00      1 P:x            20
                        (      11.051 eV)
   439     439       --         0.406 au  H             1.00      1 P:y            20
                        (      11.051 eV)
   440     440       --         0.406 au  H             1.00      1 P:z            20
                        (      11.051 eV)
   441     441       --         2.569 au  H             1.00      1 D:z2           20
                        (      69.917 eV)
   442     442       --         2.569 au  H             1.00      1 D:x2-y2        20
                        (      69.917 eV)
   443     443       --         2.569 au  H             1.00      1 D:xy           20
                        (      69.917 eV)
   444     444       --         2.569 au  H             1.00      1 D:xz           20
                        (      69.917 eV)
   445     445       --         2.569 au  H             1.00      1 D:yz           20
                        (      69.917 eV)
   446     446      1.000      -0.240 au  H             1.00      1 S              21
                        (      -6.532 eV)
   447     447       --         0.088 au  H             1.00      2 S              21
                        (       2.394 eV)
   448     448       --         1.502 au  H             1.00      3 S              21
                        (      40.869 eV)
   449     449       --         0.406 au  H             1.00      1 P:x            21
                        (      11.051 eV)
   450     450       --         0.406 au  H             1.00      1 P:y            21
                        (      11.051 eV)
   451     451       --         0.406 au  H             1.00      1 P:z            21
                        (      11.051 eV)
   452     452       --         2.569 au  H             1.00      1 D:z2           21
                        (      69.917 eV)
   453     453       --         2.569 au  H             1.00      1 D:x2-y2        21
                        (      69.917 eV)
   454     454       --         2.569 au  H             1.00      1 D:xy           21
                        (      69.917 eV)
   455     455       --         2.569 au  H             1.00      1 D:xz           21
                        (      69.917 eV)
   456     456       --         2.569 au  H             1.00      1 D:yz           21
                        (      69.917 eV)
   457     457      1.000      -0.240 au  H             1.00      1 S              22
                        (      -6.532 eV)
   458     458       --         0.088 au  H             1.00      2 S              22
                        (       2.394 eV)
   459     459       --         1.502 au  H             1.00      3 S              22
                        (      40.869 eV)
   460     460       --         0.406 au  H             1.00      1 P:x            22
                        (      11.051 eV)
   461     461       --         0.406 au  H             1.00      1 P:y            22
                        (      11.051 eV)
   462     462       --         0.406 au  H             1.00      1 P:z            22
                        (      11.051 eV)
   463     463       --         2.569 au  H             1.00      1 D:z2           22
                        (      69.917 eV)
   464     464       --         2.569 au  H             1.00      1 D:x2-y2        22
                        (      69.917 eV)
   465     465       --         2.569 au  H             1.00      1 D:xy           22
                        (      69.917 eV)
   466     466       --         2.569 au  H             1.00      1 D:xz           22
                        (      69.917 eV)
   467     467       --         2.569 au  H             1.00      1 D:yz           22
                        (      69.917 eV)
   468     468      1.000      -0.240 au  H             1.00      1 S              23
                        (      -6.532 eV)
   469     469       --         0.088 au  H             1.00      2 S              23
                        (       2.394 eV)
   470     470       --         1.502 au  H             1.00      3 S              23
                        (      40.869 eV)
   471     471       --         0.406 au  H             1.00      1 P:x            23
                        (      11.051 eV)
   472     472       --         0.406 au  H             1.00      1 P:y            23
                        (      11.051 eV)
   473     473       --         0.406 au  H             1.00      1 P:z            23
                        (      11.051 eV)
   474     474       --         2.569 au  H             1.00      1 D:z2           23
                        (      69.917 eV)
   475     475       --         2.569 au  H             1.00      1 D:x2-y2        23
                        (      69.917 eV)
   476     476       --         2.569 au  H             1.00      1 D:xy           23
                        (      69.917 eV)
   477     477       --         2.569 au  H             1.00      1 D:xz           23
                        (      69.917 eV)
   478     478       --         2.569 au  H             1.00      1 D:yz           23
                        (      69.917 eV)
[...]
                                    3.60%     1 S              -6.532  1.00    23 H
                                    3.40%     1 P:x            -5.239  0.67    13 C
                                   -3.36%     2 P:y             4.589  0.00     7 C
                                   -3.12%     2 P:z             4.589  0.00    13 C
                                   -3.09%     2 P:x             4.589  0.00     3 C
                                    2.82%     1 P:x            -5.239  0.67    12 C
                                    2.64%     1 P:y            -5.239  0.67    12 C
                                   -2.52%     2 P:z             4.589  0.00     7 C
                                    2.42%     1 P:x            -5.239  0.67    11 C
                                    2.42%     2 S               2.394  0.00    16 H
                                    2.32%     1 S              -6.532  1.00    21 H
                                    2.26%     2 S               2.394  0.00    25 H
                                    2.15%     2 S               2.394  0.00    23 H
                                    2.08%     1 P:x            -5.239  0.67    10 C
                                   -2.07%     2 P:y             4.589  0.00     6 C
                                   -1.92%     2 P:y             4.589  0.00     3 C
                                    1.85%     1 S              -6.532  1.00    18 H
                                    1.66%     2 S               2.394  0.00    18 H
                                   -1.64%     2 P:z             4.589  0.00     4 C
                                   -1.60%     2 P:z             4.589  0.00    10 C
                                   -1.42%     2 P:y             4.589  0.00     4 C
                                    1.42%     1 P:x            -5.239  0.67     5 C
                                   -1.41%     2 P:z             4.589  0.00     6 C
                                    1.40%     1 P:y            -5.239  0.67    13 C
                                    1.35%     2 P:x             4.589  0.00     7 C
                                   -1.34%     2 P:x             4.589  0.00    10 C
                                    1.32%     2 S             -13.620  2.00     6 C
                                    1.30%     1 P:y            -5.239  0.67    11 C
                                   -1.28%     3 S              14.073  0.00     1 N
                                    1.25%     3 S              40.869  0.00    19 H
                                    1.25%     1 P:x            -5.239  0.67     9 C
                                    1.21%     2 S             -18.450  2.00     1 N
                                   -1.21%     2 P:y             4.589  0.00    12 C



 =======================================================================
 Electrostatic potential at the Nuclei due to electrons and other nuclei
 =======================================================================
  
         Atom                  Potential
         ----                  ---------
     1)   N                  18.40652128
     2)   C                  14.75987294
     3)   C                  14.79388037
     4)   C                  14.79225038
     5)   C                  14.79872459
     6)   C                  14.79298773
     7)   C                  14.79667328
     8)   O                  22.28983140
     9)   C                  14.69698447
    10)   C                  14.74672669
    11)   C                  14.75903643
    12)   C                  14.76574286
    13)   C                  14.76328307
    14)   C                  14.76852530
    15)   C                  14.76561813
    16)   H                   1.10836478
    17)   H                   1.11292407
    18)   H                   1.11522795
    19)   H                   1.11378856
    20)   H                   1.11506846
    21)   H                   1.07068349
    22)   H                   1.07975282
    23)   H                   1.08602323
    24)   H                   1.08640062
    25)   H                   1.09068734
    26)   H                   1.09272478
 Mulliken charges used for AMS results%charges...


    =====================
     CALCULATION RESULTS
    =====================

Energy (hartree)            -5.92803647


--------------
Atomic charges
--------------
  Index   Atom    Charge
      1      N   -0.1159
      2      C    0.0590
      3      C    0.1652
      4      C    0.2260
      5      C    0.1835
      6      C    0.2109
      7      C    0.2115
      8      O   -0.3284
      9      C    0.5249
     10      C   -0.0722
     11      C    0.2709
     12      C    0.2056
     13      C    0.2226
     14      C    0.2416
     15      C    0.2456
     16      H   -0.1937
     17      H   -0.2293
     18      H   -0.2168
     19      H   -0.2184
     20      H   -0.2002
     21      H   -0.2011
     22      H   -0.2131
     23      H   -0.2073
     24      H   -0.2032
     25      H   -0.2198
     26      H   -0.1480


Dipole moment vector    (Debye):    -3.65187080   -0.46859015    2.53843633
              magnitude (Debye):     4.47206843


-----------------------
Molecular orbitals info
-----------------------
n orbitals:              511
n spin:                    1

Note: only printing virtual orbitals with
      energy smaller than HOMO + 100. eV

HOMO (eV):              -4.3222
LUMO (eV):              -3.5899
HOMO-LUMO gap (eV):      0.7323

   Index   Energy (eV)    Occupation
     325       95.4028         0.000       
     324       95.2104         0.000       
     323       94.4898         0.000       
     322       94.3142         0.000       
     321       93.6325         0.000       
     320       93.2809         0.000       
     319       92.9653         0.000       
     318       92.8475         0.000       
     317       92.5358         0.000       
     316       92.3394         0.000       
     315       91.3750         0.000       
     314       91.1416         0.000       
     313       90.7452         0.000       
     312       90.5181         0.000       
     311       89.8805         0.000       
     310       88.9546         0.000       
     309       88.7452         0.000       
     308       88.3221         0.000       
     307       87.6686         0.000       
     306       87.5617         0.000       
     305       87.1373         0.000       
     304       87.0593         0.000       
     303       86.3030         0.000       
     302       86.2086         0.000       
     301       85.7299         0.000       
     300       85.5071         0.000       
     299       84.9933         0.000       
     298       84.5841         0.000       
     297       83.3545         0.000       
     296       83.1141         0.000       
     295       82.7251         0.000       
     294       82.1951         0.000       
     293       81.8918         0.000       
     292       81.0621         0.000       
     291       80.7516         0.000       
     290       80.6131         0.000       
     289       80.5504         0.000       
     288       80.3563         0.000       
     287       79.8160         0.000       
     286       79.4698         0.000       
     285       79.2336         0.000       
     284       78.1796         0.000       
     283       77.8911         0.000       
     282       77.4745         0.000       
     281       77.1710         0.000       
     280       76.5223         0.000       
     279       75.7135         0.000       
     278       75.4187         0.000       
     277       74.8588         0.000       
     276       74.7400         0.000       
     275       73.9479         0.000       
     274       73.9110         0.000       
     273       73.5387         0.000       
     272       73.1683         0.000       
     271       72.6548         0.000       
     270       72.1670         0.000       
     269       71.9570         0.000       
     268       71.4504         0.000       
     267       71.1201         0.000       
     266       70.1173         0.000       
     265       69.6666         0.000       
     264       69.3811         0.000       
     263       68.5839         0.000       
     262       68.4184         0.000       
     261       67.6004         0.000       
     260       67.3754         0.000       
     259       67.1178         0.000       
     258       66.9098         0.000       
     257       65.8800         0.000       
     256       65.1287         0.000       
     255       64.8094         0.000       
     254       64.6332         0.000       
     253       64.1881         0.000       
     252       64.1369         0.000       
     251       63.6764         0.000       
     250       63.5553         0.000       
     249       63.0979         0.000       
     248       62.8257         0.000       
     247       62.5907         0.000       
     246       62.2327         0.000       
     245       61.8043         0.000       
     244       61.4983         0.000       
     243       61.0773         0.000       
     242       60.5874         0.000       
     241       59.5259         0.000       
     240       58.6474         0.000       
     239       58.3817         0.000       
     238       57.6169         0.000       
     237       56.2509         0.000       
     236       55.7215         0.000       
     235       55.4878         0.000       
     234       55.1267         0.000       
     233       54.7245         0.000       
     232       54.0825         0.000       
     231       53.7331         0.000       
     230       53.5708         0.000       
     229       53.1783         0.000       
     228       52.7790         0.000       
     227       51.9642         0.000       
     226       51.9477         0.000       
     225       51.7049         0.000       
     224       51.1975         0.000       
     223       50.6780         0.000       
     222       50.4173         0.000       
     221       50.2915         0.000       
     220       49.9112         0.000       
     219       49.5133         0.000       
     218       49.2668         0.000       
     217       49.0961         0.000       
     216       48.6934         0.000       
     215       48.0819         0.000       
     214       47.6110         0.000       
     213       47.1735         0.000       
     212       46.3091         0.000       
     211       45.8085         0.000       
     210       45.3784         0.000       
     209       44.9971         0.000       
     208       44.4437         0.000       
     207       43.4082         0.000       
     206       42.4498         0.000       
     205       42.2533         0.000       
     204       41.3482         0.000       
     203       41.0861         0.000       
     202       40.8921         0.000       
     201       40.4708         0.000       
     200       40.1410         0.000       
     199       39.8600         0.000       
     198       39.4080         0.000       
     197       39.2073         0.000       
     196       38.9069         0.000       
     195       38.8233         0.000       
     194       38.5428         0.000       
     193       38.1944         0.000       
     192       37.6345         0.000       
     191       37.3625         0.000       
     190       37.2882         0.000       
     189       37.1033         0.000       
     188       36.6505         0.000       
     187       36.4593         0.000       
     186       35.9191         0.000       
     185       35.6714         0.000       
     184       35.1915         0.000       
     183       34.9186         0.000       
     182       34.6985         0.000       
     181       34.3410         0.000       
     180       34.1132         0.000       
     179       33.5669         0.000       
     178       33.1331         0.000       
     177       32.6439         0.000       
     176       32.3597         0.000       
     175       31.7212         0.000       
     174       31.3629         0.000       
     173       30.8247         0.000       
     172       30.4568         0.000       
     171       29.9435         0.000       
     170       29.5366         0.000       
     169       29.3145         0.000       
     168       29.2265         0.000       
     167       28.8893         0.000       
     166       28.3607         0.000       
     165       27.9781         0.000       
     164       27.7886         0.000       
     163       27.6821         0.000       
     162       27.3240         0.000       
     161       27.1674         0.000       
     160       26.7947         0.000       
     159       26.4913         0.000       
     158       25.9885         0.000       
     157       25.7460         0.000       
     156       25.1473         0.000       
     155       24.8167         0.000       
     154       24.3700         0.000       
     153       24.2868         0.000       
     152       23.7687         0.000       
     151       23.6344         0.000       
     150       23.2457         0.000       
     149       22.9782         0.000       
     148       22.8533         0.000       
     147       22.0800         0.000       
     146       21.9432         0.000       
     145       21.5147         0.000       
     144       21.0651         0.000       
     143       20.9664         0.000       
     142       20.2193         0.000       
     141       19.8110         0.000       
     140       19.5834         0.000       
     139       19.4140         0.000       
     138       19.1042         0.000       
     137       18.9401         0.000       
     136       18.4841         0.000       
     135       18.2706         0.000       
     134       18.1677         0.000       
     133       17.9387         0.000       
     132       17.8850         0.000       
     131       17.4609         0.000       
     130       17.3764         0.000       
     129       17.2427         0.000       
     128       16.2009         0.000       
     127       15.7563         0.000       
     126       15.2550         0.000       
     125       14.6872         0.000       
     124       14.4843         0.000       
     123       14.2516         0.000       
     122       13.9999         0.000       
     121       13.6000         0.000       
     120       13.5070         0.000       
     119       13.0380         0.000       
     118       12.7035         0.000       
     117       12.4350         0.000       
     116       12.2234         0.000       
     115       11.9372         0.000       
     114       11.7789         0.000       
     113       11.2325         0.000       
     112       11.0697         0.000       
     111       10.7256         0.000       
     110       10.5479         0.000       
     109       10.1967         0.000       
     108       10.0809         0.000       
     107        9.8955         0.000       
     106        9.8606         0.000       
     105        9.4506         0.000       
     104        9.2455         0.000       
     103        9.0680         0.000       
     102        8.9134         0.000       
     101        8.8771         0.000       
     100        8.7331         0.000       
      99        8.6293         0.000       
      98        8.4130         0.000       
      97        8.2505         0.000       
      96        8.1591         0.000       
      95        8.1172         0.000       
      94        7.6031         0.000       
      93        7.4601         0.000       
      92        7.4219         0.000       
      91        7.0405         0.000       
      90        6.9686         0.000       
      89        6.8199         0.000       
      88        6.4572         0.000       
      87        6.1617         0.000       
      86        5.6570         0.000       
      85        5.5425         0.000       
      84        5.5341         0.000       
      83        5.3964         0.000       
      82        5.2402         0.000       
      81        5.0518         0.000       
      80        4.9698         0.000       
      79        4.8392         0.000       
      78        4.7824         0.000       
      77        4.4265         0.000       
      76        4.2054         0.000       
      75        4.0633         0.000       
      74        3.8003         0.000       
      73        3.5486         0.000       
      72        3.1638         0.000       
      71        2.7642         0.000       
      70        2.4882         0.000       
      69        2.3259         0.000       
      68        2.2019         0.000       
      67        2.1071         0.000       
      66        1.6128         0.000       
      65        1.3839         0.000       
      64        1.0693         0.000       
      63        1.0318         0.000       
      62        0.7012         0.000       
      61        0.5924         0.000       
      60        0.1829         0.000       
      59       -0.0162         0.000       
      58       -0.3915         0.000       
      57       -0.4654         0.000       
      56       -0.9056         0.000       
      55       -1.1441         0.000       
      54       -1.7400         0.000       
      53       -3.5899         0.000 < LUMO
      52       -4.3222         2.000 < HOMO
      51       -5.9991         2.000       
      50       -6.2884         2.000       
      49       -6.8424         2.000       
      48       -6.9162         2.000       
      47       -7.4238         2.000       
      46       -8.0865         2.000       
      45       -8.5334         2.000       
      44       -8.6458         2.000       
      43       -8.8038         2.000       
      42       -9.2014         2.000       
      41       -9.4607         2.000       
      40       -9.7176         2.000       
      39      -10.0071         2.000       
      38      -10.4942         2.000       
      37      -10.7533         2.000       
      36      -10.8027         2.000       
      35      -11.2266         2.000       
      34      -11.3242         2.000       
      33      -11.5887         2.000       
      32      -12.0823         2.000       
      31      -12.4244         2.000       
      30      -12.8475         2.000       
      29      -13.4205         2.000       
      28      -14.0350         2.000       
      27      -14.6504         2.000       
      26      -15.4335         2.000       
      25      -15.4774         2.000       
      24      -16.4833         2.000       
      23      -17.9982         2.000       
      22      -18.1911         2.000       
      21      -18.9690         2.000       
      20      -19.4908         2.000       
      19      -20.4793         2.000       
      18      -21.7683         2.000       
      17      -22.0228         2.000       
      16      -28.6782         2.000       
      15     -269.7463         2.000       
      14     -269.8109         2.000       
      13     -269.8819         2.000       
      12     -269.9227         2.000       
      11     -269.9415         2.000       
      10     -270.5942         2.000       
       9     -270.6662         2.000       
       8     -270.6905         2.000       
       7     -270.7440         2.000       
       6     -270.8093         2.000       
       5     -270.8662         2.000       
       4     -271.1481         2.000       
       3     -272.5349         2.000       
       2     -382.2166         2.000       
       1     -514.4601         2.000       

AMS application finished. Exiting.
NORMAL TERMINATION
     Total cpu time:     201.41
  Total system time:       1.11
 Total elapsed time:     203.66
NORMAL TERMINATION
