
 *******************************************************************************
 *                                                                             *
 *  --------------------------------                                           *
 *   Amsterdam Modeling Suite (AMS)              2026.103                      *
 *  --------------------------------                                           *
 *                                               r260501 2026-05-01 873454b5   *
 *                                                                             *
 *                                                                             *
 *                              =================                              *
 *                              |               |                              *
 *                              |     A M S     |                              *
 *                              |               |                              *
 *                              =================                              *
 *                                                                             *
 *                                                                             *
 *   Online information and documentation:  https://www.scm.com/support/       *
 *   E-mail:  support@scm.com   info@scm.com                                   *
 *                                                                             *
 *   Scientific publications using AMS results must be properly referenced     *
 *   See the User Manuals (or the web site) for recommended citations          *
 *   The terms and conditions of the End User License Agreement apply to       *
 *   the use of AMS, https://www.scm.com/license-terms/                        *
 *                                                                             *
 **********************  x86_64_linux_intel / intelmpi  ************************
 
 Licensed to: Jong-June Jeon / University of Seoul 2026-06-02 13:44:15
 SCM User ID: u30731
  
 AMS 2026.103  RunTime: Jun03-2026 19:07:30  ShM Nodes: 1  Procs: 1

 AMS jobname: c2_fragB_ts
 AMS jobid  : 1528233788

 Start   directory: /gpfs/home1/yeseo1ee/projects/eda-asm-prediction/ADF_800/adf_outputs/batch_004/qmrxn20_e2_B_D_E_D_B_A/
 Results directory: /gpfs/home1/yeseo1ee/projects/eda-asm-prediction/ADF_800/adf_outputs/batch_004/qmrxn20_e2_B_D_E_D_B_A/c2_fragB_ts.results/
 Scratch directory: /tmp/amstmp_c2_fragB_ts_kid0.1528233788/

 RNG seed: 2017189667 1505714848 -1126165086 2121998548 -1332003462 -1859901071 366448509 879077241



                      ************************************************************************
                      *  ADF 2026.103  RunTime: Jun03-2026 19:07:31  ShM Nodes: 1  Procs: 1  *
                      ************************************************************************
  

       ****************************
       * SINGLE POINT CALCULATION *
       ****************************

--------
Geometry
--------
Formula: C4H9ClN2O2
Atoms
  Index Symbol   x (angstrom)   y (angstrom)   z (angstrom)
      1      C    -0.15587711     0.00616913    -0.44561847
      2      C    -0.26656179    -0.03645339     1.02253000
      3     Cl     1.62237955    -0.03455020    -1.10777145
      4      H    -1.48382891    -0.04576830     1.33092112
      5      C    -0.80127014     1.22450353    -1.05702830
      6      H    -0.81241847     1.15676415    -2.14618554
      7      H    -1.82137772     1.30681817    -0.67526536
      8      H    -0.23450291     2.09266170    -0.73178846
      9      N     0.07802682     1.25392075     1.59192105
     10      H     0.94396066     1.18326849     2.11508995
     11      H    -0.68366303     1.46246173     2.24957520
     12      C     0.35055101    -1.20647806     1.75296469
     13      H     1.44670774    -1.13575982     1.77951163
     14      H    -0.03045072    -1.17800123     2.78076676
     15      H     0.08939860    -2.17402198     1.32135588
     16      N    -0.80182837    -1.25106630    -1.01452211
     17      O    -1.96569072    -1.13558047    -1.40134916
     18      O    -0.17824764    -2.30896203    -0.99593879

Total System Charge              0.00000


----------------
ADF Engine Input
----------------
 
   Basis
     Type TZ2P
     Core None
   End
   XC
     GGA BLYP
     Dispersion GRIMME3 BJDAMP
   End
   Symmetry NOSYM
   NumericalQuality Normal
   Unrestricted No
   SCF
     Iterations 200
     Converge 1.0e-6
   End
   Save TAPE21
 

 Title: *** (NO TITLE) ***

 *** adf ***



 ===========================
 A T T A C H E D   F I L E S
 ===========================
  



 ===============================
 M O D E L   P A R A M E T E R S
 ===============================
  
 DENSITY FUNCTIONAL POTENTIAL (scf)
    LDA:                               Exchange only                           == Not Default ==
    Gradient Corrections:              Becke88 LYP                             == Not Default ==

 SPIN  (restricted / unrestr.)
    Molecule:                          Restricted                               
    Fragments:                         Restricted                               

 OTHER ASPECTS
    Relativistic Corrections:          scalar (ZORA,MAPA)                       

    Nuclear Charge Density Model:      Point Charge Nuclei                      
    Core Treatment:                    Frozen Orbital(s)                        

    Hyperfine or Zeeman Interaction:   ---                                      

 Settings for Grimme D3 dispersion correction

      damping                        BJ
      s6                          1.000
      s8                          2.700
      a1                          0.430
      a2                          4.236

 Other (technical) parameters

      alpha                      14.000
      version                         4
 


 Fragment File(s)
 ----------------
 C:
         file : /gpfs/home1/yeseo1ee/projects/eda-asm-prediction/ADF_800/adf_outputs/batch_004/qmrxn20_e2_B_D_E_D_B_A/c2_fragB_ts.results/t21.50BA88D5.C
         jobid: 0
         title: Carbon (TZ2P)
 Cl:
         file : /gpfs/home1/yeseo1ee/projects/eda-asm-prediction/ADF_800/adf_outputs/batch_004/qmrxn20_e2_B_D_E_D_B_A/c2_fragB_ts.results/t21.3FD35465.Cl
         jobid: 0
         title: Chlorine (TZ2P)
 H:
         file : /gpfs/home1/yeseo1ee/projects/eda-asm-prediction/ADF_800/adf_outputs/batch_004/qmrxn20_e2_B_D_E_D_B_A/c2_fragB_ts.results/t21.6F35CCAB.H
         jobid: 0
         title: Hydrogen (TZ2P)
 N:
         file : /gpfs/home1/yeseo1ee/projects/eda-asm-prediction/ADF_800/adf_outputs/batch_004/qmrxn20_e2_B_D_E_D_B_A/c2_fragB_ts.results/t21.44EAA48D.N
         jobid: 0
         title: Nitrogen (TZ2P)
 O:
         file : /gpfs/home1/yeseo1ee/projects/eda-asm-prediction/ADF_800/adf_outputs/batch_004/qmrxn20_e2_B_D_E_D_B_A/c2_fragB_ts.results/t21.6E90ABAE.O
         jobid: 0
         title: Oxygen (TZ2P)



 ===============
 G E O M E T R Y  ***  3D  Molecule  ***
 ===============
  

 ATOMS
 =====                            X Y Z                    CHARGE
                                (Angstrom)             Nucl     +Core       At.Mass
                       --------------------------    ----------------       -------
    1  C              -0.1559    0.0062   -0.4456      6.00      6.00       12.0000
    2  C              -0.2666   -0.0365    1.0225      6.00      6.00       12.0000
    3  Cl              1.6224   -0.0346   -1.1078     17.00     17.00       34.9689
    4  H              -1.4838   -0.0458    1.3309      1.00      1.00        1.0078
    5  C              -0.8013    1.2245   -1.0570      6.00      6.00       12.0000
    6  H              -0.8124    1.1568   -2.1462      1.00      1.00        1.0078
    7  H              -1.8214    1.3068   -0.6753      1.00      1.00        1.0078
    8  H              -0.2345    2.0927   -0.7318      1.00      1.00        1.0078
    9  N               0.0780    1.2539    1.5919      7.00      7.00       14.0031
   10  H               0.9440    1.1833    2.1151      1.00      1.00        1.0078
   11  H              -0.6837    1.4625    2.2496      1.00      1.00        1.0078
   12  C               0.3506   -1.2065    1.7530      6.00      6.00       12.0000
   13  H               1.4467   -1.1358    1.7795      1.00      1.00        1.0078
   14  H              -0.0305   -1.1780    2.7808      1.00      1.00        1.0078
   15  H               0.0894   -2.1740    1.3214      1.00      1.00        1.0078
   16  N              -0.8018   -1.2511   -1.0145      7.00      7.00       14.0031
   17  O              -1.9657   -1.1356   -1.4013      8.00      8.00       15.9949
   18  O              -0.1782   -2.3090   -0.9959      8.00      8.00       15.9949


 FRAGMENTS
 =========                                     Atoms in this Fragment     Cart. coord.s (Angstrom)
                                               -------------------------------------------------------
    1  C                                                 1  C           -0.1559    0.0062   -0.4456
    2  C                                                 2  C           -0.2666   -0.0365    1.0225
    3  C                                                 5  C           -0.8013    1.2245   -1.0570
    4  C                                                12  C            0.3506   -1.2065    1.7530
    5  Cl                                                3  Cl           1.6224   -0.0346   -1.1078
    6  H                                                 4  H           -1.4838   -0.0458    1.3309
    7  H                                                 6  H           -0.8124    1.1568   -2.1462
    8  H                                                 7  H           -1.8214    1.3068   -0.6753
    9  H                                                 8  H           -0.2345    2.0927   -0.7318
   10  H                                                10  H            0.9440    1.1833    2.1151
   11  H                                                11  H           -0.6837    1.4625    2.2496
   12  H                                                13  H            1.4467   -1.1358    1.7795
   13  H                                                14  H           -0.0305   -1.1780    2.7808
   14  H                                                15  H            0.0894   -2.1740    1.3214
   15  N                                                 9  N            0.0780    1.2539    1.5919
   16  N                                                16  N           -0.8018   -1.2511   -1.0145
   17  O                                                17  O           -1.9657   -1.1356   -1.4013
   18  O                                                18  O           -0.1782   -2.3090   -0.9959


 Interatomic Distance Matrix (Angstrom)
 --------------------------------------

   1)     0.000
   2)     1.473   0.000
   3)     1.898   2.847   0.000
   4)     2.219   1.256   3.949   0.000
   5)     1.508   2.490   2.732   2.790   0.000
   6)     2.156   3.430   2.903   3.740   1.091   0.000
   7)     2.126   2.665   3.721   2.443   1.092   1.790   0.000
   8)     2.107   2.759   2.849   3.223   1.087   1.792   1.772   0.000
   9)     2.401   1.452   3.367   2.049   2.791   3.844   2.958   2.490   0.000
  10)     3.025   2.036   3.511   2.832   3.621   4.609   3.930   3.213   1.014   0.000
  11)     3.109   1.982   4.339   1.939   3.317   4.408   3.142   3.080   1.028   1.657
          0.000
  12)     2.561   1.511   3.343   2.211   3.890   4.705   4.115   4.171   2.481   2.489
          2.905   0.000
  13)     2.970   2.172   3.095   3.159   4.321   5.076   4.762   4.422   2.760   2.397
          3.393   1.099   0.000
  14)     3.439   2.110   4.377   2.344   4.593   5.508   4.618   4.804   2.709   2.640
          2.771   1.097   1.785   0.000
  15)     2.817   2.188   3.582   2.647   4.243   4.892   4.445   4.746   3.439   3.554
          3.832   1.091   1.769   1.771   0.000
  16)     1.524   2.431   2.714   2.724   2.476   2.661   2.774   3.403   3.721   4.332
          4.246   2.998   3.588   3.874   2.665   0.000
  17)     2.344   3.158   3.765   2.981   2.654   2.672   2.552   3.724   4.341   5.119
          4.661   3.914   4.665   4.608   3.566   1.232   0.000
  18)     2.380   3.041   2.903   3.499   3.588   3.706   3.985   4.410   4.411   4.810
          5.001   3.009   3.423   3.945   2.337   1.228   2.176   0.000

 Min. Distance =    1.0142
 Max. Distance =    5.5079



 =====================================
 S Y M M E T R Y ,   E L E C T R O N S
 =====================================
  
 Symmetry: NOSYM

 Irreducible Representations, including subspecies
 -------------------------------------------------
 A


 Configuration of Valence Electrons
 ==================================
 ( determined in the SCF procedure )

 Total:   80

 Net Charge: 0 (Nuclei minus Electrons)

 Aufbau principle for MO occupations will be applied through SCF cycle no.     100
 Thereafter, the program will assign electrons to MOs that are spatially
 similar to the occupied MOs in a "reference" cycle ("KeepOrbitals").
 The reference cycle is always the PREVIOUS cycle: it will evolve with
 the SCF procedure.
 ***************************************************************************************************



                                      ****************************************
                                      *  B U I L D : (Fragments, Functions)  *
                                      ****************************************
  



 =======
 S F O s  ***  (Symmetrized Fragment Orbitals)  ***
 =======
  
 SFOs are linear combinations of (valence) Fragment Orbitals (FOs), such that the SFOs transform as the
 irreducible representations of the (molecular) symmetry group. Each SFO is therefore characterized by
 an irrep of the molecule and by a few (or only one) generating FOs.
 The SFOs constitute a symmetry-adapted basis for the Fock matrix. The MO eigenvector coefficients in
 this basis provide a direct interpretation of the MOs in terms of Frontier Orbital Theory.

 The SFOs are combined with auxiliary Core Functions (CFs) to ensure orthogonalization on the (frozen)
 Core Orbitals (COs). The Core-orthogonalized SFOs (CSFOs) constitute the true Fock basis.

 The FOs, and hence also the (C)SFOs are combinations of the elementary basis functions (BAS). The basis
 functions that participate in the description of the SFOs depend on the irrep. The indices of the
 involved functions are printed below for each irrep.
 (The complete list of primitive basis functions is printed in another section)

 Total nr. of (C)SFOs (summation over all irreps) :   341

 NOTE: a (C)SFO that is defined as a combination of more than one FO is usually NOT normalized.



                                       === A ===
 Nr. of SFOs :  341
 Cartesian basis functions that participate in this irrep (total number =   386) :
      1     2     3     4     5     6     9    12     7    10
     13     8    11    14    15    16    17    18    19    20
     21    22    23    24    25    26    27    28    29    30
     31    32    33    34    35    36    39    42    37    40
     43    38    41    44    45    46    47    48    49    50
     51    52    53    54    55    56    57    58    59    60
     61    62    63    64    65    66    69    72    67    70
     73    68    71    74    75    76    77    78    79    80
     81    82    83    84    85    86    87    88    89    90
     91    92    93    94    95    96    99   102    97   100
    103    98   101   104   105   106   107   108   109   110
    111   112   113   114   115   116   117   118   119   120
    121   122   123   124   131   132   133   125   128   134
    137   140   126   129   135   138   141   127   130   136
    139   142   143   144   145   146   147   148   149   150
    151   152   153   154   155   156   157   158   159   160
    161   162   163   164   165   166   167   168   169   170
    171   172   173   174   175   176   177   178   179   180
    181   182   183   184   185   186   187   188   189   190
    191   192   193   194   195   196   197   198   199   200
    201   202   203   204   205   206   207   208   209   210
    211   212   213   214   215   216   217   218   219   220
    221   222   223   224   225   226   227   228   229   230
    231   232   233   234   235   236   237   238   239   240
    241   242   243   244   245   246   247   248   249   250
    251   252   253   254   255   256   257   258   259   260
    261   262   263   264   265   266   267   268   269   270
    271   272   275   278   273   276   279   274   277   280
    281   282   283   284   285   286   287   288   289   290
    291   292   293   294   295   296   297   298   299   300
    301   302   305   308   303   306   309   304   307   310
    311   312   313   314   315   316   317   318   319   320
    321   322   323   324   325   326   327   328   329   330
    331   332   335   338   333   336   339   334   337   340
    341   342   343   344   345   346   347   348   349   350
    351   352   353   354   355   356   357   358   359   360
    361   362   365   368   363   366   369   364   367   370
    371   372   373   374   375   376   377   378   379   380
    381   382   383   384   385   386

    SFO  (index         Fragment          Generating    Expansion in Fragment Orbitals
  indx  incl.CFs)   Occup   Orb.Energy   FragmentType  Coeff.   Orbital     on Fragment
 --------------------------------------------------------------------------------------
     1       1      2.000     -10.066 au  C             1.00      1 S               1
                        (    -273.921 eV)
     2       2      2.000      -0.501 au  C             1.00      2 S               1
                        (     -13.620 eV)
     3       3       --         0.373 au  C             1.00      3 S               1
                        (      10.158 eV)
     4       4       --         5.405 au  C             1.00      4 S               1
                        (     147.073 eV)
     5       5       --        49.848 au  C             1.00      5 S               1
                        (    1356.422 eV)
     6       6      0.667      -0.193 au  C             1.00      1 P:x             1
                        (      -5.239 eV)
     7       7       --         0.169 au  C             1.00      2 P:x             1
                        (       4.589 eV)
     8       8       --         2.013 au  C             1.00      3 P:x             1
                        (      54.789 eV)
     9       9      0.667      -0.193 au  C             1.00      1 P:y             1
                        (      -5.239 eV)
    10      10       --         0.169 au  C             1.00      2 P:y             1
                        (       4.589 eV)
    11      11       --         2.013 au  C             1.00      3 P:y             1
                        (      54.789 eV)
    12      12      0.667      -0.193 au  C             1.00      1 P:z             1
                        (      -5.239 eV)
    13      13       --         0.169 au  C             1.00      2 P:z             1
                        (       4.589 eV)
    14      14       --         2.013 au  C             1.00      3 P:z             1
                        (      54.789 eV)
    15      15       --         1.243 au  C             1.00      1 D:z2            1
                        (      33.824 eV)
    16      16       --         1.243 au  C             1.00      1 D:x2-y2         1
                        (      33.824 eV)
    17      17       --         1.243 au  C             1.00      1 D:xy            1
                        (      33.824 eV)
    18      18       --         1.243 au  C             1.00      1 D:xz            1
                        (      33.824 eV)
    19      19       --         1.243 au  C             1.00      1 D:yz            1
                        (      33.824 eV)
    20      20       --         4.016 au  C             1.00      1 F:z3            1
                        (     109.271 eV)
    21      21       --         4.016 au  C             1.00      1 F:z             1
                        (     109.271 eV)
    22      22       --         4.016 au  C             1.00      1 F:xyz           1
                        (     109.271 eV)
    23      23       --         4.016 au  C             1.00      1 F:z2x           1
                        (     109.271 eV)
    24      24       --         4.016 au  C             1.00      1 F:z2y           1
                        (     109.271 eV)
    25      25       --         4.016 au  C             1.00      1 F:x             1
                        (     109.271 eV)
    26      26       --         4.016 au  C             1.00      1 F:y             1
                        (     109.271 eV)
    27      27      2.000     -10.066 au  C             1.00      1 S               2
                        (    -273.921 eV)
    28      28      2.000      -0.501 au  C             1.00      2 S               2
                        (     -13.620 eV)
    29      29       --         0.373 au  C             1.00      3 S               2
                        (      10.158 eV)
    30      30       --         5.405 au  C             1.00      4 S               2
                        (     147.073 eV)
    31      31       --        49.848 au  C             1.00      5 S               2
                        (    1356.422 eV)
    32      32      0.667      -0.193 au  C             1.00      1 P:x             2
                        (      -5.239 eV)
    33      33       --         0.169 au  C             1.00      2 P:x             2
                        (       4.589 eV)
    34      34       --         2.013 au  C             1.00      3 P:x             2
                        (      54.789 eV)
    35      35      0.667      -0.193 au  C             1.00      1 P:y             2
                        (      -5.239 eV)
    36      36       --         0.169 au  C             1.00      2 P:y             2
                        (       4.589 eV)
    37      37       --         2.013 au  C             1.00      3 P:y             2
                        (      54.789 eV)
    38      38      0.667      -0.193 au  C             1.00      1 P:z             2
                        (      -5.239 eV)
    39      39       --         0.169 au  C             1.00      2 P:z             2
                        (       4.589 eV)
    40      40       --         2.013 au  C             1.00      3 P:z             2
                        (      54.789 eV)
    41      41       --         1.243 au  C             1.00      1 D:z2            2
                        (      33.824 eV)
    42      42       --         1.243 au  C             1.00      1 D:x2-y2         2
                        (      33.824 eV)
    43      43       --         1.243 au  C             1.00      1 D:xy            2
                        (      33.824 eV)
    44      44       --         1.243 au  C             1.00      1 D:xz            2
                        (      33.824 eV)
    45      45       --         1.243 au  C             1.00      1 D:yz            2
                        (      33.824 eV)
    46      46       --         4.016 au  C             1.00      1 F:z3            2
                        (     109.271 eV)
    47      47       --         4.016 au  C             1.00      1 F:z             2
                        (     109.271 eV)
    48      48       --         4.016 au  C             1.00      1 F:xyz           2
                        (     109.271 eV)
    49      49       --         4.016 au  C             1.00      1 F:z2x           2
                        (     109.271 eV)
    50      50       --         4.016 au  C             1.00      1 F:z2y           2
                        (     109.271 eV)
    51      51       --         4.016 au  C             1.00      1 F:x             2
                        (     109.271 eV)
    52      52       --         4.016 au  C             1.00      1 F:y             2
                        (     109.271 eV)
    53      53      2.000     -10.066 au  C             1.00      1 S               3
                        (    -273.921 eV)
    54      54      2.000      -0.501 au  C             1.00      2 S               3
                        (     -13.620 eV)
    55      55       --         0.373 au  C             1.00      3 S               3
                        (      10.158 eV)
    56      56       --         5.405 au  C             1.00      4 S               3
                        (     147.073 eV)
    57      57       --        49.848 au  C             1.00      5 S               3
                        (    1356.422 eV)
    58      58      0.667      -0.193 au  C             1.00      1 P:x             3
                        (      -5.239 eV)
    59      59       --         0.169 au  C             1.00      2 P:x             3
                        (       4.589 eV)
    60      60       --         2.013 au  C             1.00      3 P:x             3
                        (      54.789 eV)
    61      61      0.667      -0.193 au  C             1.00      1 P:y             3
                        (      -5.239 eV)
    62      62       --         0.169 au  C             1.00      2 P:y             3
                        (       4.589 eV)
    63      63       --         2.013 au  C             1.00      3 P:y             3
                        (      54.789 eV)
    64      64      0.667      -0.193 au  C             1.00      1 P:z             3
                        (      -5.239 eV)
    65      65       --         0.169 au  C             1.00      2 P:z             3
                        (       4.589 eV)
    66      66       --         2.013 au  C             1.00      3 P:z             3
                        (      54.789 eV)
    67      67       --         1.243 au  C             1.00      1 D:z2            3
                        (      33.824 eV)
    68      68       --         1.243 au  C             1.00      1 D:x2-y2         3
                        (      33.824 eV)
    69      69       --         1.243 au  C             1.00      1 D:xy            3
                        (      33.824 eV)
    70      70       --         1.243 au  C             1.00      1 D:xz            3
                        (      33.824 eV)
    71      71       --         1.243 au  C             1.00      1 D:yz            3
                        (      33.824 eV)
    72      72       --         4.016 au  C             1.00      1 F:z3            3
                        (     109.271 eV)
    73      73       --         4.016 au  C             1.00      1 F:z             3
                        (     109.271 eV)
    74      74       --         4.016 au  C             1.00      1 F:xyz           3
                        (     109.271 eV)
    75      75       --         4.016 au  C             1.00      1 F:z2x           3
                        (     109.271 eV)
    76      76       --         4.016 au  C             1.00      1 F:z2y           3
                        (     109.271 eV)
    77      77       --         4.016 au  C             1.00      1 F:x             3
                        (     109.271 eV)
    78      78       --         4.016 au  C             1.00      1 F:y             3
                        (     109.271 eV)
    79      79      2.000     -10.066 au  C             1.00      1 S               4
                        (    -273.921 eV)
    80      80      2.000      -0.501 au  C             1.00      2 S               4
                        (     -13.620 eV)
    81      81       --         0.373 au  C             1.00      3 S               4
                        (      10.158 eV)
    82      82       --         5.405 au  C             1.00      4 S               4
                        (     147.073 eV)
    83      83       --        49.848 au  C             1.00      5 S               4
                        (    1356.422 eV)
    84      84      0.667      -0.193 au  C             1.00      1 P:x             4
                        (      -5.239 eV)
    85      85       --         0.169 au  C             1.00      2 P:x             4
                        (       4.589 eV)
    86      86       --         2.013 au  C             1.00      3 P:x             4
                        (      54.789 eV)
    87      87      0.667      -0.193 au  C             1.00      1 P:y             4
                        (      -5.239 eV)
    88      88       --         0.169 au  C             1.00      2 P:y             4
                        (       4.589 eV)
    89      89       --         2.013 au  C             1.00      3 P:y             4
                        (      54.789 eV)
    90      90      0.667      -0.193 au  C             1.00      1 P:z             4
                        (      -5.239 eV)
    91      91       --         0.169 au  C             1.00      2 P:z             4
                        (       4.589 eV)
    92      92       --         2.013 au  C             1.00      3 P:z             4
                        (      54.789 eV)
    93      93       --         1.243 au  C             1.00      1 D:z2            4
                        (      33.824 eV)
    94      94       --         1.243 au  C             1.00      1 D:x2-y2         4
                        (      33.824 eV)
    95      95       --         1.243 au  C             1.00      1 D:xy            4
                        (      33.824 eV)
    96      96       --         1.243 au  C             1.00      1 D:xz            4
                        (      33.824 eV)
    97      97       --         1.243 au  C             1.00      1 D:yz            4
                        (      33.824 eV)
    98      98       --         4.016 au  C             1.00      1 F:z3            4
                        (     109.271 eV)
    99      99       --         4.016 au  C             1.00      1 F:z             4
                        (     109.271 eV)
   100     100       --         4.016 au  C             1.00      1 F:xyz           4
                        (     109.271 eV)
   101     101       --         4.016 au  C             1.00      1 F:z2x           4
                        (     109.271 eV)
   102     102       --         4.016 au  C             1.00      1 F:z2y           4
                        (     109.271 eV)
   103     103       --         4.016 au  C             1.00      1 F:x             4
                        (     109.271 eV)
   104     104       --         4.016 au  C             1.00      1 F:y             4
                        (     109.271 eV)
   105     105      2.000    -101.116 au  Cl            1.00      1 S               5
                        (   -2751.516 eV)
   106     106      2.000      -9.276 au  Cl            1.00      2 S               5
                        (    -252.419 eV)
   107     107      2.000      -0.754 au  Cl            1.00      3 S               5
                        (     -20.523 eV)
   108     108       --         0.194 au  Cl            1.00      4 S               5
                        (       5.292 eV)
   109     109       --         1.998 au  Cl            1.00      5 S               5
                        (      54.377 eV)
   110     110       --        12.618 au  Cl            1.00      6 S               5
                        (     343.355 eV)
   111     111       --       205.328 au  Cl            1.00      7 S               5
                        (    5587.258 eV)
   112     112      2.000      -7.038 au  Cl            1.00      1 P:x             5
                        (    -191.503 eV)
   113     113      1.667      -0.310 au  Cl            1.00      2 P:x             5
                        (      -8.439 eV)
   114     114       --         0.226 au  Cl            1.00      3 P:x             5
                        (       6.147 eV)
   115     115       --         2.102 au  Cl            1.00      4 P:x             5
                        (      57.194 eV)
   116     116       --        18.665 au  Cl            1.00      5 P:x             5
                        (     507.904 eV)
   117     117      2.000      -7.038 au  Cl            1.00      1 P:y             5
                        (    -191.503 eV)
   118     118      1.667      -0.310 au  Cl            1.00      2 P:y             5
                        (      -8.439 eV)
   119     119       --         0.226 au  Cl            1.00      3 P:y             5
                        (       6.147 eV)
   120     120       --         2.102 au  Cl            1.00      4 P:y             5
                        (      57.194 eV)
   121     121       --        18.665 au  Cl            1.00      5 P:y             5
                        (     507.904 eV)
   122     122      2.000      -7.038 au  Cl            1.00      1 P:z             5
                        (    -191.503 eV)
   123     123      1.667      -0.310 au  Cl            1.00      2 P:z             5
                        (      -8.439 eV)
   124     124       --         0.226 au  Cl            1.00      3 P:z             5
                        (       6.147 eV)
   125     125       --         2.102 au  Cl            1.00      4 P:z             5
                        (      57.194 eV)
   126     126       --        18.665 au  Cl            1.00      5 P:z             5
                        (     507.904 eV)
   127     127       --         0.388 au  Cl            1.00      1 D:z2            5
                        (      10.568 eV)
   128     128       --         0.388 au  Cl            1.00      1 D:x2-y2         5
                        (      10.568 eV)
   129     129       --         0.388 au  Cl            1.00      1 D:xy            5
                        (      10.568 eV)
   130     130       --         0.388 au  Cl            1.00      1 D:xz            5
                        (      10.568 eV)
   131     131       --         0.388 au  Cl            1.00      1 D:yz            5
                        (      10.568 eV)
   132     132       --         1.191 au  Cl            1.00      1 F:z3            5
                        (      32.399 eV)
   133     133       --         1.191 au  Cl            1.00      1 F:z             5
                        (      32.399 eV)
   134     134       --         1.191 au  Cl            1.00      1 F:xyz           5
                        (      32.399 eV)
   135     135       --         1.191 au  Cl            1.00      1 F:z2x           5
                        (      32.399 eV)
   136     136       --         1.191 au  Cl            1.00      1 F:z2y           5
                        (      32.399 eV)
   137     137       --         1.191 au  Cl            1.00      1 F:x             5
                        (      32.399 eV)
   138     138       --         1.191 au  Cl            1.00      1 F:y             5
                        (      32.399 eV)
   139     139      1.000      -0.240 au  H             1.00      1 S               6
                        (      -6.532 eV)
   140     140       --         0.088 au  H             1.00      2 S               6
                        (       2.394 eV)
   141     141       --         1.502 au  H             1.00      3 S               6
                        (      40.869 eV)
   142     142       --         0.406 au  H             1.00      1 P:x             6
                        (      11.051 eV)
   143     143       --         0.406 au  H             1.00      1 P:y             6
                        (      11.051 eV)
   144     144       --         0.406 au  H             1.00      1 P:z             6
                        (      11.051 eV)
   145     145       --         2.569 au  H             1.00      1 D:z2            6
                        (      69.917 eV)
   146     146       --         2.569 au  H             1.00      1 D:x2-y2         6
                        (      69.917 eV)
   147     147       --         2.569 au  H             1.00      1 D:xy            6
                        (      69.917 eV)
   148     148       --         2.569 au  H             1.00      1 D:xz            6
                        (      69.917 eV)
   149     149       --         2.569 au  H             1.00      1 D:yz            6
                        (      69.917 eV)
   150     150      1.000      -0.240 au  H             1.00      1 S               7
                        (      -6.532 eV)
   151     151       --         0.088 au  H             1.00      2 S               7
                        (       2.394 eV)
   152     152       --         1.502 au  H             1.00      3 S               7
                        (      40.869 eV)
   153     153       --         0.406 au  H             1.00      1 P:x             7
                        (      11.051 eV)
   154     154       --         0.406 au  H             1.00      1 P:y             7
                        (      11.051 eV)
   155     155       --         0.406 au  H             1.00      1 P:z             7
                        (      11.051 eV)
   156     156       --         2.569 au  H             1.00      1 D:z2            7
                        (      69.917 eV)
   157     157       --         2.569 au  H             1.00      1 D:x2-y2         7
                        (      69.917 eV)
   158     158       --         2.569 au  H             1.00      1 D:xy            7
                        (      69.917 eV)
   159     159       --         2.569 au  H             1.00      1 D:xz            7
                        (      69.917 eV)
   160     160       --         2.569 au  H             1.00      1 D:yz            7
                        (      69.917 eV)
   161     161      1.000      -0.240 au  H             1.00      1 S               8
                        (      -6.532 eV)
   162     162       --         0.088 au  H             1.00      2 S               8
                        (       2.394 eV)
   163     163       --         1.502 au  H             1.00      3 S               8
                        (      40.869 eV)
   164     164       --         0.406 au  H             1.00      1 P:x             8
                        (      11.051 eV)
   165     165       --         0.406 au  H             1.00      1 P:y             8
                        (      11.051 eV)
   166     166       --         0.406 au  H             1.00      1 P:z             8
                        (      11.051 eV)
   167     167       --         2.569 au  H             1.00      1 D:z2            8
                        (      69.917 eV)
   168     168       --         2.569 au  H             1.00      1 D:x2-y2         8
                        (      69.917 eV)
   169     169       --         2.569 au  H             1.00      1 D:xy            8
                        (      69.917 eV)
   170     170       --         2.569 au  H             1.00      1 D:xz            8
                        (      69.917 eV)
   171     171       --         2.569 au  H             1.00      1 D:yz            8
                        (      69.917 eV)
   172     172      1.000      -0.240 au  H             1.00      1 S               9
                        (      -6.532 eV)
   173     173       --         0.088 au  H             1.00      2 S               9
                        (       2.394 eV)
   174     174       --         1.502 au  H             1.00      3 S               9
                        (      40.869 eV)
   175     175       --         0.406 au  H             1.00      1 P:x             9
                        (      11.051 eV)
   176     176       --         0.406 au  H             1.00      1 P:y             9
                        (      11.051 eV)
   177     177       --         0.406 au  H             1.00      1 P:z             9
                        (      11.051 eV)
   178     178       --         2.569 au  H             1.00      1 D:z2            9
                        (      69.917 eV)
   179     179       --         2.569 au  H             1.00      1 D:x2-y2         9
                        (      69.917 eV)
   180     180       --         2.569 au  H             1.00      1 D:xy            9
                        (      69.917 eV)
   181     181       --         2.569 au  H             1.00      1 D:xz            9
                        (      69.917 eV)
   182     182       --         2.569 au  H             1.00      1 D:yz            9
                        (      69.917 eV)
   183     183      1.000      -0.240 au  H             1.00      1 S              10
                        (      -6.532 eV)
   184     184       --         0.088 au  H             1.00      2 S              10
                        (       2.394 eV)
   185     185       --         1.502 au  H             1.00      3 S              10
                        (      40.869 eV)
   186     186       --         0.406 au  H             1.00      1 P:x            10
                        (      11.051 eV)
   187     187       --         0.406 au  H             1.00      1 P:y            10
                        (      11.051 eV)
   188     188       --         0.406 au  H             1.00      1 P:z            10
                        (      11.051 eV)
   189     189       --         2.569 au  H             1.00      1 D:z2           10
                        (      69.917 eV)
   190     190       --         2.569 au  H             1.00      1 D:x2-y2        10
                        (      69.917 eV)
   191     191       --         2.569 au  H             1.00      1 D:xy           10
                        (      69.917 eV)
   192     192       --         2.569 au  H             1.00      1 D:xz           10
                        (      69.917 eV)
   193     193       --         2.569 au  H             1.00      1 D:yz           10
                        (      69.917 eV)
   194     194      1.000      -0.240 au  H             1.00      1 S              11
                        (      -6.532 eV)
   195     195       --         0.088 au  H             1.00      2 S              11
                        (       2.394 eV)
   196     196       --         1.502 au  H             1.00      3 S              11
                        (      40.869 eV)
   197     197       --         0.406 au  H             1.00      1 P:x            11
                        (      11.051 eV)
   198     198       --         0.406 au  H             1.00      1 P:y            11
                        (      11.051 eV)
   199     199       --         0.406 au  H             1.00      1 P:z            11
                        (      11.051 eV)
   200     200       --         2.569 au  H             1.00      1 D:z2           11
                        (      69.917 eV)
   201     201       --         2.569 au  H             1.00      1 D:x2-y2        11
                        (      69.917 eV)
   202     202       --         2.569 au  H             1.00      1 D:xy           11
                        (      69.917 eV)
   203     203       --         2.569 au  H             1.00      1 D:xz           11
                        (      69.917 eV)
   204     204       --         2.569 au  H             1.00      1 D:yz           11
                        (      69.917 eV)
   205     205      1.000      -0.240 au  H             1.00      1 S              12
                        (      -6.532 eV)
   206     206       --         0.088 au  H             1.00      2 S              12
                        (       2.394 eV)
   207     207       --         1.502 au  H             1.00      3 S              12
                        (      40.869 eV)
   208     208       --         0.406 au  H             1.00      1 P:x            12
                        (      11.051 eV)
   209     209       --         0.406 au  H             1.00      1 P:y            12
                        (      11.051 eV)
   210     210       --         0.406 au  H             1.00      1 P:z            12
                        (      11.051 eV)
   211     211       --         2.569 au  H             1.00      1 D:z2           12
                        (      69.917 eV)
   212     212       --         2.569 au  H             1.00      1 D:x2-y2        12
                        (      69.917 eV)
   213     213       --         2.569 au  H             1.00      1 D:xy           12
                        (      69.917 eV)
   214     214       --         2.569 au  H             1.00      1 D:xz           12
                        (      69.917 eV)
   215     215       --         2.569 au  H             1.00      1 D:yz           12
                        (      69.917 eV)
   216     216      1.000      -0.240 au  H             1.00      1 S              13
                        (      -6.532 eV)
   217     217       --         0.088 au  H             1.00      2 S              13
                        (       2.394 eV)
   218     218       --         1.502 au  H             1.00      3 S              13
                        (      40.869 eV)
   219     219       --         0.406 au  H             1.00      1 P:x            13
                        (      11.051 eV)
   220     220       --         0.406 au  H             1.00      1 P:y            13
                        (      11.051 eV)
   221     221       --         0.406 au  H             1.00      1 P:z            13
                        (      11.051 eV)
   222     222       --         2.569 au  H             1.00      1 D:z2           13
                        (      69.917 eV)
   223     223       --         2.569 au  H             1.00      1 D:x2-y2        13
                        (      69.917 eV)
   224     224       --         2.569 au  H             1.00      1 D:xy           13
                        (      69.917 eV)
   225     225       --         2.569 au  H             1.00      1 D:xz           13
                        (      69.917 eV)
   226     226       --         2.569 au  H             1.00      1 D:yz           13
                        (      69.917 eV)
   227     227      1.000      -0.240 au  H             1.00      1 S              14
                        (      -6.532 eV)
   228     228       --         0.088 au  H             1.00      2 S              14
                        (       2.394 eV)
   229     229       --         1.502 au  H             1.00      3 S              14
                        (      40.869 eV)
   230     230       --         0.406 au  H             1.00      1 P:x            14
                        (      11.051 eV)
   231     231       --         0.406 au  H             1.00      1 P:y            14
                        (      11.051 eV)
   232     232       --         0.406 au  H             1.00      1 P:z            14
                        (      11.051 eV)
   233     233       --         2.569 au  H             1.00      1 D:z2           14
                        (      69.917 eV)
   234     234       --         2.569 au  H             1.00      1 D:x2-y2        14
                        (      69.917 eV)
   235     235       --         2.569 au  H             1.00      1 D:xy           14
                        (      69.917 eV)
   236     236       --         2.569 au  H             1.00      1 D:xz           14
                        (      69.917 eV)
   237     237       --         2.569 au  H             1.00      1 D:yz           14
                        (      69.917 eV)
   238     238      2.000     -14.160 au  N             1.00      1 S              15
                        (    -385.319 eV)
   239     239      2.000      -0.678 au  N             1.00      2 S              15
                        (     -18.450 eV)
   240     240       --         0.517 au  N             1.00      3 S              15
                        (      14.073 eV)
   241     241       --         6.872 au  N             1.00      4 S              15
                        (     186.990 eV)
   242     242       --        63.432 au  N             1.00      5 S              15
                        (    1726.082 eV)
   243     243      1.000      -0.260 au  N             1.00      1 P:x            15
                        (      -7.062 eV)
   244     244       --         0.281 au  N             1.00      2 P:x            15
                        (       7.649 eV)
   245     245       --         3.275 au  N             1.00      3 P:x            15
                        (      89.105 eV)
   246     246      1.000      -0.260 au  N             1.00      1 P:y            15
                        (      -7.062 eV)
   247     247       --         0.281 au  N             1.00      2 P:y            15
                        (       7.649 eV)
   248     248       --         3.275 au  N             1.00      3 P:y            15
                        (      89.105 eV)
   249     249      1.000      -0.260 au  N             1.00      1 P:z            15
                        (      -7.062 eV)
   250     250       --         0.281 au  N             1.00      2 P:z            15
                        (       7.649 eV)
   251     251       --         3.275 au  N             1.00      3 P:z            15
                        (      89.105 eV)
   252     252       --         1.250 au  N             1.00      1 D:z2           15
                        (      34.005 eV)
   253     253       --         1.250 au  N             1.00      1 D:x2-y2        15
                        (      34.005 eV)
   254     254       --         1.250 au  N             1.00      1 D:xy           15
                        (      34.005 eV)
   255     255       --         1.250 au  N             1.00      1 D:xz           15
                        (      34.005 eV)
   256     256       --         1.250 au  N             1.00      1 D:yz           15
                        (      34.005 eV)
   257     257       --         4.013 au  N             1.00      1 F:z3           15
                        (     109.190 eV)
   258     258       --         4.013 au  N             1.00      1 F:z            15
                        (     109.190 eV)
   259     259       --         4.013 au  N             1.00      1 F:xyz          15
                        (     109.190 eV)
   260     260       --         4.013 au  N             1.00      1 F:z2x          15
                        (     109.190 eV)
   261     261       --         4.013 au  N             1.00      1 F:z2y          15
                        (     109.190 eV)
   262     262       --         4.013 au  N             1.00      1 F:x            15
                        (     109.190 eV)
   263     263       --         4.013 au  N             1.00      1 F:y            15
                        (     109.190 eV)
   264     264      2.000     -14.160 au  N             1.00      1 S              16
                        (    -385.319 eV)
   265     265      2.000      -0.678 au  N             1.00      2 S              16
                        (     -18.450 eV)
   266     266       --         0.517 au  N             1.00      3 S              16
                        (      14.073 eV)
   267     267       --         6.872 au  N             1.00      4 S              16
                        (     186.990 eV)
   268     268       --        63.432 au  N             1.00      5 S              16
                        (    1726.082 eV)
   269     269      1.000      -0.260 au  N             1.00      1 P:x            16
                        (      -7.062 eV)
   270     270       --         0.281 au  N             1.00      2 P:x            16
                        (       7.649 eV)
   271     271       --         3.275 au  N             1.00      3 P:x            16
                        (      89.105 eV)
   272     272      1.000      -0.260 au  N             1.00      1 P:y            16
                        (      -7.062 eV)
   273     273       --         0.281 au  N             1.00      2 P:y            16
                        (       7.649 eV)
   274     274       --         3.275 au  N             1.00      3 P:y            16
                        (      89.105 eV)
   275     275      1.000      -0.260 au  N             1.00      1 P:z            16
                        (      -7.062 eV)
   276     276       --         0.281 au  N             1.00      2 P:z            16
                        (       7.649 eV)
   277     277       --         3.275 au  N             1.00      3 P:z            16
                        (      89.105 eV)
   278     278       --         1.250 au  N             1.00      1 D:z2           16
                        (      34.005 eV)
   279     279       --         1.250 au  N             1.00      1 D:x2-y2        16
                        (      34.005 eV)
   280     280       --         1.250 au  N             1.00      1 D:xy           16
                        (      34.005 eV)
   281     281       --         1.250 au  N             1.00      1 D:xz           16
                        (      34.005 eV)
   282     282       --         1.250 au  N             1.00      1 D:yz           16
                        (      34.005 eV)
   283     283       --         4.013 au  N             1.00      1 F:z3           16
                        (     109.190 eV)
   284     284       --         4.013 au  N             1.00      1 F:z            16
                        (     109.190 eV)
   285     285       --         4.013 au  N             1.00      1 F:xyz          16
                        (     109.190 eV)
   286     286       --         4.013 au  N             1.00      1 F:z2x          16
                        (     109.190 eV)
   287     287       --         4.013 au  N             1.00      1 F:z2y          16
                        (     109.190 eV)
   288     288       --         4.013 au  N             1.00      1 F:x            16
                        (     109.190 eV)
   289     289       --         4.013 au  N             1.00      1 F:y            16
                        (     109.190 eV)
   290     290      2.000     -18.941 au  O             1.00      1 S              17
                        (    -515.403 eV)
   291     291      2.000      -0.876 au  O             1.00      2 S              17
                        (     -23.838 eV)
   292     292       --         0.791 au  O             1.00      3 S              17
                        (      21.524 eV)
   293     293       --        13.422 au  O             1.00      4 S              17
                        (     365.226 eV)
   294     294       --       121.561 au  O             1.00      5 S              17
                        (    3307.838 eV)
   295     295      1.333      -0.331 au  O             1.00      1 P:x            17
                        (      -9.020 eV)
   296     296       --         0.347 au  O             1.00      2 P:x            17
                        (       9.437 eV)
   297     297       --         3.820 au  O             1.00      3 P:x            17
                        (     103.939 eV)
   298     298      1.333      -0.331 au  O             1.00      1 P:y            17
                        (      -9.020 eV)
   299     299       --         0.347 au  O             1.00      2 P:y            17
                        (       9.437 eV)
   300     300       --         3.820 au  O             1.00      3 P:y            17
                        (     103.939 eV)
   301     301      1.333      -0.331 au  O             1.00      1 P:z            17
                        (      -9.020 eV)
   302     302       --         0.347 au  O             1.00      2 P:z            17
                        (       9.437 eV)
   303     303       --         3.820 au  O             1.00      3 P:z            17
                        (     103.939 eV)
   304     304       --         1.071 au  O             1.00      1 D:z2           17
                        (      29.134 eV)
   305     305       --         1.071 au  O             1.00      1 D:x2-y2        17
                        (      29.134 eV)
   306     306       --         1.071 au  O             1.00      1 D:xy           17
                        (      29.134 eV)
   307     307       --         1.071 au  O             1.00      1 D:xz           17
                        (      29.134 eV)
   308     308       --         1.071 au  O             1.00      1 D:yz           17
                        (      29.134 eV)
   309     309       --         3.359 au  O             1.00      1 F:z3           17
                        (      91.410 eV)
   310     310       --         3.359 au  O             1.00      1 F:z            17
                        (      91.410 eV)
   311     311       --         3.359 au  O             1.00      1 F:xyz          17
                        (      91.410 eV)
   312     312       --         3.359 au  O             1.00      1 F:z2x          17
                        (      91.410 eV)
   313     313       --         3.359 au  O             1.00      1 F:z2y          17
                        (      91.410 eV)
   314     314       --         3.359 au  O             1.00      1 F:x            17
                        (      91.410 eV)
   315     315       --         3.359 au  O             1.00      1 F:y            17
                        (      91.410 eV)
   316     316      2.000     -18.941 au  O             1.00      1 S              18
                        (    -515.403 eV)
   317     317      2.000      -0.876 au  O             1.00      2 S              18
                        (     -23.838 eV)
   318     318       --         0.791 au  O             1.00      3 S              18
                        (      21.524 eV)
   319     319       --        13.422 au  O             1.00      4 S              18
                        (     365.226 eV)
   320     320       --       121.561 au  O             1.00      5 S              18
                        (    3307.838 eV)
   321     321      1.333      -0.331 au  O             1.00      1 P:x            18
                        (      -9.020 eV)
   322     322       --         0.347 au  O             1.00      2 P:x            18
                        (       9.437 eV)
   323     323       --         3.820 au  O             1.00      3 P:x            18
                        (     103.939 eV)
   324     324      1.333      -0.331 au  O             1.00      1 P:y            18
                        (      -9.020 eV)
   325     325       --         0.347 au  O             1.00      2 P:y            18
                        (       9.437 eV)
   326     326       --         3.820 au  O             1.00      3 P:y            18
                        (     103.939 eV)
   327     327      1.333      -0.331 au  O             1.00      1 P:z            18
                        (      -9.020 eV)
   328     328       --         0.347 au  O             1.00      2 P:z            18
                        (       9.437 eV)
   329     329       --         3.820 au  O             1.00      3 P:z            18
                        (     103.939 eV)
   330     330       --         1.071 au  O             1.00      1 D:z2           18
                        (      29.134 eV)
   331     331       --         1.071 au  O             1.00      1 D:x2-y2        18
                        (      29.134 eV)
   332     332       --         1.071 au  O             1.00      1 D:xy           18
                        (      29.134 eV)
   333     333       --         1.071 au  O             1.00      1 D:xz           18
                        (      29.134 eV)
   334     334       --         1.071 au  O             1.00      1 D:yz           18
                        (      29.134 eV)
   335     335       --         3.359 au  O             1.00      1 F:z3           18
                        (      91.410 eV)
   336     336       --         3.359 au  O             1.00      1 F:z            18
                        (      91.410 eV)
   337     337       --         3.359 au  O             1.00      1 F:xyz          18
                        (      91.410 eV)
   338     338       --         3.359 au  O             1.00      1 F:z2x          18
                        (      91.410 eV)
   339     339       --         3.359 au  O             1.00      1 F:z2y          18
                        (      91.410 eV)
   340     340       --         3.359 au  O             1.00      1 F:x            18
                        (      91.410 eV)
   341     341       --         3.359 au  O             1.00      1 F:y            18
                        (      91.410 eV)



 ================================
 (Slater-type)  F U N C T I O N S  ***  (Basis and Fit)  ***
 ================================
  

 Atom Type    1  (C)
 ==============

 Valence Basis Sets:  10
 -----------------------
   1 S    7.680000
   1 S    5.000000
   2 S    1.280000
   2 S    2.100000
   2 S    4.600000
   2 P    0.820000
   2 P    1.480000
   2 P    2.940000
   3 D    2.200000
   4 F    3.300000

 Atom Type    2  (Cl)
 ==============

 Valence Basis Sets:  14
 -----------------------
   1 S   20.300000
   1 S   15.250000
   2 S    6.250000
   2 S    4.450000
   2 P    8.850000
   2 P    5.050000
   3 S    3.450000
   3 S    2.300000
   3 S    1.600000
   3 P    3.350000
   3 P    2.050000
   3 P    1.200000
   3 D    2.000000
   4 F    2.000000

 Atom Type    3  (H)
 ==============

 Valence Basis Sets:   5
 -----------------------
   1 S    0.690000
   1 S    0.920000
   1 S    1.580000
   2 P    1.250000
   3 D    2.500000

 Atom Type    4  (N)
 ==============

 Valence Basis Sets:  10
 -----------------------
   1 S    8.740000
   1 S    5.900000
   2 S    5.150000
   2 S    2.500000
   2 S    1.500000
   2 P    3.680000
   2 P    1.880000
   2 P    1.000000
   3 D    2.200000
   4 F    3.300000

 Atom Type    5  (O)
 ==============

 Valence Basis Sets:  10
 -----------------------
   1 S    9.800000
   1 S    6.800000
   2 S    7.580000
   2 S    2.880000
   2 S    1.720000
   2 P    4.080000
   2 P    2.080000
   2 P    1.120000
   3 D    2.000000
   4 F    3.000000


 BAS: List of all Elementary Cartesian Basis Functions
 =====================================================

 The numbering in the list below (to the right of the function characteristics) is referred
 to in print-outs of MO eigenvectors and Mulliken populations in the BAS representation
 (as contrasted to the SFO representation).

 Notes:
 1. The functions are characterized by a polynomial prefactor (powers of x,y,z and r) and
    an exponential decay factor alpha.
 2. Since the basis sets are specific for an atom TYPE, the individual functions occur on
    all atoms of that type.
 3. The word 'Core' in the left margin signals that it is a Core Function (CF) : not a
    degree of freedom in the valence set, but only used to ensure orthogonalization of
    the other valence basis functions on the frozen Core Orbitals.


 (power of) X  Y  Z  R     Alpha  on Atom
            ==========     =====     ==========

 C                                    1    2    3    4
                                  ---------------------------------------------------------------------------
            0  0  0  0     7.680      1   31   61   91
            0  0  0  0     5.000      2   32   62   92
            0  0  0  1     1.280      3   33   63   93
            0  0  0  1     2.100      4   34   64   94
            0  0  0  1     4.600      5   35   65   95
            1  0  0  0     0.820      6   36   66   96
            0  1  0  0     0.820      7   37   67   97
            0  0  1  0     0.820      8   38   68   98
            1  0  0  0     1.480      9   39   69   99
            0  1  0  0     1.480     10   40   70  100
            0  0  1  0     1.480     11   41   71  101
            1  0  0  0     2.940     12   42   72  102
            0  1  0  0     2.940     13   43   73  103
            0  0  1  0     2.940     14   44   74  104
            2  0  0  0     2.200     15   45   75  105
            1  1  0  0     2.200     16   46   76  106
            1  0  1  0     2.200     17   47   77  107
            0  2  0  0     2.200     18   48   78  108
            0  1  1  0     2.200     19   49   79  109
            0  0  2  0     2.200     20   50   80  110
            3  0  0  0     3.300     21   51   81  111
            2  1  0  0     3.300     22   52   82  112
            2  0  1  0     3.300     23   53   83  113
            1  2  0  0     3.300     24   54   84  114
            1  1  1  0     3.300     25   55   85  115
            1  0  2  0     3.300     26   56   86  116
            0  3  0  0     3.300     27   57   87  117
            0  2  1  0     3.300     28   58   88  118
            0  1  2  0     3.300     29   59   89  119
            0  0  3  0     3.300     30   60   90  120

 Cl                                   5
                                  ---------------------------------------------------------------------------
            0  0  0  0    20.300    121
            0  0  0  0    15.250    122
            0  0  0  1     6.250    123
            0  0  0  1     4.450    124
            1  0  0  0     8.850    125
            0  1  0  0     8.850    126
            0  0  1  0     8.850    127
            1  0  0  0     5.050    128
            0  1  0  0     5.050    129
            0  0  1  0     5.050    130
            0  0  0  2     3.450    131
            0  0  0  2     2.300    132
            0  0  0  2     1.600    133
            1  0  0  1     3.350    134
            0  1  0  1     3.350    135
            0  0  1  1     3.350    136
            1  0  0  1     2.050    137
            0  1  0  1     2.050    138
            0  0  1  1     2.050    139
            1  0  0  1     1.200    140
            0  1  0  1     1.200    141
            0  0  1  1     1.200    142
            2  0  0  0     2.000    143
            1  1  0  0     2.000    144
            1  0  1  0     2.000    145
            0  2  0  0     2.000    146
            0  1  1  0     2.000    147
            0  0  2  0     2.000    148
            3  0  0  0     2.000    149
            2  1  0  0     2.000    150
            2  0  1  0     2.000    151
            1  2  0  0     2.000    152
            1  1  1  0     2.000    153
            1  0  2  0     2.000    154
            0  3  0  0     2.000    155
            0  2  1  0     2.000    156
            0  1  2  0     2.000    157
            0  0  3  0     2.000    158

 H                                    6    7    8    9   10   11   12   13   14
                                  ---------------------------------------------------------------------------
            0  0  0  0     0.690    159  171  183  195  207  219  231  243  255
            0  0  0  0     0.920    160  172  184  196  208  220  232  244  256
            0  0  0  0     1.580    161  173  185  197  209  221  233  245  257
            1  0  0  0     1.250    162  174  186  198  210  222  234  246  258
            0  1  0  0     1.250    163  175  187  199  211  223  235  247  259
            0  0  1  0     1.250    164  176  188  200  212  224  236  248  260
            2  0  0  0     2.500    165  177  189  201  213  225  237  249  261
            1  1  0  0     2.500    166  178  190  202  214  226  238  250  262
            1  0  1  0     2.500    167  179  191  203  215  227  239  251  263
            0  2  0  0     2.500    168  180  192  204  216  228  240  252  264
            0  1  1  0     2.500    169  181  193  205  217  229  241  253  265
            0  0  2  0     2.500    170  182  194  206  218  230  242  254  266

 N                                   15   16
                                  ---------------------------------------------------------------------------
            0  0  0  0     8.740    267  297
            0  0  0  0     5.900    268  298
            0  0  0  1     5.150    269  299
            0  0  0  1     2.500    270  300
            0  0  0  1     1.500    271  301
            1  0  0  0     3.680    272  302
            0  1  0  0     3.680    273  303
            0  0  1  0     3.680    274  304
            1  0  0  0     1.880    275  305
            0  1  0  0     1.880    276  306
            0  0  1  0     1.880    277  307
            1  0  0  0     1.000    278  308
            0  1  0  0     1.000    279  309
            0  0  1  0     1.000    280  310
            2  0  0  0     2.200    281  311
            1  1  0  0     2.200    282  312
            1  0  1  0     2.200    283  313
            0  2  0  0     2.200    284  314
            0  1  1  0     2.200    285  315
            0  0  2  0     2.200    286  316
            3  0  0  0     3.300    287  317
            2  1  0  0     3.300    288  318
            2  0  1  0     3.300    289  319
            1  2  0  0     3.300    290  320
            1  1  1  0     3.300    291  321
            1  0  2  0     3.300    292  322
            0  3  0  0     3.300    293  323
            0  2  1  0     3.300    294  324
            0  1  2  0     3.300    295  325
            0  0  3  0     3.300    296  326

 O                                   17   18
                                  ---------------------------------------------------------------------------
            0  0  0  0     9.800    327  357
            0  0  0  0     6.800    328  358
            0  0  0  1     7.580    329  359
            0  0  0  1     2.880    330  360
            0  0  0  1     1.720    331  361
            1  0  0  0     4.080    332  362
            0  1  0  0     4.080    333  363
            0  0  1  0     4.080    334  364
            1  0  0  0     2.080    335  365
            0  1  0  0     2.080    336  366
            0  0  1  0     2.080    337  367
            1  0  0  0     1.120    338  368
            0  1  0  0     1.120    339  369
            0  0  1  0     1.120    340  370
            2  0  0  0     2.000    341  371
            1  1  0  0     2.000    342  372
            1  0  1  0     2.000    343  373
            0  2  0  0     2.000    344  374
            0  1  1  0     2.000    345  375
            0  0  2  0     2.000    346  376
            3  0  0  0     3.000    347  377
            2  1  0  0     3.000    348  378
            2  0  1  0     3.000    349  379
            1  2  0  0     3.000    350  380
            1  1  1  0     3.000    351  381
            1  0  2  0     3.000    352  382
            0  3  0  0     3.000    353  383
            0  2  1  0     3.000    354  384
            0  1  2  0     3.000    355  385
            0  0  3  0     3.000    356  386

 Total number of charge fitting functions (nprimf)      1228
 Total number of Cartesian basis functions (naos)        386
 Total number of Cartesian core functions  (ncos)          0

 ***************************************************************************************************



                                              ***********************
                                              *  T E C H N I C A L  *
                                              ***********************
  



 =============================================================
 P A R A L L E L I Z A T I O N  and  V E C T O R I Z A T I O N
 =============================================================
  
 Nr of parallel processes:                                1
 Maximum vector length in NumInt loops:                 128



 =====================
 S C F   U P D A T E S
 =====================
  
 Max. nr. of cycles:                               200
 Convergence criterion:                              0.0000010000
   secondary criterion:                              0.0010000000

 Mix parameter (when DIIS does not apply):           0.2000000000
 Mixed ADIIS+SDIIS will be used                  
    Max number of expansion vectors:                10
    Pure ADIIS when Max([F,P]) is above              0.1000000000
    Pure SDIIS when Max([F,P]) is below              0.0010000000
 Automatic ElectronSmearing (in case of problematic SCF convergence) disabled



 =================
 P R E C I S I O N  ***  (General: NumInt, NeglectFunctionTails, ...)  ***
 =================
  

 NumInt:           Target precision:                 4.0000000000
 -------           Initial precision:                4.0000000000
                   Min. precision (optimization):    4.0000000000

 Neglect Functions:          Basis functions:        0.1000000000E-05
 ------------------          Fit functions:          0.1000000000E-05



 ===========================
 L I N E A R   S C A L I N G
 ===========================
  

 Cut-off radii density fit:                        0.1000000000E-07
 Overlap cut-off criterion AO matrix elements:     0.1000000000E-05
 Cut-offs for Coulomb potential and fitted density:0.1000000000E-07
 Cut-off criterion for Coulomb multipole terms:    0.1000000000E-07
 Progressive Convergence parameter:                 0.000000000    
 ***************************************************************************************************



                                            ***************************
                                            *  C O M P U T A T I O N  *
                                            ***************************
  

 Number of elements of the density matrix on this node (used, total):     74691     74691



 ===========================================
 Numerical Integration : Fuzzy Cells (Becke)
 ===========================================
  
 Becke grid quality: NORMAL         
  
 Lebedev angular grid order:             min:  11 max:  23
 Nr. of radial points:                   min:  46 max:  67

 Total nr. of points:     118291
 Nr. of blocks:              925
 Block length:               128
 Nr. of dummy points:        109


 Test of Precision of the Numerical Integration Grid
 ===================================================

 Integral of the Total Core Density:                   0.00000000000000



 ========================
 Density Fitting (zlmFit)
 ========================
  
 ZlmFit Fit Quality: NORMAL         
  
 Max L-expansion:                        min:   6 max:   7
 Nr. of radial interpolation points:     min:  39 max:  60



 =====
 S C F  ***  ScaSCF  ***
 =====
  
 Initial density matrix is calculated as sum of fragments

 CYCLE    1
 SCF Error: norm([F,P])=      7.232860522027, max([F,P])=      1.242928090981
 orbitals (Q,E):
 ---------------
 A :31...50          ( 2.00    -0.5258)  ( 2.00    -0.5014)  ( 2.00    -0.4706)  ( 2.00    -0.4265)
                     ( 2.00    -0.4018)  ( 2.00    -0.3914)  ( 2.00    -0.3825)  ( 2.00    -0.3764)
                     ( 2.00    -0.3258)  ( 2.00    -0.3229)  ( 0.00    -0.1941)  ( 0.00    -0.1291)
                     ( 0.00    -0.0884)  ( 0.00    -0.0507)  ( 0.00    -0.0471)  ( 0.00    -0.0317)
                     ( 0.00    -0.0289)  ( 0.00    -0.0170)  ( 0.00    -0.0050)  ( 0.00     0.0041)

 CYCLE    2
   MIX coefficients:  0.8000  0.2000
 SCF Error: norm([F,P])=      1.458307159113, max([F,P])=      0.247870645785
 orbitals (Q,E):
 ---------------
 A :31...41          ( 2.00    -0.4662)  ( 2.00    -0.4386)  ( 2.00    -0.4257)  ( 2.00    -0.3863)
                     ( 2.00    -0.3483)  ( 2.00    -0.3430)  ( 2.00    -0.3331)  ( 2.00    -0.3251)
                     ( 2.00    -0.3142)  ( 2.00    -0.3080)  ( 0.00    -0.1765)

 CYCLE    3
  SDIIS (wt  0.000): -0.6516  1.6516
 A-DIIS (wt  1.000):  0.0000  1.0000
  DIIS coefficients:  0.0000  1.0000
 SCF Error: norm([F,P])=      0.648537669814, max([F,P])=      0.112596868984
 orbitals (Q,E):
 ---------------
 A :31...41          ( 2.00    -0.2985)  ( 2.00    -0.2826)  ( 2.00    -0.2752)  ( 2.00    -0.2669)
                     ( 2.00    -0.2545)  ( 2.00    -0.2468)  ( 2.00    -0.2364)  ( 2.00    -0.2230)
                     ( 2.00    -0.1994)  ( 2.00    -0.1324)  ( 0.00    -0.0969)

 CYCLE    4
  SDIIS (wt  0.000):  0.1848  0.3701  0.4450
 A-DIIS (wt  1.000): -0.0000  0.7037  0.2963
  DIIS coefficients: -0.0000  0.7037  0.2963
 SCF Error: norm([F,P])=      1.126835507496, max([F,P])=      0.228636984526
 orbitals (Q,E):
 ---------------
 A :31...41          ( 2.00    -0.3493)  ( 2.00    -0.3347)  ( 2.00    -0.3222)  ( 2.00    -0.3044)
                     ( 2.00    -0.2845)  ( 2.00    -0.2743)  ( 2.00    -0.2668)  ( 2.00    -0.2576)
                     ( 2.00    -0.2385)  ( 2.00    -0.2225)  ( 0.00    -0.1149)

 CYCLE    5
  SDIIS (wt  0.559): -0.0414  0.3875  0.0853  0.5686
 A-DIIS (wt  0.441):  0.0000  0.0170  0.0000  0.9830
  DIIS coefficients: -0.0231  0.2240  0.0477  0.7515
 SCF Error: norm([F,P])=      0.209183317638, max([F,P])=      0.044684675031
 orbitals (Q,E):
 ---------------
 A :31...41          ( 2.00    -0.3794)  ( 2.00    -0.3594)  ( 2.00    -0.3516)  ( 2.00    -0.3223)
                     ( 2.00    -0.2999)  ( 2.00    -0.2921)  ( 2.00    -0.2789)  ( 2.00    -0.2731)
                     ( 2.00    -0.2557)  ( 2.00    -0.2403)  ( 0.00    -0.1358)

 CYCLE    6
  SDIIS (wt  0.621): -0.0223  0.1753  0.0219  0.5085  0.3165
 A-DIIS (wt  0.379):  0.0000  0.0000  0.0000  0.4160  0.5840
  DIIS coefficients: -0.0138  0.1088  0.0136  0.4734  0.4180
 SCF Error: norm([F,P])=      0.181794744216, max([F,P])=      0.038550899984
 orbitals (Q,E):
 ---------------
 A :31...41          ( 2.00    -0.3695)  ( 2.00    -0.3510)  ( 2.00    -0.3420)  ( 2.00    -0.3166)
                     ( 2.00    -0.2946)  ( 2.00    -0.2855)  ( 2.00    -0.2785)  ( 2.00    -0.2707)
                     ( 2.00    -0.2510)  ( 2.00    -0.2338)  ( 0.00    -0.1279)

 CYCLE    7
  SDIIS (wt  0.621): -0.0010  0.0685  0.0141  0.3663  0.3573  0.1949
 A-DIIS (wt  0.379):  0.0000  0.0000  0.0000  0.0932  0.3886  0.5182
  DIIS coefficients: -0.0006  0.0425  0.0087  0.2627  0.3691  0.3175
 SCF Error: norm([F,P])=      0.148367315740, max([F,P])=      0.046044573545
 orbitals (Q,E):
 ---------------
 A :31...41          ( 2.00    -0.3673)  ( 2.00    -0.3498)  ( 2.00    -0.3403)  ( 2.00    -0.3160)
                     ( 2.00    -0.2937)  ( 2.00    -0.2855)  ( 2.00    -0.2746)  ( 2.00    -0.2676)
                     ( 2.00    -0.2494)  ( 2.00    -0.2340)  ( 0.00    -0.1265)

 CYCLE    8
  SDIIS (wt  0.776): -0.0107  0.0336 -0.0012  0.1406  0.1969  0.2882  0.3526
 A-DIIS (wt  0.224):  0.0000  0.0000  0.0000  0.0000  0.0000  0.3077  0.6923
  DIIS coefficients: -0.0083  0.0261 -0.0009  0.1091  0.1528  0.2926  0.4287
 SCF Error: norm([F,P])=      0.078214896735, max([F,P])=      0.023171593111
 orbitals (Q,E):
 ---------------
 A :31...41          ( 2.00    -0.3694)  ( 2.00    -0.3511)  ( 2.00    -0.3420)  ( 2.00    -0.3169)
                     ( 2.00    -0.2939)  ( 2.00    -0.2852)  ( 2.00    -0.2756)  ( 2.00    -0.2685)
                     ( 2.00    -0.2504)  ( 2.00    -0.2349)  ( 0.00    -0.1278)

 CYCLE    9
  SDIIS (wt  0.979):  0.0001  0.0052  0.0008  0.0447  0.0703  0.1556  0.2672  0.4561
 A-DIIS (wt  0.021):  0.0000  0.0000  0.0000  0.0000  0.0000  0.0000  0.0062  0.9938
  DIIS coefficients:  0.0001  0.0051  0.0007  0.0437  0.0688  0.1523  0.2617  0.4675
 SCF Error: norm([F,P])=      0.011780573972, max([F,P])=      0.003092590808
 orbitals (Q,E):
[...]
                                    2.17%     1 P:x            -5.239  0.67     2 C
                                   -2.13%     2 P:x             4.589  0.00     2 C
                                   -2.12%     2 P:z             4.589  0.00     1 C
                                    2.11%     3 S              40.869  0.00    13 H
                                    1.92%     1 P:x            -5.239  0.67     1 C
                                    1.86%     1 P:x            -5.239  0.67     3 C
                                    1.52%     1 S              -6.532  1.00    10 H
                                    1.47%     3 S              40.869  0.00     7 H
                                   -1.37%     2 P:x             7.649  0.00    15 N
                                    1.34%     2 S               2.394  0.00    14 H
                                    1.31%     3 S              40.869  0.00     8 H
                                    1.22%     1 S              -6.532  1.00    14 H
       1.632  0.00    49 A         29.78%     1 S              -6.532  1.00    14 H
                                   23.49%     2 S               2.394  0.00    14 H
                                   10.64%     1 S              -6.532  1.00    11 H
                                    7.34%     1 S              -6.532  1.00    10 H
                                    7.12%     1 P:z            -5.239  0.67     4 C
                                    6.28%     1 S              -6.532  1.00    13 H
                                   -5.83%     2 S               2.394  0.00    13 H
                                    5.79%     1 S              -6.532  1.00     6 H
                                   -5.20%     2 P:x             7.649  0.00    15 N
                                   -5.05%     2 P:z             4.589  0.00     4 C
                                   -4.88%     2 P:y             4.589  0.00     4 C
                                    4.52%     1 P:y            -5.239  0.67     1 C
                                    4.33%     2 S             -13.620  2.00     2 C
                                    3.70%     2 S               2.394  0.00    11 H
                                    3.70%     1 P:x            -7.062  1.00    15 N
                                   -3.66%     3 S              10.158  0.00     2 C
                                    2.44%     1 P:z            -5.239  0.67     2 C
                                   -2.28%     2 P:y             4.589  0.00     1 C
                                    1.99%     1 P:x            -5.239  0.67     3 C
                                    1.86%     1 P:y            -7.062  1.00    15 N
                                    1.43%     2 S               2.394  0.00     7 H
                                   -1.39%     1 P:y            -5.239  0.67     4 C
                                    1.31%     2 S             -18.450  2.00    16 N
                                    1.27%     1 S              -6.532  1.00     7 H
                                    1.25%     2 S               2.394  0.00     9 H
                                    1.23%     3 S              40.869  0.00    11 H
                                    1.21%     1 P:x            -5.239  0.67     4 C
                                   -1.15%     2 P:z             4.589  0.00     3 C
                                    1.07%     3 S              40.869  0.00    14 H
       1.727  0.00    50 A         28.40%     1 S              -6.532  1.00     8 H
                                   23.62%     1 S              -6.532  1.00     9 H
                                  -18.52%     2 P:x             4.589  0.00     3 C
                                   15.61%     2 S               2.394  0.00     8 H
                                    9.51%     1 S              -6.532  1.00     6 H
                                    8.55%     2 S               2.394  0.00     9 H
                                    6.45%     1 P:y            -5.239  0.67     3 C
                                    5.90%     1 S              -6.532  1.00    13 H
                                    5.68%     2 S               2.394  0.00    13 H
                                   -5.62%     2 S               2.394  0.00     6 H
                                    3.64%     1 P:x            -5.239  0.67     2 C
                                    3.55%     2 P:x             4.589  0.00     1 C
                                   -3.28%     2 P:y             4.589  0.00     3 C
                                    3.25%     1 P:y            -5.239  0.67     1 C
                                   -3.25%     2 P:z             4.589  0.00     4 C
                                    3.08%     2 S               2.394  0.00    11 H
                                    3.00%     1 S              -6.532  1.00    14 H
                                    2.30%     3 S              40.869  0.00     8 H
                                    2.17%     2 P:x             4.589  0.00     4 C
                                   -2.00%     2 P:z             7.649  0.00    15 N
                                   -1.78%     2 P:y             4.589  0.00     1 C
                                    1.61%     1 P:x            -5.239  0.67     3 C
                                   -1.52%     2 P:y             4.589  0.00     2 C
                                    1.33%     2 S               2.394  0.00    10 H
                                   -1.23%     3 S              10.158  0.00     2 C
                                    1.16%     1 P:y            -5.239  0.67     2 C
                                   -1.11%     4 S               5.292  0.00     5 Cl
       1.932  0.00    51 A         35.00%     1 S              -6.532  1.00    12 H
                                  -18.75%     2 P:x             4.589  0.00     4 C
                                   16.84%     1 S              -6.532  1.00    10 H
                                   15.91%     1 S              -6.532  1.00    11 H
                                   12.23%     1 S              -6.532  1.00    14 H
                                    8.33%     2 S               2.394  0.00    12 H
                                   -7.63%     2 P:x             7.649  0.00    15 N
                                   -5.34%     2 S               2.394  0.00    11 H
                                    4.89%     1 P:x            -5.239  0.67     4 C
                                    4.89%     1 P:x            -7.062  1.00    15 N
                                    4.81%     2 S               2.394  0.00    13 H
                                    3.79%     1 S              -6.532  1.00    13 H
                                    3.64%     1 P:y            -5.239  0.67     4 C
                                   -3.23%     2 P:y             4.589  0.00     4 C
                                    2.60%     3 S              40.869  0.00    12 H
                                   -2.42%     2 P:z             4.589  0.00     3 C
                                    2.22%     2 P:x             4.589  0.00     1 C
                                    2.14%     2 S               2.394  0.00    14 H
                                    2.09%     1 S              -6.532  1.00     8 H
                                    1.91%     2 S               2.394  0.00     8 H
                                    1.70%     3 S              40.869  0.00    10 H
                                    1.69%     1 S              -6.532  1.00     7 H
                                    1.33%     1 P:y            -7.062  1.00    15 N
                                    1.21%     3 S              40.869  0.00    11 H



 =======================================================================
 Electrostatic potential at the Nuclei due to electrons and other nuclei
 =======================================================================
  
         Atom                  Potential
         ----                  ---------
     1)   C                  14.66560374
     2)   C                  14.70676865
     3)   Cl                 64.86073172
     4)   H                   1.06079785
     5)   C                  14.77878070
     6)   H                   1.10074773
     7)   H                   1.09884074
     8)   H                   1.10336720
     9)   N                  18.40975185
    10)   H                   1.03688696
    11)   H                   1.03258863
    12)   C                  14.77948168
    13)   H                   1.09965387
    14)   H                   1.10085027
    15)   H                   1.10316597
    16)   N                  18.18718606
    17)   O                  22.36004585
    18)   O                  22.36137929
 Mulliken charges used for AMS results%charges...


    =====================
     CALCULATION RESULTS
    =====================

Energy (hartree)            -3.46147137


--------------
Atomic charges
--------------
  Index   Atom    Charge
      1      C    0.0628
      2      C    0.2822
      3     Cl   -0.1634
      4      H   -0.1188
      5      C    0.7543
      6      H   -0.2105
      7      H   -0.2034
      8      H   -0.1775
      9      N   -0.0539
     10      H   -0.0540
     11      H   -0.0303
     12      C    0.6941
     13      H   -0.1977
     14      H   -0.2246
     15      H   -0.1833
     16      N    0.5870
     17      O   -0.3855
     18      O   -0.3774


Dipole moment vector    (Debye):    -0.25821719    2.13077413    3.41123776
              magnitude (Debye):     4.03031234


-----------------------
Molecular orbitals info
-----------------------
n orbitals:              341
n spin:                    1

Note: only printing virtual orbitals with
      energy smaller than HOMO + 100. eV

HOMO (eV):              -6.3833
LUMO (eV):              -3.4741
HOMO-LUMO gap (eV):      2.9092

   Index   Energy (eV)    Occupation
     223       93.5381         0.000       
     222       93.3148         0.000       
     221       92.9187         0.000       
     220       92.2560         0.000       
     219       92.2371         0.000       
     218       92.0484         0.000       
     217       90.8728         0.000       
     216       90.1639         0.000       
     215       89.7738         0.000       
     214       88.9467         0.000       
     213       88.1330         0.000       
     212       86.5836         0.000       
     211       86.3042         0.000       
     210       85.6826         0.000       
     209       83.8556         0.000       
     208       83.0977         0.000       
     207       82.3754         0.000       
     206       81.9872         0.000       
     205       81.6843         0.000       
     204       81.5416         0.000       
     203       80.5812         0.000       
     202       79.8214         0.000       
     201       79.4715         0.000       
     200       78.6973         0.000       
     199       78.4762         0.000       
     198       78.0106         0.000       
     197       77.7323         0.000       
     196       77.1024         0.000       
     195       76.2709         0.000       
     194       75.4569         0.000       
     193       73.8047         0.000       
     192       73.2178         0.000       
     191       71.9501         0.000       
     190       71.8057         0.000       
     189       71.2696         0.000       
     188       70.3832         0.000       
     187       69.3191         0.000       
     186       68.7149         0.000       
     185       68.0722         0.000       
     184       66.9034         0.000       
     183       66.2567         0.000       
     182       66.0106         0.000       
     181       64.4729         0.000       
     180       63.6391         0.000       
     179       63.3454         0.000       
     178       62.7324         0.000       
     177       62.3488         0.000       
     176       61.8869         0.000       
     175       61.1384         0.000       
     174       59.8927         0.000       
     173       59.2283         0.000       
     172       58.5151         0.000       
     171       58.1980         0.000       
     170       57.6802         0.000       
     169       56.5502         0.000       
     168       56.2475         0.000       
     167       55.6255         0.000       
     166       55.1520         0.000       
     165       54.5403         0.000       
     164       53.6216         0.000       
     163       52.5835         0.000       
     162       52.4912         0.000       
     161       51.5179         0.000       
     160       51.2162         0.000       
     159       50.5108         0.000       
     158       50.0276         0.000       
     157       49.6478         0.000       
     156       49.0890         0.000       
     155       48.3098         0.000       
     154       47.8755         0.000       
     153       47.1238         0.000       
     152       46.5188         0.000       
     151       45.8367         0.000       
     150       45.2875         0.000       
     149       44.2010         0.000       
     148       44.0351         0.000       
     147       42.8656         0.000       
     146       42.5827         0.000       
     145       41.5188         0.000       
     144       41.3025         0.000       
     143       40.4907         0.000       
     142       40.0043         0.000       
     141       39.8478         0.000       
     140       39.1173         0.000       
     139       38.5422         0.000       
     138       38.0335         0.000       
     137       37.0923         0.000       
     136       37.0422         0.000       
     135       36.2520         0.000       
     134       35.8408         0.000       
     133       35.4869         0.000       
     132       35.1894         0.000       
     131       34.7782         0.000       
     130       34.2933         0.000       
     129       34.0466         0.000       
     128       33.8013         0.000       
     127       33.3640         0.000       
     126       32.8318         0.000       
     125       32.6546         0.000       
     124       32.3828         0.000       
     123       32.1055         0.000       
     122       31.5059         0.000       
     121       31.1757         0.000       
     120       30.6000         0.000       
     119       30.2145         0.000       
     118       30.0684         0.000       
     117       29.8324         0.000       
     116       29.2703         0.000       
     115       28.7104         0.000       
     114       28.2249         0.000       
     113       27.9629         0.000       
     112       27.1986         0.000       
     111       26.9717         0.000       
     110       26.3916         0.000       
     109       26.1718         0.000       
     108       25.8333         0.000       
     107       24.3849         0.000       
     106       23.8067         0.000       
     105       23.4123         0.000       
     104       22.7160         0.000       
     103       22.0401         0.000       
     102       21.3102         0.000       
     101       20.4400         0.000       
     100       19.9319         0.000       
      99       19.2653         0.000       
      98       18.4202         0.000       
      97       17.4585         0.000       
      96       17.2584         0.000       
      95       16.6577         0.000       
      94       16.3224         0.000       
      93       15.5480         0.000       
      92       14.9578         0.000       
      91       14.6673         0.000       
      90       13.7810         0.000       
      89       13.4345         0.000       
      88       13.2908         0.000       
      87       13.0024         0.000       
      86       12.4849         0.000       
      85       12.1476         0.000       
      84       11.8168         0.000       
      83       11.7161         0.000       
      82       11.5648         0.000       
      81       11.0543         0.000       
      80       10.7249         0.000       
      79       10.6897         0.000       
      78       10.3695         0.000       
      77       10.2008         0.000       
      76        9.8879         0.000       
      75        9.7863         0.000       
      74        9.4954         0.000       
      73        9.2349         0.000       
      72        8.7644         0.000       
      71        8.5503         0.000       
      70        8.2516         0.000       
      69        7.5878         0.000       
      68        7.2409         0.000       
      67        7.0522         0.000       
      66        6.8153         0.000       
      65        6.6209         0.000       
      64        6.4094         0.000       
      63        6.1772         0.000       
      62        5.5981         0.000       
      61        5.2302         0.000       
      60        5.0173         0.000       
      59        4.8398         0.000       
      58        4.6520         0.000       
      57        4.4403         0.000       
      56        4.3189         0.000       
      55        3.6031         0.000       
      54        3.3103         0.000       
      53        2.7516         0.000       
      52        2.4319         0.000       
      51        1.9325         0.000       
      50        1.7272         0.000       
      49        1.6323         0.000       
      48        1.4754         0.000       
      47        1.0174         0.000       
      46        0.5384         0.000       
      45        0.3510         0.000       
      44       -0.0474         0.000       
      43       -0.8804         0.000       
      42       -1.8232         0.000       
      41       -3.4741         0.000 < LUMO
      40       -6.3833         2.000 < HOMO
      39       -6.8199         2.000       
      38       -7.3091         2.000       
      37       -7.5031         2.000       
      36       -7.7671         2.000       
      35       -8.0021         2.000       
      34       -8.6189         2.000       
      33       -9.2982         2.000       
      32       -9.5488         2.000       
      31      -10.0413         2.000       
      30      -10.2157         2.000       
      29      -10.9841         2.000       
      28      -11.3215         2.000       
      27      -11.4289         2.000       
      26      -12.3918         2.000       
      25      -12.8085         2.000       
      24      -13.4561         2.000       
      23      -13.6320         2.000       
      22      -14.1702         2.000       
      21      -16.1565         2.000       
      20      -17.6067         2.000       
      19      -18.6084         2.000       
      18      -19.6762         2.000       
      17      -21.7770         2.000       
      16      -23.3702         2.000       
      15      -26.6275         2.000       
      14      -31.0417         2.000       
      13     -190.2979         2.000       
      12     -190.3096         2.000       
      11     -190.6146         2.000       
      10     -251.3527         2.000       
       9     -270.1940         2.000       
       8     -270.2289         2.000       
       7     -272.1131         2.000       
       6     -273.3904         2.000       
       5     -381.7511         2.000       
       4     -387.8387         2.000       
       3     -512.6860         2.000       
       2     -512.7203         2.000       
       1    -2750.6255         2.000       

AMS application finished. Exiting.
NORMAL TERMINATION
     Total cpu time:      78.46
  Total system time:       0.47
 Total elapsed time:      79.21
NORMAL TERMINATION
