srun: Job 662084 step creation temporarily disabled, retrying (Requested nodes are busy)
srun: Job 662084 step creation still disabled, retrying (Requested nodes are busy)
srun: Job 662084 step creation still disabled, retrying (Requested nodes are busy)
srun: Job 662084 step creation still disabled, retrying (Requested nodes are busy)
srun: Job 662084 step creation still disabled, retrying (Requested nodes are busy)
srun: Job 662084 step creation still disabled, retrying (Requested nodes are busy)
srun: Step created for StepId=662084.73

 *******************************************************************************
 *                                                                             *
 *  --------------------------------                                           *
 *   Amsterdam Modeling Suite (AMS)              2026.103                      *
 *  --------------------------------                                           *
 *                                               r260501 2026-05-01 873454b5   *
 *                                                                             *
 *                                                                             *
 *                              =================                              *
 *                              |               |                              *
 *                              |     A M S     |                              *
 *                              |               |                              *
 *                              =================                              *
 *                                                                             *
 *                                                                             *
 *   Online information and documentation:  https://www.scm.com/support/       *
 *   E-mail:  support@scm.com   info@scm.com                                   *
 *                                                                             *
 *   Scientific publications using AMS results must be properly referenced     *
 *   See the User Manuals (or the web site) for recommended citations          *
 *   The terms and conditions of the End User License Agreement apply to       *
 *   the use of AMS, https://www.scm.com/license-terms/                        *
 *                                                                             *
 **********************  x86_64_linux_intel / intelmpi  ************************
 
 Licensed to: Jong-June Jeon / University of Seoul 2026-06-02 13:44:15
 SCM User ID: u30731
  
 AMS 2026.103  RunTime: Jun03-2026 09:45:15  ShM Nodes: 1  Procs: 1

 AMS jobname: c2_fragB_ts
 AMS jobid  : 507565045

 Start   directory: /gpfs/home1/yeseo1ee/projects/eda-asm-prediction/ADF_800/adf_outputs/batch_000/dipolar_000794/
 Results directory: /gpfs/home1/yeseo1ee/projects/eda-asm-prediction/ADF_800/adf_outputs/batch_000/dipolar_000794/c2_fragB_ts.results/
 Scratch directory: /tmp/amstmp_c2_fragB_ts_kid0.507565045/

 RNG seed: 1374432496 -525752420 993843192 -714784695 1460129384 -1621431388 -1200994487 493502548



                      ************************************************************************
                      *  ADF 2026.103  RunTime: Jun03-2026 09:45:15  ShM Nodes: 1  Procs: 1  *
                      ************************************************************************
  

       ****************************
       * SINGLE POINT CALCULATION *
       ****************************

--------
Geometry
--------
Formula: C8H9F3
Atoms
  Index Symbol   x (angstrom)   y (angstrom)   z (angstrom)
      1      C    -1.14579000     1.00821000     0.05603000
      2      C    -2.07826000     1.04911000     1.27019000
      3      C    -1.42962000     0.42582000     2.53251000
      4      C    -1.29515000    -1.07622000     2.16234000
      5      C    -1.86061000    -1.13828000     0.72574000
      6      C    -3.02754000    -0.11306000     0.85666000
      7      C    -0.98725000    -0.35922000    -0.27313000
      8      C    -1.04426000    -0.80353000    -1.70179000
      9      F    -2.33034000    -1.01075000    -2.08651000
     10      F    -0.53791000     0.09989000    -2.55749000
     11      F    -0.41252000    -1.97622000    -1.92909000
     12      H    -1.24656000     1.76647000    -0.72193000
     13      H    -2.53176000     2.03299000     1.43677000
     14      H    -2.11152000     0.56843000     3.38271000
     15      H    -0.47981000     0.89096000     2.82122000
     16      H    -1.92760000    -1.69979000     2.81032000
     17      H    -0.27605000    -1.45641000     2.25155000
     18      H    -2.11687000    -2.14989000     0.38923000
     19      H    -3.55207000     0.06879000    -0.09102000
     20      H    -3.75534000    -0.37878000     1.64018000

Total System Charge              0.00000


----------------
ADF Engine Input
----------------
 
   Basis
     Type TZ2P
     Core None
   End
   XC
     GGA BLYP
     Dispersion GRIMME3 BJDAMP
   End
   Symmetry NOSYM
   NumericalQuality Normal
   Unrestricted No
   SCF
     Iterations 200
     Converge 1.0e-6
   End
   Save TAPE21
 

 Title: *** (NO TITLE) ***

 *** adf ***



 ===========================
 A T T A C H E D   F I L E S
 ===========================
  



 ===============================
 M O D E L   P A R A M E T E R S
 ===============================
  
 DENSITY FUNCTIONAL POTENTIAL (scf)
    LDA:                               Exchange only                           == Not Default ==
    Gradient Corrections:              Becke88 LYP                             == Not Default ==

 SPIN  (restricted / unrestr.)
    Molecule:                          Restricted                               
    Fragments:                         Restricted                               

 OTHER ASPECTS
    Relativistic Corrections:          scalar (ZORA,MAPA)                       

    Nuclear Charge Density Model:      Point Charge Nuclei                      
    Core Treatment:                    Frozen Orbital(s)                        

    Hyperfine or Zeeman Interaction:   ---                                      

 Settings for Grimme D3 dispersion correction

      damping                        BJ
      s6                          1.000
      s8                          2.700
      a1                          0.430
      a2                          4.236

 Other (technical) parameters

      alpha                      14.000
      version                         4
 


 Fragment File(s)
 ----------------
 C:
         file : /gpfs/home1/yeseo1ee/projects/eda-asm-prediction/ADF_800/adf_outputs/batch_000/dipolar_000794/c2_fragB_ts.results/t21.50BA88D5.C
         jobid: 0
         title: Carbon (TZ2P)
 F:
         file : /gpfs/home1/yeseo1ee/projects/eda-asm-prediction/ADF_800/adf_outputs/batch_000/dipolar_000794/c2_fragB_ts.results/t21.CCE1280.F
         jobid: 0
         title: Fluorine (TZ2P)
 H:
         file : /gpfs/home1/yeseo1ee/projects/eda-asm-prediction/ADF_800/adf_outputs/batch_000/dipolar_000794/c2_fragB_ts.results/t21.6F35CCAB.H
         jobid: 0
         title: Hydrogen (TZ2P)



 ===============
 G E O M E T R Y  ***  3D  Molecule  ***
 ===============
  

 ATOMS
 =====                            X Y Z                    CHARGE
                                (Angstrom)             Nucl     +Core       At.Mass
                       --------------------------    ----------------       -------
    1  C              -1.1458    1.0082    0.0560      6.00      6.00       12.0000
    2  C              -2.0783    1.0491    1.2702      6.00      6.00       12.0000
    3  C              -1.4296    0.4258    2.5325      6.00      6.00       12.0000
    4  C              -1.2952   -1.0762    2.1623      6.00      6.00       12.0000
    5  C              -1.8606   -1.1383    0.7257      6.00      6.00       12.0000
    6  C              -3.0275   -0.1131    0.8567      6.00      6.00       12.0000
    7  C              -0.9872   -0.3592   -0.2731      6.00      6.00       12.0000
    8  C              -1.0443   -0.8035   -1.7018      6.00      6.00       12.0000
    9  F              -2.3303   -1.0108   -2.0865      9.00      9.00       18.9984
   10  F              -0.5379    0.0999   -2.5575      9.00      9.00       18.9984
   11  F              -0.4125   -1.9762   -1.9291      9.00      9.00       18.9984
   12  H              -1.2466    1.7665   -0.7219      1.00      1.00        1.0078
   13  H              -2.5318    2.0330    1.4368      1.00      1.00        1.0078
   14  H              -2.1115    0.5684    3.3827      1.00      1.00        1.0078
   15  H              -0.4798    0.8910    2.8212      1.00      1.00        1.0078
   16  H              -1.9276   -1.6998    2.8103      1.00      1.00        1.0078
   17  H              -0.2761   -1.4564    2.2515      1.00      1.00        1.0078
   18  H              -2.1169   -2.1499    0.3892      1.00      1.00        1.0078
   19  H              -3.5521    0.0688   -0.0910      1.00      1.00        1.0078
   20  H              -3.7553   -0.3788    1.6402      1.00      1.00        1.0078


 FRAGMENTS
 =========                                     Atoms in this Fragment     Cart. coord.s (Angstrom)
                                               -------------------------------------------------------
    1  C                                                 1  C           -1.1458    1.0082    0.0560
    2  C                                                 2  C           -2.0783    1.0491    1.2702
    3  C                                                 3  C           -1.4296    0.4258    2.5325
    4  C                                                 4  C           -1.2952   -1.0762    2.1623
    5  C                                                 5  C           -1.8606   -1.1383    0.7257
    6  C                                                 6  C           -3.0275   -0.1131    0.8567
    7  C                                                 7  C           -0.9872   -0.3592   -0.2731
    8  C                                                 8  C           -1.0443   -0.8035   -1.7018
    9  F                                                 9  F           -2.3303   -1.0108   -2.0865
   10  F                                                10  F           -0.5379    0.0999   -2.5575
   11  F                                                11  F           -0.4125   -1.9762   -1.9291
   12  H                                                12  H           -1.2466    1.7665   -0.7219
   13  H                                                13  H           -2.5318    2.0330    1.4368
   14  H                                                14  H           -2.1115    0.5684    3.3827
   15  H                                                15  H           -0.4798    0.8910    2.8212
   16  H                                                16  H           -1.9276   -1.6998    2.8103
   17  H                                                17  H           -0.2761   -1.4564    2.2515
   18  H                                                18  H           -2.1169   -2.1499    0.3892
   19  H                                                19  H           -3.5521    0.0688   -0.0910
   20  H                                                20  H           -3.7553   -0.3788    1.6402



 =====================================
 S Y M M E T R Y ,   E L E C T R O N S
 =====================================
  
 Symmetry: NOSYM

 Irreducible Representations, including subspecies
 -------------------------------------------------
 A


 Configuration of Valence Electrons
 ==================================
 ( determined in the SCF procedure )

 Total:   84

 Net Charge: 0 (Nuclei minus Electrons)

 Aufbau principle for MO occupations will be applied through SCF cycle no.     100
 Thereafter, the program will assign electrons to MOs that are spatially
 similar to the occupied MOs in a "reference" cycle ("KeepOrbitals").
 The reference cycle is always the PREVIOUS cycle: it will evolve with
 the SCF procedure.
 ***************************************************************************************************



                                      ****************************************
                                      *  B U I L D : (Fragments, Functions)  *
                                      ****************************************
  



 =======
 S F O s  ***  (Symmetrized Fragment Orbitals)  ***
 =======
  
 SFOs are linear combinations of (valence) Fragment Orbitals (FOs), such that the SFOs transform as the
 irreducible representations of the (molecular) symmetry group. Each SFO is therefore characterized by
 an irrep of the molecule and by a few (or only one) generating FOs.
 The SFOs constitute a symmetry-adapted basis for the Fock matrix. The MO eigenvector coefficients in
 this basis provide a direct interpretation of the MOs in terms of Frontier Orbital Theory.

 The SFOs are combined with auxiliary Core Functions (CFs) to ensure orthogonalization on the (frozen)
 Core Orbitals (COs). The Core-orthogonalized SFOs (CSFOs) constitute the true Fock basis.

 The FOs, and hence also the (C)SFOs are combinations of the elementary basis functions (BAS). The basis
 functions that participate in the description of the SFOs depend on the irrep. The indices of the
 involved functions are printed below for each irrep.
 (The complete list of primitive basis functions is printed in another section)

 Total nr. of (C)SFOs (summation over all irreps) :   385

 NOTE: a (C)SFO that is defined as a combination of more than one FO is usually NOT normalized.



                                       === A ===
 Nr. of SFOs :  385
 Cartesian basis functions that participate in this irrep (total number =   438) :
      1     2     3     4     5     6     9    12     7    10
     13     8    11    14    15    16    17    18    19    20
     21    22    23    24    25    26    27    28    29    30
     31    32    33    34    35    36    39    42    37    40
     43    38    41    44    45    46    47    48    49    50
     51    52    53    54    55    56    57    58    59    60
     61    62    63    64    65    66    69    72    67    70
     73    68    71    74    75    76    77    78    79    80
     81    82    83    84    85    86    87    88    89    90
     91    92    93    94    95    96    99   102    97   100
    103    98   101   104   105   106   107   108   109   110
    111   112   113   114   115   116   117   118   119   120
    121   122   123   124   125   126   129   132   127   130
    133   128   131   134   135   136   137   138   139   140
    141   142   143   144   145   146   147   148   149   150
    151   152   153   154   155   156   159   162   157   160
    163   158   161   164   165   166   167   168   169   170
    171   172   173   174   175   176   177   178   179   180
    181   182   183   184   185   186   189   192   187   190
    193   188   191   194   195   196   197   198   199   200
    201   202   203   204   205   206   207   208   209   210
    211   212   213   214   215   216   219   222   217   220
    223   218   221   224   225   226   227   228   229   230
    231   232   233   234   235   236   237   238   239   240
    241   242   243   244   245   246   249   252   247   250
    253   248   251   254   255   256   257   258   259   260
    261   262   263   264   265   266   267   268   269   270
    271   272   273   274   275   276   279   282   277   280
    283   278   281   284   285   286   287   288   289   290
    291   292   293   294   295   296   297   298   299   300
    301   302   303   304   305   306   309   312   307   310
    313   308   311   314   315   316   317   318   319   320
    321   322   323   324   325   326   327   328   329   330
    331   332   333   334   335   336   337   338   339   340
    341   342   343   344   345   346   347   348   349   350
    351   352   353   354   355   356   357   358   359   360
    361   362   363   364   365   366   367   368   369   370
    371   372   373   374   375   376   377   378   379   380
    381   382   383   384   385   386   387   388   389   390
    391   392   393   394   395   396   397   398   399   400
    401   402   403   404   405   406   407   408   409   410
    411   412   413   414   415   416   417   418   419   420
    421   422   423   424   425   426   427   428   429   430
    431   432   433   434   435   436   437   438

    SFO  (index         Fragment          Generating    Expansion in Fragment Orbitals
  indx  incl.CFs)   Occup   Orb.Energy   FragmentType  Coeff.   Orbital     on Fragment
 --------------------------------------------------------------------------------------
     1       1      2.000     -10.066 au  C             1.00      1 S               1
                        (    -273.921 eV)
     2       2      2.000      -0.501 au  C             1.00      2 S               1
                        (     -13.620 eV)
     3       3       --         0.373 au  C             1.00      3 S               1
                        (      10.158 eV)
     4       4       --         5.405 au  C             1.00      4 S               1
                        (     147.073 eV)
     5       5       --        49.848 au  C             1.00      5 S               1
                        (    1356.422 eV)
     6       6      0.667      -0.193 au  C             1.00      1 P:x             1
                        (      -5.239 eV)
     7       7       --         0.169 au  C             1.00      2 P:x             1
                        (       4.589 eV)
     8       8       --         2.013 au  C             1.00      3 P:x             1
                        (      54.789 eV)
     9       9      0.667      -0.193 au  C             1.00      1 P:y             1
                        (      -5.239 eV)
    10      10       --         0.169 au  C             1.00      2 P:y             1
                        (       4.589 eV)
    11      11       --         2.013 au  C             1.00      3 P:y             1
                        (      54.789 eV)
    12      12      0.667      -0.193 au  C             1.00      1 P:z             1
                        (      -5.239 eV)
    13      13       --         0.169 au  C             1.00      2 P:z             1
                        (       4.589 eV)
    14      14       --         2.013 au  C             1.00      3 P:z             1
                        (      54.789 eV)
    15      15       --         1.243 au  C             1.00      1 D:z2            1
                        (      33.824 eV)
    16      16       --         1.243 au  C             1.00      1 D:x2-y2         1
                        (      33.824 eV)
    17      17       --         1.243 au  C             1.00      1 D:xy            1
                        (      33.824 eV)
    18      18       --         1.243 au  C             1.00      1 D:xz            1
                        (      33.824 eV)
    19      19       --         1.243 au  C             1.00      1 D:yz            1
                        (      33.824 eV)
    20      20       --         4.016 au  C             1.00      1 F:z3            1
                        (     109.271 eV)
    21      21       --         4.016 au  C             1.00      1 F:z             1
                        (     109.271 eV)
    22      22       --         4.016 au  C             1.00      1 F:xyz           1
                        (     109.271 eV)
    23      23       --         4.016 au  C             1.00      1 F:z2x           1
                        (     109.271 eV)
    24      24       --         4.016 au  C             1.00      1 F:z2y           1
                        (     109.271 eV)
    25      25       --         4.016 au  C             1.00      1 F:x             1
                        (     109.271 eV)
    26      26       --         4.016 au  C             1.00      1 F:y             1
                        (     109.271 eV)
    27      27      2.000     -10.066 au  C             1.00      1 S               2
                        (    -273.921 eV)
    28      28      2.000      -0.501 au  C             1.00      2 S               2
                        (     -13.620 eV)
    29      29       --         0.373 au  C             1.00      3 S               2
                        (      10.158 eV)
    30      30       --         5.405 au  C             1.00      4 S               2
                        (     147.073 eV)
    31      31       --        49.848 au  C             1.00      5 S               2
                        (    1356.422 eV)
    32      32      0.667      -0.193 au  C             1.00      1 P:x             2
                        (      -5.239 eV)
    33      33       --         0.169 au  C             1.00      2 P:x             2
                        (       4.589 eV)
    34      34       --         2.013 au  C             1.00      3 P:x             2
                        (      54.789 eV)
    35      35      0.667      -0.193 au  C             1.00      1 P:y             2
                        (      -5.239 eV)
    36      36       --         0.169 au  C             1.00      2 P:y             2
                        (       4.589 eV)
    37      37       --         2.013 au  C             1.00      3 P:y             2
                        (      54.789 eV)
    38      38      0.667      -0.193 au  C             1.00      1 P:z             2
                        (      -5.239 eV)
    39      39       --         0.169 au  C             1.00      2 P:z             2
                        (       4.589 eV)
    40      40       --         2.013 au  C             1.00      3 P:z             2
                        (      54.789 eV)
    41      41       --         1.243 au  C             1.00      1 D:z2            2
                        (      33.824 eV)
    42      42       --         1.243 au  C             1.00      1 D:x2-y2         2
                        (      33.824 eV)
    43      43       --         1.243 au  C             1.00      1 D:xy            2
                        (      33.824 eV)
    44      44       --         1.243 au  C             1.00      1 D:xz            2
                        (      33.824 eV)
    45      45       --         1.243 au  C             1.00      1 D:yz            2
                        (      33.824 eV)
    46      46       --         4.016 au  C             1.00      1 F:z3            2
                        (     109.271 eV)
    47      47       --         4.016 au  C             1.00      1 F:z             2
                        (     109.271 eV)
    48      48       --         4.016 au  C             1.00      1 F:xyz           2
                        (     109.271 eV)
    49      49       --         4.016 au  C             1.00      1 F:z2x           2
                        (     109.271 eV)
    50      50       --         4.016 au  C             1.00      1 F:z2y           2
                        (     109.271 eV)
    51      51       --         4.016 au  C             1.00      1 F:x             2
                        (     109.271 eV)
    52      52       --         4.016 au  C             1.00      1 F:y             2
                        (     109.271 eV)
    53      53      2.000     -10.066 au  C             1.00      1 S               3
                        (    -273.921 eV)
    54      54      2.000      -0.501 au  C             1.00      2 S               3
                        (     -13.620 eV)
    55      55       --         0.373 au  C             1.00      3 S               3
                        (      10.158 eV)
    56      56       --         5.405 au  C             1.00      4 S               3
                        (     147.073 eV)
    57      57       --        49.848 au  C             1.00      5 S               3
                        (    1356.422 eV)
    58      58      0.667      -0.193 au  C             1.00      1 P:x             3
                        (      -5.239 eV)
    59      59       --         0.169 au  C             1.00      2 P:x             3
                        (       4.589 eV)
    60      60       --         2.013 au  C             1.00      3 P:x             3
                        (      54.789 eV)
    61      61      0.667      -0.193 au  C             1.00      1 P:y             3
                        (      -5.239 eV)
    62      62       --         0.169 au  C             1.00      2 P:y             3
                        (       4.589 eV)
    63      63       --         2.013 au  C             1.00      3 P:y             3
                        (      54.789 eV)
    64      64      0.667      -0.193 au  C             1.00      1 P:z             3
                        (      -5.239 eV)
    65      65       --         0.169 au  C             1.00      2 P:z             3
                        (       4.589 eV)
    66      66       --         2.013 au  C             1.00      3 P:z             3
                        (      54.789 eV)
    67      67       --         1.243 au  C             1.00      1 D:z2            3
                        (      33.824 eV)
    68      68       --         1.243 au  C             1.00      1 D:x2-y2         3
                        (      33.824 eV)
    69      69       --         1.243 au  C             1.00      1 D:xy            3
                        (      33.824 eV)
    70      70       --         1.243 au  C             1.00      1 D:xz            3
                        (      33.824 eV)
    71      71       --         1.243 au  C             1.00      1 D:yz            3
                        (      33.824 eV)
    72      72       --         4.016 au  C             1.00      1 F:z3            3
                        (     109.271 eV)
    73      73       --         4.016 au  C             1.00      1 F:z             3
                        (     109.271 eV)
    74      74       --         4.016 au  C             1.00      1 F:xyz           3
                        (     109.271 eV)
    75      75       --         4.016 au  C             1.00      1 F:z2x           3
                        (     109.271 eV)
    76      76       --         4.016 au  C             1.00      1 F:z2y           3
                        (     109.271 eV)
    77      77       --         4.016 au  C             1.00      1 F:x             3
                        (     109.271 eV)
    78      78       --         4.016 au  C             1.00      1 F:y             3
                        (     109.271 eV)
    79      79      2.000     -10.066 au  C             1.00      1 S               4
                        (    -273.921 eV)
    80      80      2.000      -0.501 au  C             1.00      2 S               4
                        (     -13.620 eV)
    81      81       --         0.373 au  C             1.00      3 S               4
                        (      10.158 eV)
    82      82       --         5.405 au  C             1.00      4 S               4
                        (     147.073 eV)
    83      83       --        49.848 au  C             1.00      5 S               4
                        (    1356.422 eV)
    84      84      0.667      -0.193 au  C             1.00      1 P:x             4
                        (      -5.239 eV)
    85      85       --         0.169 au  C             1.00      2 P:x             4
                        (       4.589 eV)
    86      86       --         2.013 au  C             1.00      3 P:x             4
                        (      54.789 eV)
    87      87      0.667      -0.193 au  C             1.00      1 P:y             4
                        (      -5.239 eV)
    88      88       --         0.169 au  C             1.00      2 P:y             4
                        (       4.589 eV)
    89      89       --         2.013 au  C             1.00      3 P:y             4
                        (      54.789 eV)
    90      90      0.667      -0.193 au  C             1.00      1 P:z             4
                        (      -5.239 eV)
    91      91       --         0.169 au  C             1.00      2 P:z             4
                        (       4.589 eV)
    92      92       --         2.013 au  C             1.00      3 P:z             4
                        (      54.789 eV)
    93      93       --         1.243 au  C             1.00      1 D:z2            4
                        (      33.824 eV)
    94      94       --         1.243 au  C             1.00      1 D:x2-y2         4
                        (      33.824 eV)
    95      95       --         1.243 au  C             1.00      1 D:xy            4
                        (      33.824 eV)
    96      96       --         1.243 au  C             1.00      1 D:xz            4
                        (      33.824 eV)
    97      97       --         1.243 au  C             1.00      1 D:yz            4
                        (      33.824 eV)
    98      98       --         4.016 au  C             1.00      1 F:z3            4
                        (     109.271 eV)
    99      99       --         4.016 au  C             1.00      1 F:z             4
                        (     109.271 eV)
   100     100       --         4.016 au  C             1.00      1 F:xyz           4
                        (     109.271 eV)
   101     101       --         4.016 au  C             1.00      1 F:z2x           4
                        (     109.271 eV)
   102     102       --         4.016 au  C             1.00      1 F:z2y           4
                        (     109.271 eV)
   103     103       --         4.016 au  C             1.00      1 F:x             4
                        (     109.271 eV)
   104     104       --         4.016 au  C             1.00      1 F:y             4
                        (     109.271 eV)
   105     105      2.000     -10.066 au  C             1.00      1 S               5
                        (    -273.921 eV)
   106     106      2.000      -0.501 au  C             1.00      2 S               5
                        (     -13.620 eV)
   107     107       --         0.373 au  C             1.00      3 S               5
                        (      10.158 eV)
   108     108       --         5.405 au  C             1.00      4 S               5
                        (     147.073 eV)
   109     109       --        49.848 au  C             1.00      5 S               5
                        (    1356.422 eV)
   110     110      0.667      -0.193 au  C             1.00      1 P:x             5
                        (      -5.239 eV)
   111     111       --         0.169 au  C             1.00      2 P:x             5
                        (       4.589 eV)
   112     112       --         2.013 au  C             1.00      3 P:x             5
                        (      54.789 eV)
   113     113      0.667      -0.193 au  C             1.00      1 P:y             5
                        (      -5.239 eV)
   114     114       --         0.169 au  C             1.00      2 P:y             5
                        (       4.589 eV)
   115     115       --         2.013 au  C             1.00      3 P:y             5
                        (      54.789 eV)
   116     116      0.667      -0.193 au  C             1.00      1 P:z             5
                        (      -5.239 eV)
   117     117       --         0.169 au  C             1.00      2 P:z             5
                        (       4.589 eV)
   118     118       --         2.013 au  C             1.00      3 P:z             5
                        (      54.789 eV)
   119     119       --         1.243 au  C             1.00      1 D:z2            5
                        (      33.824 eV)
   120     120       --         1.243 au  C             1.00      1 D:x2-y2         5
                        (      33.824 eV)
   121     121       --         1.243 au  C             1.00      1 D:xy            5
                        (      33.824 eV)
   122     122       --         1.243 au  C             1.00      1 D:xz            5
                        (      33.824 eV)
   123     123       --         1.243 au  C             1.00      1 D:yz            5
                        (      33.824 eV)
   124     124       --         4.016 au  C             1.00      1 F:z3            5
                        (     109.271 eV)
   125     125       --         4.016 au  C             1.00      1 F:z             5
                        (     109.271 eV)
   126     126       --         4.016 au  C             1.00      1 F:xyz           5
                        (     109.271 eV)
   127     127       --         4.016 au  C             1.00      1 F:z2x           5
                        (     109.271 eV)
   128     128       --         4.016 au  C             1.00      1 F:z2y           5
                        (     109.271 eV)
   129     129       --         4.016 au  C             1.00      1 F:x             5
                        (     109.271 eV)
   130     130       --         4.016 au  C             1.00      1 F:y             5
                        (     109.271 eV)
   131     131      2.000     -10.066 au  C             1.00      1 S               6
                        (    -273.921 eV)
   132     132      2.000      -0.501 au  C             1.00      2 S               6
                        (     -13.620 eV)
   133     133       --         0.373 au  C             1.00      3 S               6
                        (      10.158 eV)
   134     134       --         5.405 au  C             1.00      4 S               6
                        (     147.073 eV)
   135     135       --        49.848 au  C             1.00      5 S               6
                        (    1356.422 eV)
   136     136      0.667      -0.193 au  C             1.00      1 P:x             6
                        (      -5.239 eV)
   137     137       --         0.169 au  C             1.00      2 P:x             6
                        (       4.589 eV)
   138     138       --         2.013 au  C             1.00      3 P:x             6
                        (      54.789 eV)
   139     139      0.667      -0.193 au  C             1.00      1 P:y             6
                        (      -5.239 eV)
   140     140       --         0.169 au  C             1.00      2 P:y             6
                        (       4.589 eV)
   141     141       --         2.013 au  C             1.00      3 P:y             6
                        (      54.789 eV)
   142     142      0.667      -0.193 au  C             1.00      1 P:z             6
                        (      -5.239 eV)
   143     143       --         0.169 au  C             1.00      2 P:z             6
                        (       4.589 eV)
   144     144       --         2.013 au  C             1.00      3 P:z             6
                        (      54.789 eV)
   145     145       --         1.243 au  C             1.00      1 D:z2            6
                        (      33.824 eV)
   146     146       --         1.243 au  C             1.00      1 D:x2-y2         6
                        (      33.824 eV)
   147     147       --         1.243 au  C             1.00      1 D:xy            6
                        (      33.824 eV)
   148     148       --         1.243 au  C             1.00      1 D:xz            6
                        (      33.824 eV)
   149     149       --         1.243 au  C             1.00      1 D:yz            6
                        (      33.824 eV)
   150     150       --         4.016 au  C             1.00      1 F:z3            6
                        (     109.271 eV)
   151     151       --         4.016 au  C             1.00      1 F:z             6
                        (     109.271 eV)
   152     152       --         4.016 au  C             1.00      1 F:xyz           6
                        (     109.271 eV)
   153     153       --         4.016 au  C             1.00      1 F:z2x           6
                        (     109.271 eV)
   154     154       --         4.016 au  C             1.00      1 F:z2y           6
                        (     109.271 eV)
   155     155       --         4.016 au  C             1.00      1 F:x             6
                        (     109.271 eV)
   156     156       --         4.016 au  C             1.00      1 F:y             6
                        (     109.271 eV)
   157     157      2.000     -10.066 au  C             1.00      1 S               7
                        (    -273.921 eV)
   158     158      2.000      -0.501 au  C             1.00      2 S               7
                        (     -13.620 eV)
   159     159       --         0.373 au  C             1.00      3 S               7
                        (      10.158 eV)
   160     160       --         5.405 au  C             1.00      4 S               7
                        (     147.073 eV)
   161     161       --        49.848 au  C             1.00      5 S               7
                        (    1356.422 eV)
   162     162      0.667      -0.193 au  C             1.00      1 P:x             7
                        (      -5.239 eV)
   163     163       --         0.169 au  C             1.00      2 P:x             7
                        (       4.589 eV)
   164     164       --         2.013 au  C             1.00      3 P:x             7
                        (      54.789 eV)
   165     165      0.667      -0.193 au  C             1.00      1 P:y             7
                        (      -5.239 eV)
   166     166       --         0.169 au  C             1.00      2 P:y             7
                        (       4.589 eV)
   167     167       --         2.013 au  C             1.00      3 P:y             7
                        (      54.789 eV)
   168     168      0.667      -0.193 au  C             1.00      1 P:z             7
                        (      -5.239 eV)
   169     169       --         0.169 au  C             1.00      2 P:z             7
                        (       4.589 eV)
   170     170       --         2.013 au  C             1.00      3 P:z             7
                        (      54.789 eV)
   171     171       --         1.243 au  C             1.00      1 D:z2            7
                        (      33.824 eV)
   172     172       --         1.243 au  C             1.00      1 D:x2-y2         7
                        (      33.824 eV)
   173     173       --         1.243 au  C             1.00      1 D:xy            7
                        (      33.824 eV)
   174     174       --         1.243 au  C             1.00      1 D:xz            7
                        (      33.824 eV)
   175     175       --         1.243 au  C             1.00      1 D:yz            7
                        (      33.824 eV)
   176     176       --         4.016 au  C             1.00      1 F:z3            7
                        (     109.271 eV)
   177     177       --         4.016 au  C             1.00      1 F:z             7
                        (     109.271 eV)
   178     178       --         4.016 au  C             1.00      1 F:xyz           7
                        (     109.271 eV)
   179     179       --         4.016 au  C             1.00      1 F:z2x           7
                        (     109.271 eV)
   180     180       --         4.016 au  C             1.00      1 F:z2y           7
                        (     109.271 eV)
   181     181       --         4.016 au  C             1.00      1 F:x             7
                        (     109.271 eV)
   182     182       --         4.016 au  C             1.00      1 F:y             7
                        (     109.271 eV)
   183     183      2.000     -10.066 au  C             1.00      1 S               8
                        (    -273.921 eV)
   184     184      2.000      -0.501 au  C             1.00      2 S               8
                        (     -13.620 eV)
   185     185       --         0.373 au  C             1.00      3 S               8
                        (      10.158 eV)
   186     186       --         5.405 au  C             1.00      4 S               8
                        (     147.073 eV)
   187     187       --        49.848 au  C             1.00      5 S               8
                        (    1356.422 eV)
   188     188      0.667      -0.193 au  C             1.00      1 P:x             8
                        (      -5.239 eV)
   189     189       --         0.169 au  C             1.00      2 P:x             8
                        (       4.589 eV)
   190     190       --         2.013 au  C             1.00      3 P:x             8
                        (      54.789 eV)
   191     191      0.667      -0.193 au  C             1.00      1 P:y             8
                        (      -5.239 eV)
   192     192       --         0.169 au  C             1.00      2 P:y             8
                        (       4.589 eV)
   193     193       --         2.013 au  C             1.00      3 P:y             8
                        (      54.789 eV)
   194     194      0.667      -0.193 au  C             1.00      1 P:z             8
                        (      -5.239 eV)
   195     195       --         0.169 au  C             1.00      2 P:z             8
                        (       4.589 eV)
   196     196       --         2.013 au  C             1.00      3 P:z             8
                        (      54.789 eV)
   197     197       --         1.243 au  C             1.00      1 D:z2            8
                        (      33.824 eV)
   198     198       --         1.243 au  C             1.00      1 D:x2-y2         8
                        (      33.824 eV)
   199     199       --         1.243 au  C             1.00      1 D:xy            8
                        (      33.824 eV)
   200     200       --         1.243 au  C             1.00      1 D:xz            8
                        (      33.824 eV)
   201     201       --         1.243 au  C             1.00      1 D:yz            8
                        (      33.824 eV)
   202     202       --         4.016 au  C             1.00      1 F:z3            8
                        (     109.271 eV)
   203     203       --         4.016 au  C             1.00      1 F:z             8
                        (     109.271 eV)
   204     204       --         4.016 au  C             1.00      1 F:xyz           8
                        (     109.271 eV)
   205     205       --         4.016 au  C             1.00      1 F:z2x           8
                        (     109.271 eV)
   206     206       --         4.016 au  C             1.00      1 F:z2y           8
                        (     109.271 eV)
   207     207       --         4.016 au  C             1.00      1 F:x             8
                        (     109.271 eV)
   208     208       --         4.016 au  C             1.00      1 F:y             8
                        (     109.271 eV)
   209     209      2.000     -24.402 au  F             1.00      1 S               9
                        (    -664.014 eV)
   210     210      2.000      -1.095 au  F             1.00      2 S               9
                        (     -29.785 eV)
   211     211       --         0.023 au  F             1.00      3 S               9
                        (       0.624 eV)
   212     212       --         1.576 au  F             1.00      4 S               9
                        (      42.880 eV)
   213     213       --        47.803 au  F             1.00      5 S               9
                        (    1300.785 eV)
   214     214      1.667      -0.409 au  F             1.00      1 P:x             9
                        (     -11.127 eV)
   215     215       --         0.428 au  F             1.00      2 P:x             9
                        (      11.654 eV)
   216     216       --         4.556 au  F             1.00      3 P:x             9
                        (     123.977 eV)
   217     217      1.667      -0.409 au  F             1.00      1 P:y             9
                        (     -11.127 eV)
   218     218       --         0.428 au  F             1.00      2 P:y             9
                        (      11.654 eV)
   219     219       --         4.556 au  F             1.00      3 P:y             9
                        (     123.977 eV)
   220     220      1.667      -0.409 au  F             1.00      1 P:z             9
                        (     -11.127 eV)
   221     221       --         0.428 au  F             1.00      2 P:z             9
                        (      11.654 eV)
   222     222       --         4.556 au  F             1.00      3 P:z             9
                        (     123.977 eV)
   223     223       --         1.117 au  F             1.00      1 D:z2            9
                        (      30.390 eV)
   224     224       --         1.117 au  F             1.00      1 D:x2-y2         9
                        (      30.390 eV)
   225     225       --         1.117 au  F             1.00      1 D:xy            9
                        (      30.390 eV)
   226     226       --         1.117 au  F             1.00      1 D:xz            9
                        (      30.390 eV)
   227     227       --         1.117 au  F             1.00      1 D:yz            9
                        (      30.390 eV)
   228     228       --         3.416 au  F             1.00      1 F:z3            9
                        (      92.949 eV)
   229     229       --         3.416 au  F             1.00      1 F:z             9
                        (      92.949 eV)
   230     230       --         3.416 au  F             1.00      1 F:xyz           9
                        (      92.949 eV)
   231     231       --         3.416 au  F             1.00      1 F:z2x           9
                        (      92.949 eV)
   232     232       --         3.416 au  F             1.00      1 F:z2y           9
                        (      92.949 eV)
   233     233       --         3.416 au  F             1.00      1 F:x             9
                        (      92.949 eV)
   234     234       --         3.416 au  F             1.00      1 F:y             9
                        (      92.949 eV)
   235     235      2.000     -24.402 au  F             1.00      1 S              10
                        (    -664.014 eV)
   236     236      2.000      -1.095 au  F             1.00      2 S              10
                        (     -29.785 eV)
   237     237       --         0.023 au  F             1.00      3 S              10
                        (       0.624 eV)
   238     238       --         1.576 au  F             1.00      4 S              10
                        (      42.880 eV)
   239     239       --        47.803 au  F             1.00      5 S              10
                        (    1300.785 eV)
   240     240      1.667      -0.409 au  F             1.00      1 P:x            10
                        (     -11.127 eV)
   241     241       --         0.428 au  F             1.00      2 P:x            10
                        (      11.654 eV)
   242     242       --         4.556 au  F             1.00      3 P:x            10
                        (     123.977 eV)
   243     243      1.667      -0.409 au  F             1.00      1 P:y            10
                        (     -11.127 eV)
   244     244       --         0.428 au  F             1.00      2 P:y            10
                        (      11.654 eV)
   245     245       --         4.556 au  F             1.00      3 P:y            10
                        (     123.977 eV)
   246     246      1.667      -0.409 au  F             1.00      1 P:z            10
                        (     -11.127 eV)
   247     247       --         0.428 au  F             1.00      2 P:z            10
                        (      11.654 eV)
   248     248       --         4.556 au  F             1.00      3 P:z            10
                        (     123.977 eV)
   249     249       --         1.117 au  F             1.00      1 D:z2           10
                        (      30.390 eV)
   250     250       --         1.117 au  F             1.00      1 D:x2-y2        10
                        (      30.390 eV)
   251     251       --         1.117 au  F             1.00      1 D:xy           10
                        (      30.390 eV)
   252     252       --         1.117 au  F             1.00      1 D:xz           10
                        (      30.390 eV)
   253     253       --         1.117 au  F             1.00      1 D:yz           10
                        (      30.390 eV)
   254     254       --         3.416 au  F             1.00      1 F:z3           10
                        (      92.949 eV)
   255     255       --         3.416 au  F             1.00      1 F:z            10
                        (      92.949 eV)
   256     256       --         3.416 au  F             1.00      1 F:xyz          10
                        (      92.949 eV)
   257     257       --         3.416 au  F             1.00      1 F:z2x          10
                        (      92.949 eV)
   258     258       --         3.416 au  F             1.00      1 F:z2y          10
                        (      92.949 eV)
   259     259       --         3.416 au  F             1.00      1 F:x            10
                        (      92.949 eV)
   260     260       --         3.416 au  F             1.00      1 F:y            10
                        (      92.949 eV)
   261     261      2.000     -24.402 au  F             1.00      1 S              11
                        (    -664.014 eV)
   262     262      2.000      -1.095 au  F             1.00      2 S              11
                        (     -29.785 eV)
   263     263       --         0.023 au  F             1.00      3 S              11
                        (       0.624 eV)
   264     264       --         1.576 au  F             1.00      4 S              11
                        (      42.880 eV)
   265     265       --        47.803 au  F             1.00      5 S              11
                        (    1300.785 eV)
   266     266      1.667      -0.409 au  F             1.00      1 P:x            11
                        (     -11.127 eV)
   267     267       --         0.428 au  F             1.00      2 P:x            11
                        (      11.654 eV)
   268     268       --         4.556 au  F             1.00      3 P:x            11
                        (     123.977 eV)
   269     269      1.667      -0.409 au  F             1.00      1 P:y            11
                        (     -11.127 eV)
   270     270       --         0.428 au  F             1.00      2 P:y            11
                        (      11.654 eV)
   271     271       --         4.556 au  F             1.00      3 P:y            11
                        (     123.977 eV)
   272     272      1.667      -0.409 au  F             1.00      1 P:z            11
                        (     -11.127 eV)
   273     273       --         0.428 au  F             1.00      2 P:z            11
                        (      11.654 eV)
   274     274       --         4.556 au  F             1.00      3 P:z            11
                        (     123.977 eV)
   275     275       --         1.117 au  F             1.00      1 D:z2           11
                        (      30.390 eV)
   276     276       --         1.117 au  F             1.00      1 D:x2-y2        11
                        (      30.390 eV)
   277     277       --         1.117 au  F             1.00      1 D:xy           11
                        (      30.390 eV)
   278     278       --         1.117 au  F             1.00      1 D:xz           11
                        (      30.390 eV)
   279     279       --         1.117 au  F             1.00      1 D:yz           11
                        (      30.390 eV)
   280     280       --         3.416 au  F             1.00      1 F:z3           11
                        (      92.949 eV)
   281     281       --         3.416 au  F             1.00      1 F:z            11
                        (      92.949 eV)
   282     282       --         3.416 au  F             1.00      1 F:xyz          11
                        (      92.949 eV)
   283     283       --         3.416 au  F             1.00      1 F:z2x          11
                        (      92.949 eV)
   284     284       --         3.416 au  F             1.00      1 F:z2y          11
                        (      92.949 eV)
   285     285       --         3.416 au  F             1.00      1 F:x            11
                        (      92.949 eV)
   286     286       --         3.416 au  F             1.00      1 F:y            11
                        (      92.949 eV)
   287     287      1.000      -0.240 au  H             1.00      1 S              12
                        (      -6.532 eV)
   288     288       --         0.088 au  H             1.00      2 S              12
                        (       2.394 eV)
   289     289       --         1.502 au  H             1.00      3 S              12
                        (      40.869 eV)
   290     290       --         0.406 au  H             1.00      1 P:x            12
                        (      11.051 eV)
   291     291       --         0.406 au  H             1.00      1 P:y            12
                        (      11.051 eV)
   292     292       --         0.406 au  H             1.00      1 P:z            12
                        (      11.051 eV)
   293     293       --         2.569 au  H             1.00      1 D:z2           12
                        (      69.917 eV)
   294     294       --         2.569 au  H             1.00      1 D:x2-y2        12
                        (      69.917 eV)
   295     295       --         2.569 au  H             1.00      1 D:xy           12
                        (      69.917 eV)
   296     296       --         2.569 au  H             1.00      1 D:xz           12
                        (      69.917 eV)
   297     297       --         2.569 au  H             1.00      1 D:yz           12
                        (      69.917 eV)
   298     298      1.000      -0.240 au  H             1.00      1 S              13
                        (      -6.532 eV)
   299     299       --         0.088 au  H             1.00      2 S              13
                        (       2.394 eV)
   300     300       --         1.502 au  H             1.00      3 S              13
                        (      40.869 eV)
   301     301       --         0.406 au  H             1.00      1 P:x            13
                        (      11.051 eV)
   302     302       --         0.406 au  H             1.00      1 P:y            13
                        (      11.051 eV)
   303     303       --         0.406 au  H             1.00      1 P:z            13
                        (      11.051 eV)
   304     304       --         2.569 au  H             1.00      1 D:z2           13
                        (      69.917 eV)
   305     305       --         2.569 au  H             1.00      1 D:x2-y2        13
                        (      69.917 eV)
   306     306       --         2.569 au  H             1.00      1 D:xy           13
                        (      69.917 eV)
   307     307       --         2.569 au  H             1.00      1 D:xz           13
                        (      69.917 eV)
   308     308       --         2.569 au  H             1.00      1 D:yz           13
                        (      69.917 eV)
   309     309      1.000      -0.240 au  H             1.00      1 S              14
                        (      -6.532 eV)
   310     310       --         0.088 au  H             1.00      2 S              14
                        (       2.394 eV)
   311     311       --         1.502 au  H             1.00      3 S              14
                        (      40.869 eV)
   312     312       --         0.406 au  H             1.00      1 P:x            14
                        (      11.051 eV)
   313     313       --         0.406 au  H             1.00      1 P:y            14
                        (      11.051 eV)
   314     314       --         0.406 au  H             1.00      1 P:z            14
                        (      11.051 eV)
   315     315       --         2.569 au  H             1.00      1 D:z2           14
                        (      69.917 eV)
   316     316       --         2.569 au  H             1.00      1 D:x2-y2        14
                        (      69.917 eV)
   317     317       --         2.569 au  H             1.00      1 D:xy           14
                        (      69.917 eV)
   318     318       --         2.569 au  H             1.00      1 D:xz           14
                        (      69.917 eV)
   319     319       --         2.569 au  H             1.00      1 D:yz           14
                        (      69.917 eV)
   320     320      1.000      -0.240 au  H             1.00      1 S              15
                        (      -6.532 eV)
   321     321       --         0.088 au  H             1.00      2 S              15
                        (       2.394 eV)
   322     322       --         1.502 au  H             1.00      3 S              15
                        (      40.869 eV)
   323     323       --         0.406 au  H             1.00      1 P:x            15
                        (      11.051 eV)
   324     324       --         0.406 au  H             1.00      1 P:y            15
                        (      11.051 eV)
   325     325       --         0.406 au  H             1.00      1 P:z            15
                        (      11.051 eV)
   326     326       --         2.569 au  H             1.00      1 D:z2           15
                        (      69.917 eV)
   327     327       --         2.569 au  H             1.00      1 D:x2-y2        15
                        (      69.917 eV)
   328     328       --         2.569 au  H             1.00      1 D:xy           15
                        (      69.917 eV)
   329     329       --         2.569 au  H             1.00      1 D:xz           15
                        (      69.917 eV)
   330     330       --         2.569 au  H             1.00      1 D:yz           15
                        (      69.917 eV)
   331     331      1.000      -0.240 au  H             1.00      1 S              16
                        (      -6.532 eV)
   332     332       --         0.088 au  H             1.00      2 S              16
                        (       2.394 eV)
   333     333       --         1.502 au  H             1.00      3 S              16
                        (      40.869 eV)
   334     334       --         0.406 au  H             1.00      1 P:x            16
                        (      11.051 eV)
   335     335       --         0.406 au  H             1.00      1 P:y            16
                        (      11.051 eV)
   336     336       --         0.406 au  H             1.00      1 P:z            16
                        (      11.051 eV)
   337     337       --         2.569 au  H             1.00      1 D:z2           16
                        (      69.917 eV)
   338     338       --         2.569 au  H             1.00      1 D:x2-y2        16
                        (      69.917 eV)
   339     339       --         2.569 au  H             1.00      1 D:xy           16
                        (      69.917 eV)
   340     340       --         2.569 au  H             1.00      1 D:xz           16
                        (      69.917 eV)
   341     341       --         2.569 au  H             1.00      1 D:yz           16
                        (      69.917 eV)
   342     342      1.000      -0.240 au  H             1.00      1 S              17
                        (      -6.532 eV)
   343     343       --         0.088 au  H             1.00      2 S              17
                        (       2.394 eV)
   344     344       --         1.502 au  H             1.00      3 S              17
                        (      40.869 eV)
   345     345       --         0.406 au  H             1.00      1 P:x            17
                        (      11.051 eV)
   346     346       --         0.406 au  H             1.00      1 P:y            17
                        (      11.051 eV)
   347     347       --         0.406 au  H             1.00      1 P:z            17
                        (      11.051 eV)
   348     348       --         2.569 au  H             1.00      1 D:z2           17
                        (      69.917 eV)
   349     349       --         2.569 au  H             1.00      1 D:x2-y2        17
                        (      69.917 eV)
   350     350       --         2.569 au  H             1.00      1 D:xy           17
                        (      69.917 eV)
   351     351       --         2.569 au  H             1.00      1 D:xz           17
                        (      69.917 eV)
   352     352       --         2.569 au  H             1.00      1 D:yz           17
                        (      69.917 eV)
   353     353      1.000      -0.240 au  H             1.00      1 S              18
                        (      -6.532 eV)
   354     354       --         0.088 au  H             1.00      2 S              18
                        (       2.394 eV)
   355     355       --         1.502 au  H             1.00      3 S              18
                        (      40.869 eV)
   356     356       --         0.406 au  H             1.00      1 P:x            18
                        (      11.051 eV)
   357     357       --         0.406 au  H             1.00      1 P:y            18
                        (      11.051 eV)
   358     358       --         0.406 au  H             1.00      1 P:z            18
                        (      11.051 eV)
   359     359       --         2.569 au  H             1.00      1 D:z2           18
                        (      69.917 eV)
   360     360       --         2.569 au  H             1.00      1 D:x2-y2        18
                        (      69.917 eV)
   361     361       --         2.569 au  H             1.00      1 D:xy           18
                        (      69.917 eV)
   362     362       --         2.569 au  H             1.00      1 D:xz           18
                        (      69.917 eV)
   363     363       --         2.569 au  H             1.00      1 D:yz           18
                        (      69.917 eV)
   364     364      1.000      -0.240 au  H             1.00      1 S              19
                        (      -6.532 eV)
   365     365       --         0.088 au  H             1.00      2 S              19
                        (       2.394 eV)
   366     366       --         1.502 au  H             1.00      3 S              19
                        (      40.869 eV)
   367     367       --         0.406 au  H             1.00      1 P:x            19
                        (      11.051 eV)
   368     368       --         0.406 au  H             1.00      1 P:y            19
                        (      11.051 eV)
   369     369       --         0.406 au  H             1.00      1 P:z            19
                        (      11.051 eV)
   370     370       --         2.569 au  H             1.00      1 D:z2           19
                        (      69.917 eV)
   371     371       --         2.569 au  H             1.00      1 D:x2-y2        19
                        (      69.917 eV)
   372     372       --         2.569 au  H             1.00      1 D:xy           19
                        (      69.917 eV)
   373     373       --         2.569 au  H             1.00      1 D:xz           19
                        (      69.917 eV)
   374     374       --         2.569 au  H             1.00      1 D:yz           19
                        (      69.917 eV)
   375     375      1.000      -0.240 au  H             1.00      1 S              20
                        (      -6.532 eV)
   376     376       --         0.088 au  H             1.00      2 S              20
                        (       2.394 eV)
   377     377       --         1.502 au  H             1.00      3 S              20
                        (      40.869 eV)
   378     378       --         0.406 au  H             1.00      1 P:x            20
                        (      11.051 eV)
   379     379       --         0.406 au  H             1.00      1 P:y            20
                        (      11.051 eV)
   380     380       --         0.406 au  H             1.00      1 P:z            20
                        (      11.051 eV)
   381     381       --         2.569 au  H             1.00      1 D:z2           20
                        (      69.917 eV)
   382     382       --         2.569 au  H             1.00      1 D:x2-y2        20
                        (      69.917 eV)
   383     383       --         2.569 au  H             1.00      1 D:xy           20
                        (      69.917 eV)
   384     384       --         2.569 au  H             1.00      1 D:xz           20
                        (      69.917 eV)
   385     385       --         2.569 au  H             1.00      1 D:yz           20
                        (      69.917 eV)



 ================================
 (Slater-type)  F U N C T I O N S  ***  (Basis and Fit)  ***
 ================================
  

 Atom Type    1  (C)
 ==============

 Valence Basis Sets:  10
 -----------------------
   1 S    7.680000
   1 S    5.000000
   2 S    1.280000
   2 S    2.100000
   2 S    4.600000
   2 P    0.820000
   2 P    1.480000
   2 P    2.940000
   3 D    2.200000
   4 F    3.300000

 Atom Type    2  (F)
 ==============

 Valence Basis Sets:  10
 -----------------------
   1 S   10.880000
   1 S    7.700000
   2 S    3.240000
   2 S    1.940000
   2 S    0.740000
   2 P    4.540000
   2 P    2.300000
   2 P    1.240000
   3 D    2.000000
   4 F    3.000000

 Atom Type    3  (H)
 ==============

 Valence Basis Sets:   5
 -----------------------
   1 S    0.690000
   1 S    0.920000
   1 S    1.580000
   2 P    1.250000
   3 D    2.500000


 BAS: List of all Elementary Cartesian Basis Functions
 =====================================================

 The numbering in the list below (to the right of the function characteristics) is referred
 to in print-outs of MO eigenvectors and Mulliken populations in the BAS representation
 (as contrasted to the SFO representation).

 Notes:
 1. The functions are characterized by a polynomial prefactor (powers of x,y,z and r) and
    an exponential decay factor alpha.
 2. Since the basis sets are specific for an atom TYPE, the individual functions occur on
    all atoms of that type.
 3. The word 'Core' in the left margin signals that it is a Core Function (CF) : not a
    degree of freedom in the valence set, but only used to ensure orthogonalization of
    the other valence basis functions on the frozen Core Orbitals.


 (power of) X  Y  Z  R     Alpha  on Atom
            ==========     =====     ==========

 C                                    1    2    3    4    5    6    7    8
                                  ---------------------------------------------------------------------------
            0  0  0  0     7.680      1   31   61   91  121  151  181  211
            0  0  0  0     5.000      2   32   62   92  122  152  182  212
            0  0  0  1     1.280      3   33   63   93  123  153  183  213
            0  0  0  1     2.100      4   34   64   94  124  154  184  214
            0  0  0  1     4.600      5   35   65   95  125  155  185  215
            1  0  0  0     0.820      6   36   66   96  126  156  186  216
            0  1  0  0     0.820      7   37   67   97  127  157  187  217
            0  0  1  0     0.820      8   38   68   98  128  158  188  218
            1  0  0  0     1.480      9   39   69   99  129  159  189  219
            0  1  0  0     1.480     10   40   70  100  130  160  190  220
            0  0  1  0     1.480     11   41   71  101  131  161  191  221
            1  0  0  0     2.940     12   42   72  102  132  162  192  222
            0  1  0  0     2.940     13   43   73  103  133  163  193  223
            0  0  1  0     2.940     14   44   74  104  134  164  194  224
            2  0  0  0     2.200     15   45   75  105  135  165  195  225
            1  1  0  0     2.200     16   46   76  106  136  166  196  226
            1  0  1  0     2.200     17   47   77  107  137  167  197  227
            0  2  0  0     2.200     18   48   78  108  138  168  198  228
            0  1  1  0     2.200     19   49   79  109  139  169  199  229
            0  0  2  0     2.200     20   50   80  110  140  170  200  230
            3  0  0  0     3.300     21   51   81  111  141  171  201  231
            2  1  0  0     3.300     22   52   82  112  142  172  202  232
            2  0  1  0     3.300     23   53   83  113  143  173  203  233
            1  2  0  0     3.300     24   54   84  114  144  174  204  234
            1  1  1  0     3.300     25   55   85  115  145  175  205  235
            1  0  2  0     3.300     26   56   86  116  146  176  206  236
            0  3  0  0     3.300     27   57   87  117  147  177  207  237
            0  2  1  0     3.300     28   58   88  118  148  178  208  238
            0  1  2  0     3.300     29   59   89  119  149  179  209  239
            0  0  3  0     3.300     30   60   90  120  150  180  210  240

 F                                    9   10   11
                                  ---------------------------------------------------------------------------
            0  0  0  0    10.880    241  271  301
            0  0  0  0     7.700    242  272  302
            0  0  0  1     3.240    243  273  303
            0  0  0  1     1.940    244  274  304
            0  0  0  1     0.740    245  275  305
            1  0  0  0     4.540    246  276  306
            0  1  0  0     4.540    247  277  307
            0  0  1  0     4.540    248  278  308
            1  0  0  0     2.300    249  279  309
            0  1  0  0     2.300    250  280  310
            0  0  1  0     2.300    251  281  311
            1  0  0  0     1.240    252  282  312
            0  1  0  0     1.240    253  283  313
            0  0  1  0     1.240    254  284  314
            2  0  0  0     2.000    255  285  315
            1  1  0  0     2.000    256  286  316
            1  0  1  0     2.000    257  287  317
            0  2  0  0     2.000    258  288  318
            0  1  1  0     2.000    259  289  319
            0  0  2  0     2.000    260  290  320
            3  0  0  0     3.000    261  291  321
            2  1  0  0     3.000    262  292  322
            2  0  1  0     3.000    263  293  323
            1  2  0  0     3.000    264  294  324
            1  1  1  0     3.000    265  295  325
            1  0  2  0     3.000    266  296  326
            0  3  0  0     3.000    267  297  327
            0  2  1  0     3.000    268  298  328
            0  1  2  0     3.000    269  299  329
            0  0  3  0     3.000    270  300  330

 H                                   12   13   14   15   16   17   18   19   20
                                  ---------------------------------------------------------------------------
            0  0  0  0     0.690    331  343  355  367  379  391  403  415  427
            0  0  0  0     0.920    332  344  356  368  380  392  404  416  428
            0  0  0  0     1.580    333  345  357  369  381  393  405  417  429
            1  0  0  0     1.250    334  346  358  370  382  394  406  418  430
            0  1  0  0     1.250    335  347  359  371  383  395  407  419  431
            0  0  1  0     1.250    336  348  360  372  384  396  408  420  432
            2  0  0  0     2.500    337  349  361  373  385  397  409  421  433
            1  1  0  0     2.500    338  350  362  374  386  398  410  422  434
            1  0  1  0     2.500    339  351  363  375  387  399  411  423  435
            0  2  0  0     2.500    340  352  364  376  388  400  412  424  436
            0  1  1  0     2.500    341  353  365  377  389  401  413  425  437
            0  0  2  0     2.500    342  354  366  378  390  402  414  426  438

 Total number of charge fitting functions (nprimf)      1377
 Total number of Cartesian basis functions (naos)        438
 Total number of Cartesian core functions  (ncos)          0

 ***************************************************************************************************



                                              ***********************
                                              *  T E C H N I C A L  *
                                              ***********************
  



 =============================================================
 P A R A L L E L I Z A T I O N  and  V E C T O R I Z A T I O N
 =============================================================
  
 Nr of parallel processes:                                1
 Maximum vector length in NumInt loops:                 128



 =====================
 S C F   U P D A T E S
 =====================
  
 Max. nr. of cycles:                               200
 Convergence criterion:                              0.0000010000
   secondary criterion:                              0.0010000000

 Mix parameter (when DIIS does not apply):           0.2000000000
 Mixed ADIIS+SDIIS will be used                  
    Max number of expansion vectors:                10
    Pure ADIIS when Max([F,P]) is above              0.1000000000
    Pure SDIIS when Max([F,P]) is below              0.0010000000
 Automatic ElectronSmearing (in case of problematic SCF convergence) disabled



 =================
 P R E C I S I O N  ***  (General: NumInt, NeglectFunctionTails, ...)  ***
 =================
  

 NumInt:           Target precision:                 4.0000000000
 -------           Initial precision:                4.0000000000
                   Min. precision (optimization):    4.0000000000

 Neglect Functions:          Basis functions:        0.1000000000E-05
 ------------------          Fit functions:          0.1000000000E-05



 ===========================
 L I N E A R   S C A L I N G
 ===========================
  

 Cut-off radii density fit:                        0.1000000000E-07
 Overlap cut-off criterion AO matrix elements:     0.1000000000E-05
 Cut-offs for Coulomb potential and fitted density:0.1000000000E-07
 Cut-off criterion for Coulomb multipole terms:    0.1000000000E-07
 Progressive Convergence parameter:                 0.000000000    
 ***************************************************************************************************



                                            ***************************
                                            *  C O M P U T A T I O N  *
                                            ***************************
  

 Number of elements of the density matrix on this node (used, total):     96141     96141



 ===========================================
 Numerical Integration : Fuzzy Cells (Becke)
 ===========================================
  
 Becke grid quality: NORMAL         
  
 Lebedev angular grid order:             min:  11 max:  23
 Nr. of radial points:                   min:  46 max:  55

 Total nr. of points:     132276
 Nr. of blocks:             1034
 Block length:               128
 Nr. of dummy points:         76


 Test of Precision of the Numerical Integration Grid
 ===================================================

 Integral of the Total Core Density:                   0.00000000000000



 ========================
 Density Fitting (zlmFit)
 ========================
  
 ZlmFit Fit Quality: NORMAL         
  
 Max L-expansion:                        min:   6 max:   7
 Nr. of radial interpolation points:     min:  39 max:  51



 =====
 S C F  ***  ScaSCF  ***
 =====
  
 Initial density matrix is calculated as sum of fragments

 CYCLE    1
 SCF Error: norm([F,P])=      7.858291619875, max([F,P])=      1.247284876004
 orbitals (Q,E):
 ---------------
 A :33...52          ( 2.00    -0.4978)  ( 2.00    -0.4925)  ( 2.00    -0.4875)  ( 2.00    -0.4842)
                     ( 2.00    -0.4686)  ( 2.00    -0.4547)  ( 2.00    -0.4528)  ( 2.00    -0.4380)
                     ( 2.00    -0.4366)  ( 2.00    -0.3721)  ( 0.00    -0.2274)  ( 0.00    -0.0765)
                     ( 0.00    -0.0671)  ( 0.00    -0.0540)  ( 0.00    -0.0525)  ( 0.00    -0.0418)
                     ( 0.00    -0.0275)  ( 0.00    -0.0245)  ( 0.00    -0.0176)  ( 0.00    -0.0149)

 CYCLE    2
   MIX coefficients:  0.8000  0.2000
 SCF Error: norm([F,P])=      1.307216551619, max([F,P])=      0.210824187139
 orbitals (Q,E):
 ---------------
 A :33...43          ( 2.00    -0.4322)  ( 2.00    -0.4300)  ( 2.00    -0.4271)  ( 2.00    -0.4223)
                     ( 2.00    -0.4154)  ( 2.00    -0.4105)  ( 2.00    -0.4070)  ( 2.00    -0.4042)
                     ( 2.00    -0.3821)  ( 2.00    -0.3129)  ( 0.00    -0.1751)

 CYCLE    3
  SDIIS (wt  0.000): -0.8713  1.8713
 A-DIIS (wt  1.000):  0.0000  1.0000
  DIIS coefficients:  0.0000  1.0000
 SCF Error: norm([F,P])=      0.663568056225, max([F,P])=      0.098524425293
 orbitals (Q,E):
 ---------------
 A :33...43          ( 2.00    -0.3015)  ( 2.00    -0.2874)  ( 2.00    -0.2739)  ( 2.00    -0.2350)
                     ( 2.00    -0.2318)  ( 2.00    -0.2264)  ( 2.00    -0.2004)  ( 2.00    -0.1979)
                     ( 2.00    -0.1909)  ( 2.00    -0.1440)  ( 0.00    -0.0356)

 CYCLE    4
  SDIIS (wt  0.000):  0.1748  0.4022  0.4230
 A-DIIS (wt  1.000): -0.0000  0.7074  0.2926
  DIIS coefficients: -0.0000  0.7074  0.2926
 SCF Error: norm([F,P])=      1.151609744924, max([F,P])=      0.201412680832
 orbitals (Q,E):
 ---------------
 A :33...43          ( 2.00    -0.3517)  ( 2.00    -0.3332)  ( 2.00    -0.3280)  ( 2.00    -0.3107)
                     ( 2.00    -0.3064)  ( 2.00    -0.3037)  ( 2.00    -0.2858)  ( 2.00    -0.2848)
                     ( 2.00    -0.2629)  ( 2.00    -0.2105)  ( 0.00    -0.0846)

 CYCLE    5
  SDIIS (wt  0.755): -0.0143  0.2797  0.0429  0.6917
 A-DIIS (wt  0.245):  0.0000  0.0000  0.0000  1.0000
  DIIS coefficients: -0.0108  0.2111  0.0323  0.7673
 SCF Error: norm([F,P])=      0.186834275548, max([F,P])=      0.025280343275
 orbitals (Q,E):
 ---------------
 A :33...43          ( 2.00    -0.3725)  ( 2.00    -0.3537)  ( 2.00    -0.3506)  ( 2.00    -0.3290)
                     ( 2.00    -0.3267)  ( 2.00    -0.3250)  ( 2.00    -0.3079)  ( 2.00    -0.3070)
                     ( 2.00    -0.2840)  ( 2.00    -0.2342)  ( 0.00    -0.1049)

 CYCLE    6
  SDIIS (wt  0.755):  0.0208  0.0934  0.0318  0.4543  0.3997
 A-DIIS (wt  0.245):  0.0000  0.0000  0.0000  0.2017  0.7983
  DIIS coefficients:  0.0157  0.0705  0.0240  0.3924  0.4975
 SCF Error: norm([F,P])=      0.100963188722, max([F,P])=      0.027262831995
 orbitals (Q,E):
 ---------------
 A :33...43          ( 2.00    -0.3633)  ( 2.00    -0.3436)  ( 2.00    -0.3423)  ( 2.00    -0.3270)
[...]
                                   -5.84%     2 P:y             4.589  0.00     5 C
                                    5.47%     1 P:y            -5.239  0.67     8 C
                                    5.40%     1 P:z            -5.239  0.67     5 C
                                    4.17%     2 S               2.394  0.00    13 H
                                    4.11%     2 P:x             4.589  0.00     6 C
                                    3.91%     1 P:z            -5.239  0.67     2 C
                                   -3.76%     2 P:z             4.589  0.00     1 C
                                   -3.58%     3 S              10.158  0.00     2 C
                                    3.52%     1 P:z            -5.239  0.67     4 C
                                    3.38%     1 P:y            -5.239  0.67     1 C
                                    3.30%     1 S              -6.532  1.00    13 H
                                   -3.20%     2 P:y             4.589  0.00     1 C
                                    3.11%     1 S              -6.532  1.00    18 H
                                    2.90%     1 P:x            -5.239  0.67     3 C
                                    2.69%     2 S             -13.620  2.00     2 C
                                   -2.47%     2 P:z             4.589  0.00     5 C
                                   -2.45%     1 P:x            -5.239  0.67     8 C
                                    2.35%     2 S             -13.620  2.00     6 C
                                   -2.29%     2 P:x             4.589  0.00     8 C
                                    2.25%     2 P:z             4.589  0.00     3 C
                                   -2.17%     3 S              10.158  0.00     6 C
                                    2.15%     2 P:x             4.589  0.00     2 C
                                   -2.04%     2 P:y             4.589  0.00     4 C
                                   -1.99%     2 S               2.394  0.00    16 H
                                   -1.95%     2 P:z             4.589  0.00     6 C
                                    1.87%     2 S               2.394  0.00    14 H
                                    1.87%     3 S               0.624  0.00    11 F
                                    1.87%     1 P:z            -5.239  0.67     3 C
                                   -1.85%     2 P:x            11.654  0.00     9 F
                                   -1.74%     2 P:x             4.589  0.00     4 C
                                    1.70%     1 P:x            -5.239  0.67     2 C
                                    1.68%     1 S              -6.532  1.00    14 H
                                    1.56%     1 P:y            -5.239  0.67     7 C
                                    1.55%     1 P:x            -5.239  0.67     5 C
                                    1.42%     2 S               2.394  0.00    20 H
                                   -1.11%     2 P:z             4.589  0.00     2 C
                                   -1.10%     3 S              10.158  0.00     8 C
                                    1.10%     2 P:y             4.589  0.00     3 C
                                    1.07%     3 S              40.869  0.00    16 H
       2.728  0.00    55 A         15.19%     1 S              -6.532  1.00    16 H
                                  -13.98%     2 P:x             4.589  0.00     4 C
                                   13.33%     1 S              -6.532  1.00    14 H
                                    9.74%     1 S              -6.532  1.00    18 H
                                    8.47%     1 P:y            -5.239  0.67     8 C
                                    8.09%     3 S               0.624  0.00    10 F
                                   -8.06%     2 P:y             4.589  0.00     2 C
                                   -7.91%     2 P:x             4.589  0.00     3 C
                                    7.85%     1 S              -6.532  1.00    17 H
                                    7.25%     2 S               2.394  0.00    16 H
                                    6.34%     3 S               0.624  0.00    11 F
                                    6.34%     1 S              -6.532  1.00    15 H
                                    5.76%     1 P:x            -5.239  0.67     4 C
                                    5.66%     1 P:y            -5.239  0.67     2 C
                                    4.31%     1 S              -6.532  1.00    13 H
                                   -3.89%     2 P:y             4.589  0.00     5 C
                                    3.66%     1 P:x            -5.239  0.67     3 C
                                    3.56%     2 S               2.394  0.00    17 H
                                   -3.56%     2 P:z             4.589  0.00     8 C
                                    3.41%     2 S               2.394  0.00    18 H
                                   -3.06%     2 P:z             4.589  0.00     4 C
                                    2.73%     2 P:x             4.589  0.00     5 C
                                    2.73%     3 S              40.869  0.00    16 H
                                    2.68%     1 S              -6.532  1.00    12 H
                                    2.40%     1 P:y            -5.239  0.67     5 C
                                    2.39%     1 P:x            -5.239  0.67     6 C
                                    2.22%     1 P:y            -5.239  0.67     6 C
                                    2.17%     1 P:x            -5.239  0.67     5 C
                                    1.86%     2 S               2.394  0.00    15 H
                                    1.78%     3 S              40.869  0.00    14 H
                                    1.66%     1 P:z            -5.239  0.67     3 C
                                   -1.45%     2 P:z            11.654  0.00    10 F
                                    1.43%     2 P:y             4.589  0.00     1 C
                                   -1.36%     2 P:z             4.589  0.00     7 C
                                    1.31%     2 S               2.394  0.00    12 H
                                   -1.24%     2 S             -13.620  2.00     7 C
                                    1.24%     1 P:y           -11.127  1.67    11 F
                                    1.21%     2 S             -13.620  2.00     1 C
                                    1.18%     1 P:x            -5.239  0.67     2 C
                                    1.15%     3 S              40.869  0.00    17 H
                                    1.10%     3 S               0.624  0.00     9 F
                                   -1.10%     2 P:x             4.589  0.00     8 C



 =======================================================================
 Electrostatic potential at the Nuclei due to electrons and other nuclei
 =======================================================================
  
         Atom                  Potential
         ----                  ---------
     1)   C                  14.75862108
     2)   C                  14.76129683
     3)   C                  14.77946490
     4)   C                  14.78057151
     5)   C                  14.76104741
     6)   C                  14.77689464
     7)   C                  14.75665410
     8)   C                  14.53949072
     9)   F                  26.62287491
    10)   F                  26.62041389
    11)   F                  26.62587508
    12)   H                   1.07857471
    13)   H                   1.10654773
    14)   H                   1.11746132
    15)   H                   1.11786406
    16)   H                   1.11752266
    17)   H                   1.11863832
    18)   H                   1.10630081
    19)   H                   1.11185632
    20)   H                   1.11279468
 Mulliken charges used for AMS results%charges...


    =====================
     CALCULATION RESULTS
    =====================

Energy (hartree)            -4.08141647


--------------
Atomic charges
--------------
  Index   Atom    Charge
      1      C    0.2214
      2      C    0.1941
      3      C    0.4413
      4      C    0.4486
      5      C    0.1890
      6      C    0.4039
      7      C   -0.1103
      8      C    1.2320
      9      F   -0.4131
     10      F   -0.4141
     11      F   -0.4137
     12      H   -0.2019
     13      H   -0.1889
     14      H   -0.1978
     15      H   -0.2070
     16      H   -0.2001
     17      H   -0.2115
     18      H   -0.1763
     19      H   -0.1963
     20      H   -0.1993


Dipole moment vector    (Debye):    -1.25588078    1.00301161    2.69634021
              magnitude (Debye):     3.13903160


-----------------------
Molecular orbitals info
-----------------------
n orbitals:              385
n spin:                    1

Note: only printing virtual orbitals with
      energy smaller than HOMO + 100. eV

HOMO (eV):              -6.1888
LUMO (eV):              -2.6996
HOMO-LUMO gap (eV):      3.4892

   Index   Energy (eV)    Occupation
     242       93.3422         0.000       
     241       93.1861         0.000       
     240       92.7681         0.000       
     239       92.3216         0.000       
     238       92.2835         0.000       
     237       92.0679         0.000       
     236       91.4878         0.000       
     235       91.2456         0.000       
     234       90.1806         0.000       
     233       89.9101         0.000       
     232       88.8078         0.000       
     231       88.3019         0.000       
     230       87.8121         0.000       
     229       87.0215         0.000       
     228       86.0088         0.000       
     227       85.1361         0.000       
     226       84.6740         0.000       
     225       84.1691         0.000       
     224       83.3369         0.000       
     223       82.8750         0.000       
     222       82.0913         0.000       
     221       80.7149         0.000       
     220       80.0092         0.000       
     219       79.5294         0.000       
     218       79.3082         0.000       
     217       78.7630         0.000       
     216       78.1240         0.000       
     215       77.6788         0.000       
     214       77.0280         0.000       
     213       76.5520         0.000       
     212       76.1525         0.000       
     211       75.5941         0.000       
     210       75.2239         0.000       
     209       74.8635         0.000       
     208       74.0644         0.000       
     207       73.7453         0.000       
     206       73.3834         0.000       
     205       72.5661         0.000       
     204       72.0917         0.000       
     203       71.0934         0.000       
     202       70.6854         0.000       
     201       70.2540         0.000       
     200       68.7736         0.000       
     199       67.7629         0.000       
     198       67.1157         0.000       
     197       66.5361         0.000       
     196       65.8447         0.000       
     195       65.4285         0.000       
     194       64.6022         0.000       
     193       64.1950         0.000       
     192       63.6443         0.000       
     191       63.0270         0.000       
     190       61.0082         0.000       
     189       60.5780         0.000       
     188       59.9850         0.000       
     187       59.0914         0.000       
     186       58.8305         0.000       
     185       58.1512         0.000       
     184       57.0943         0.000       
     183       56.9417         0.000       
     182       56.5149         0.000       
     181       55.8317         0.000       
     180       54.9696         0.000       
     179       54.3070         0.000       
     178       53.9658         0.000       
     177       53.5424         0.000       
     176       52.8051         0.000       
     175       52.3325         0.000       
     174       51.7129         0.000       
     173       51.4920         0.000       
     172       50.8609         0.000       
     171       50.4916         0.000       
     170       50.0789         0.000       
     169       48.9844         0.000       
     168       48.6858         0.000       
     167       48.5884         0.000       
     166       48.0972         0.000       
     165       47.6894         0.000       
     164       46.1197         0.000       
     163       45.8818         0.000       
     162       45.2925         0.000       
     161       45.0793         0.000       
     160       44.2243         0.000       
     159       43.9734         0.000       
     158       43.4736         0.000       
     157       42.8774         0.000       
     156       42.6123         0.000       
     155       42.0282         0.000       
     154       41.3785         0.000       
     153       40.7999         0.000       
     152       40.3166         0.000       
     151       40.1439         0.000       
     150       39.0362         0.000       
     149       38.6994         0.000       
     148       38.5800         0.000       
     147       37.6275         0.000       
     146       37.4388         0.000       
     145       36.8666         0.000       
     144       36.4425         0.000       
     143       36.2736         0.000       
     142       35.9218         0.000       
     141       35.3513         0.000       
     140       34.8158         0.000       
     139       34.5969         0.000       
     138       34.4197         0.000       
     137       34.0239         0.000       
     136       33.6809         0.000       
     135       33.3580         0.000       
     134       32.9732         0.000       
     133       32.1544         0.000       
     132       31.2737         0.000       
     131       31.1493         0.000       
     130       31.0129         0.000       
     129       30.6249         0.000       
     128       30.2354         0.000       
     127       29.8584         0.000       
     126       29.4812         0.000       
     125       29.0883         0.000       
     124       28.4362         0.000       
     123       27.9764         0.000       
     122       27.4083         0.000       
     121       27.1865         0.000       
     120       26.7261         0.000       
     119       26.4973         0.000       
     118       25.5104         0.000       
     117       25.0613         0.000       
     116       24.5833         0.000       
     115       24.3700         0.000       
     114       23.8869         0.000       
     113       23.3291         0.000       
     112       23.0930         0.000       
     111       22.8910         0.000       
     110       22.4685         0.000       
     109       22.2032         0.000       
     108       21.6198         0.000       
     107       21.1552         0.000       
     106       20.4775         0.000       
     105       20.3760         0.000       
     104       19.2867         0.000       
     103       19.0541         0.000       
     102       18.9295         0.000       
     101       18.6004         0.000       
     100       17.6554         0.000       
      99       17.0926         0.000       
      98       16.6448         0.000       
      97       15.4155         0.000       
      96       15.2036         0.000       
      95       14.3864         0.000       
      94       13.7406         0.000       
      93       13.1032         0.000       
      92       12.8227         0.000       
      91       12.6574         0.000       
      90       12.1673         0.000       
      89       11.8300         0.000       
      88       11.5647         0.000       
      87       11.3360         0.000       
      86       11.0591         0.000       
      85       10.9558         0.000       
      84       10.6426         0.000       
      83       10.3567         0.000       
      82       10.0782         0.000       
      81        9.7772         0.000       
      80        9.6881         0.000       
      79        9.3491         0.000       
      78        9.1708         0.000       
      77        9.0154         0.000       
      76        8.5273         0.000       
      75        8.1983         0.000       
      74        8.1069         0.000       
      73        7.5630         0.000       
      72        6.7076         0.000       
      71        6.4574         0.000       
      70        6.3648         0.000       
      69        5.9024         0.000       
      68        5.5407         0.000       
      67        5.4140         0.000       
      66        5.2220         0.000       
      65        5.1333         0.000       
      64        4.7288         0.000       
      63        4.5627         0.000       
      62        4.3932         0.000       
      61        3.8865         0.000       
      60        3.7341         0.000       
      59        3.4876         0.000       
      58        3.3373         0.000       
      57        2.9449         0.000       
      56        2.8336         0.000       
      55        2.7283         0.000       
      54        2.5212         0.000       
      53        2.0672         0.000       
      52        1.6890         0.000       
      51        1.5052         0.000       
      50        1.1778         0.000       
      49        1.0770         0.000       
      48        0.9657         0.000       
      47        0.5268         0.000       
      46        0.4256         0.000       
      45        0.3048         0.000       
      44       -0.3767         0.000       
      43       -2.6996         0.000 < LUMO
      42       -6.1888         2.000 < HOMO
      41       -7.6268         2.000       
      40       -8.2575         2.000       
      39       -8.2616         2.000       
      38       -8.7404         2.000       
      37       -8.7825         2.000       
      36       -8.8823         2.000       
      35       -9.3620         2.000       
      34       -9.4152         2.000       
      33       -9.9417         2.000       
      32      -10.0225         2.000       
      31      -10.0593         2.000       
      30      -10.7569         2.000       
      29      -11.0245         2.000       
      28      -11.0451         2.000       
      27      -11.3303         2.000       
      26      -12.0516         2.000       
      25      -12.8985         2.000       
      24      -13.6457         2.000       
      23      -14.0937         2.000       
      22      -14.3384         2.000       
      21      -14.6378         2.000       
      20      -15.2235         2.000       
      19      -16.8277         2.000       
      18      -17.5846         2.000       
      17      -18.2739         2.000       
      16      -19.3908         2.000       
      15      -22.2748         2.000       
      14      -30.3485         2.000       
      13      -30.4940         2.000       
      12      -32.7719         2.000       
      11     -270.1395         2.000       
      10     -270.1699         2.000       
       9     -270.3222         2.000       
       8     -270.6546         2.000       
       7     -270.6617         2.000       
       6     -270.8523         2.000       
       5     -270.8728         2.000       
       4     -276.5674         2.000       
       3     -662.0783         2.000       
       2     -662.1645         2.000       
       1     -662.2207         2.000       

AMS application finished. Exiting.
NORMAL TERMINATION
     Total cpu time:      76.15
  Total system time:       0.31
 Total elapsed time:      76.92
NORMAL TERMINATION
