
 *******************************************************************************
 *                                                                             *
 *  --------------------------------                                           *
 *   Amsterdam Modeling Suite (AMS)              2026.103                      *
 *  --------------------------------                                           *
 *                                               r260501 2026-05-01 873454b5   *
 *                                                                             *
 *                                                                             *
 *                              =================                              *
 *                              |               |                              *
 *                              |     A M S     |                              *
 *                              |               |                              *
 *                              =================                              *
 *                                                                             *
 *                                                                             *
 *   Online information and documentation:  https://www.scm.com/support/       *
 *   E-mail:  support@scm.com   info@scm.com                                   *
 *                                                                             *
 *   Scientific publications using AMS results must be properly referenced     *
 *   See the User Manuals (or the web site) for recommended citations          *
 *   The terms and conditions of the End User License Agreement apply to       *
 *   the use of AMS, https://www.scm.com/license-terms/                        *
 *                                                                             *
 **********************  x86_64_linux_intel / intelmpi  ************************
 
 Licensed to: Jong-June Jeon / University of Seoul 2026-06-02 13:44:15
 SCM User ID: u30731
  
 AMS 2026.103  RunTime: Jun03-2026 09:46:32  ShM Nodes: 1  Procs: 1

 AMS jobname: c3_eda
 AMS jobid  : 122249509

 Start   directory: /gpfs/home1/yeseo1ee/projects/eda-asm-prediction/ADF_800/adf_outputs/batch_000/dipolar_000794/
 Results directory: /gpfs/home1/yeseo1ee/projects/eda-asm-prediction/ADF_800/adf_outputs/batch_000/dipolar_000794/c3_eda.results/
 Scratch directory: /tmp/amstmp_c3_eda_kid0.122249509/

 RNG seed: -1798413399 2020339872 -1849956878 -474773158 1701761924 -1800774770 1075091180 1111386823



                      ************************************************************************
                      *  ADF 2026.103  RunTime: Jun03-2026 09:46:32  ShM Nodes: 1  Procs: 1  *
                      ************************************************************************
  

       ****************************
       * SINGLE POINT CALCULATION *
       ****************************

--------
Geometry
--------
Formula: C15H13F3N4O
Atoms
  Index Symbol   x (angstrom)   y (angstrom)   z (angstrom)
      1      C     1.95245000    -3.04863000     0.14794000 adf.f=fA
      2      C     1.82640000    -1.77757000     0.92138000 adf.f=fA
      3      O     1.97360000    -1.69623000     2.13083000 adf.f=fA
      4      C     1.49253000    -0.51909000     0.16194000 adf.f=fA
      5      C     1.93438000    -0.44995000    -1.19258000 adf.f=fA
      6      N     2.35847000    -0.45800000    -2.27538000 adf.f=fA
      7      N     1.46033000     0.59623000     0.93417000 adf.f=fA
      8      C     0.84453000     1.76335000     0.56131000 adf.f=fA
      9      C     1.13807000     2.33372000    -0.72958000 adf.f=fA
     10      N     1.33014000     2.83315000    -1.75992000 adf.f=fA
     11      C     0.63401000     2.75245000     1.58141000 adf.f=fA
     12      N     0.41796000     3.56561000     2.38237000 adf.f=fA
     13      H     2.05819000    -3.89156000     0.84128000 adf.f=fA
     14      H     1.07624000    -3.18689000    -0.50206000 adf.f=fA
     15      H     2.83839000    -2.99403000    -0.50635000 adf.f=fA
     16      H     1.47348000     0.37077000     1.93714000 adf.f=fA
     17      C    -1.14579000     1.00821000     0.05603000 adf.f=fB
     18      C    -2.07826000     1.04911000     1.27019000 adf.f=fB
     19      C    -1.42962000     0.42582000     2.53251000 adf.f=fB
     20      C    -1.29515000    -1.07622000     2.16234000 adf.f=fB
     21      C    -1.86061000    -1.13828000     0.72574000 adf.f=fB
     22      C    -3.02754000    -0.11306000     0.85666000 adf.f=fB
     23      C    -0.98725000    -0.35922000    -0.27313000 adf.f=fB
     24      C    -1.04426000    -0.80353000    -1.70179000 adf.f=fB
     25      F    -2.33034000    -1.01075000    -2.08651000 adf.f=fB
     26      F    -0.53791000     0.09989000    -2.55749000 adf.f=fB
     27      F    -0.41252000    -1.97622000    -1.92909000 adf.f=fB
     28      H    -1.24656000     1.76647000    -0.72193000 adf.f=fB
     29      H    -2.53176000     2.03299000     1.43677000 adf.f=fB
     30      H    -2.11152000     0.56843000     3.38271000 adf.f=fB
     31      H    -0.47981000     0.89096000     2.82122000 adf.f=fB
     32      H    -1.92760000    -1.69979000     2.81032000 adf.f=fB
     33      H    -0.27605000    -1.45641000     2.25155000 adf.f=fB
     34      H    -2.11687000    -2.14989000     0.38923000 adf.f=fB
     35      H    -3.55207000     0.06879000    -0.09102000 adf.f=fB
     36      H    -3.75534000    -0.37878000     1.64018000 adf.f=fB

Total System Charge              0.00000


----------------
ADF Engine Input
----------------
 
   Basis
     Type TZ2P
     Core None
   End
   XC
     GGA BLYP
     Dispersion GRIMME3 BJDAMP
   End
   Symmetry NOSYM
   NumericalQuality Normal
   Unrestricted No
   SCF
     Iterations 200
     Converge 1.0e-6
   End
   fragments
     fA c1_fragA_ts.results/adf.rkf
     fB c2_fragB_ts.results/adf.rkf
   end
   etsnocv
     enocv 0.05
     ekmin 0.5
   end
   print etslowdin
   Save TAPE21
 

 Title: *** (NO TITLE) ***

 *** adf ***



 ===========================
 A T T A C H E D   F I L E S
 ===========================
  



 ===============================
 M O D E L   P A R A M E T E R S
 ===============================
  
 DENSITY FUNCTIONAL POTENTIAL (scf)
    LDA:                               Exchange only                           == Not Default ==
    Gradient Corrections:              Becke88 LYP                             == Not Default ==

 SPIN  (restricted / unrestr.)
    Molecule:                          Restricted                               
    Fragments:                         Restricted                               

 OTHER ASPECTS
    Relativistic Corrections:          scalar (ZORA,MAPA)                       

    Nuclear Charge Density Model:      Point Charge Nuclei                      
    Core Treatment:                    Frozen Orbital(s)                        

    Hyperfine or Zeeman Interaction:   ---                                      

 Settings for Grimme D3 dispersion correction

      damping                        BJ
      s6                          1.000
      s8                          2.700
      a1                          0.430
      a2                          4.236

 Other (technical) parameters

      alpha                      14.000
      version                         4
 


 Fragment File(s)
 ----------------
 fA:
         file : c1_fragA_ts.results/adf.rkf
         jobid: 389454070
         title: *** adf ***
 fB:
         file : c2_fragB_ts.results/adf.rkf
         jobid: 507565045
         title: *** adf ***



 ===============
 G E O M E T R Y  ***  3D  Molecule  ***
 ===============
  

 ATOMS
 =====                            X Y Z                    CHARGE
                                (Angstrom)             Nucl     +Core       At.Mass
                       --------------------------    ----------------       -------
    1  C               1.9525   -3.0486    0.1479      6.00      6.00       12.0000
    2  C               1.8264   -1.7776    0.9214      6.00      6.00       12.0000
    3  O               1.9736   -1.6962    2.1308      8.00      8.00       15.9949
    4  C               1.4925   -0.5191    0.1619      6.00      6.00       12.0000
    5  C               1.9344   -0.4500   -1.1926      6.00      6.00       12.0000
    6  N               2.3585   -0.4580   -2.2754      7.00      7.00       14.0031
    7  N               1.4603    0.5962    0.9342      7.00      7.00       14.0031
    8  C               0.8445    1.7633    0.5613      6.00      6.00       12.0000
    9  C               1.1381    2.3337   -0.7296      6.00      6.00       12.0000
   10  N               1.3301    2.8331   -1.7599      7.00      7.00       14.0031
   11  C               0.6340    2.7525    1.5814      6.00      6.00       12.0000
   12  N               0.4180    3.5656    2.3824      7.00      7.00       14.0031
   13  H               2.0582   -3.8916    0.8413      1.00      1.00        1.0078
   14  H               1.0762   -3.1869   -0.5021      1.00      1.00        1.0078
   15  H               2.8384   -2.9940   -0.5063      1.00      1.00        1.0078
   16  H               1.4735    0.3708    1.9371      1.00      1.00        1.0078
   17  C              -1.1458    1.0082    0.0560      6.00      6.00       12.0000
   18  C              -2.0783    1.0491    1.2702      6.00      6.00       12.0000
   19  C              -1.4296    0.4258    2.5325      6.00      6.00       12.0000
   20  C              -1.2952   -1.0762    2.1623      6.00      6.00       12.0000
   21  C              -1.8606   -1.1383    0.7257      6.00      6.00       12.0000
   22  C              -3.0275   -0.1131    0.8567      6.00      6.00       12.0000
   23  C              -0.9872   -0.3592   -0.2731      6.00      6.00       12.0000
   24  C              -1.0443   -0.8035   -1.7018      6.00      6.00       12.0000
   25  F              -2.3303   -1.0108   -2.0865      9.00      9.00       18.9984
   26  F              -0.5379    0.0999   -2.5575      9.00      9.00       18.9984
   27  F              -0.4125   -1.9762   -1.9291      9.00      9.00       18.9984
   28  H              -1.2466    1.7665   -0.7219      1.00      1.00        1.0078
   29  H              -2.5318    2.0330    1.4368      1.00      1.00        1.0078
   30  H              -2.1115    0.5684    3.3827      1.00      1.00        1.0078
   31  H              -0.4798    0.8910    2.8212      1.00      1.00        1.0078
   32  H              -1.9276   -1.6998    2.8103      1.00      1.00        1.0078
   33  H              -0.2761   -1.4564    2.2515      1.00      1.00        1.0078
   34  H              -2.1169   -2.1499    0.3892      1.00      1.00        1.0078
   35  H              -3.5521    0.0688   -0.0910      1.00      1.00        1.0078
   36  H              -3.7553   -0.3788    1.6402      1.00      1.00        1.0078


 FRAGMENTS
 =========                                     Atoms in this Fragment     Cart. coord.s (Angstrom)
                                               -------------------------------------------------------
    1  fA                                                1  C            1.9525   -3.0486    0.1479
                                                         2  C            1.8264   -1.7776    0.9214
                                                         4  C            1.4925   -0.5191    0.1619
                                                         5  C            1.9344   -0.4500   -1.1926
                                                         8  C            0.8445    1.7633    0.5613
                                                         9  C            1.1381    2.3337   -0.7296
                                                        11  C            0.6340    2.7525    1.5814
                                                         3  O            1.9736   -1.6962    2.1308
                                                         6  N            2.3585   -0.4580   -2.2754
                                                         7  N            1.4603    0.5962    0.9342
                                                        10  N            1.3301    2.8331   -1.7599
                                                        12  N            0.4180    3.5656    2.3824
                                                        13  H            2.0582   -3.8916    0.8413
                                                        14  H            1.0762   -3.1869   -0.5021
                                                        15  H            2.8384   -2.9940   -0.5063
                                                        16  H            1.4735    0.3708    1.9371
    2  fB                                               17  C           -1.1458    1.0082    0.0560
                                                        18  C           -2.0783    1.0491    1.2702
                                                        19  C           -1.4296    0.4258    2.5325
                                                        20  C           -1.2952   -1.0762    2.1623
                                                        21  C           -1.8606   -1.1383    0.7257
                                                        22  C           -3.0275   -0.1131    0.8567
                                                        23  C           -0.9872   -0.3592   -0.2731
                                                        24  C           -1.0443   -0.8035   -1.7018
                                                        25  F           -2.3303   -1.0108   -2.0865
                                                        26  F           -0.5379    0.0999   -2.5575
                                                        27  F           -0.4125   -1.9762   -1.9291
                                                        28  H           -1.2466    1.7665   -0.7219
                                                        29  H           -2.5318    2.0330    1.4368
                                                        30  H           -2.1115    0.5684    3.3827
                                                        31  H           -0.4798    0.8910    2.8212
                                                        32  H           -1.9276   -1.6998    2.8103
                                                        33  H           -0.2761   -1.4564    2.2515
                                                        34  H           -2.1169   -2.1499    0.3892
                                                        35  H           -3.5521    0.0688   -0.0910
                                                        36  H           -3.7553   -0.3788    1.6402



 =====================================
 S Y M M E T R Y ,   E L E C T R O N S
 =====================================
  
 Symmetry: NOSYM

 Irreducible Representations, including subspecies
 -------------------------------------------------
 A


 Configuration of Valence Electrons
 ==================================
 ( determined in the SCF procedure )

 Total:   166

 Net Charge: 0 (Nuclei minus Electrons)

 Aufbau principle for MO occupations will be applied through SCF cycle no.     100
 Thereafter, the program will assign electrons to MOs that are spatially
 similar to the occupied MOs in a "reference" cycle ("KeepOrbitals").
 The reference cycle is always the PREVIOUS cycle: it will evolve with
 the SCF procedure.
 ***************************************************************************************************



                                      ****************************************
                                      *  B U I L D : (Fragments, Functions)  *
                                      ****************************************
  

 The individual fragments are copies of the corresponding 'Master' fragments defined on the fragment files.
 However, they may have been rotated (and translated) with respect to the Master. The local coordinate axes
 of each fragment (which define for instance the spatial orientation in the current molecule of a fragment
 P:x orbital) are not necessarily those of the molecule.
 The local frame (if different from the molecular one) is printed to enable an interpretation of the expan-
 sion of an MO in Fragment Orbitals.



                                              ************************
                                              *  Fragment Type : fA  *
                                              ************************
  

 Fragment no.    1   (in the list of all fragments)
 -----------------
 The local coordinate frame is identical to the molecular frame.

 Check Atomic Coordinates:

                  Master (on file)          After Computed Tranformation               As specified on Input
           ----------------------------     ----------------------------     ---------------------------------
     1)     1.95245  -3.04863   0.14794      1.95245  -3.04863   0.14794       1   1.95245  -3.04863   0.14794
     2)     1.82640  -1.77757   0.92138      1.82640  -1.77757   0.92138       2   1.82640  -1.77757   0.92138
     3)     1.49253  -0.51909   0.16194      1.49253  -0.51909   0.16194       4   1.49253  -0.51909   0.16194
     4)     1.93438  -0.44995  -1.19258      1.93438  -0.44995  -1.19258       5   1.93438  -0.44995  -1.19258
     5)     0.84453   1.76335   0.56131      0.84453   1.76335   0.56131       8   0.84453   1.76335   0.56131
     6)     1.13807   2.33372  -0.72958      1.13807   2.33372  -0.72958       9   1.13807   2.33372  -0.72958
     7)     0.63401   2.75245   1.58141      0.63401   2.75245   1.58141      11   0.63401   2.75245   1.58141
     8)     1.97360  -1.69623   2.13083      1.97360  -1.69623   2.13083       3   1.97360  -1.69623   2.13083
     9)     2.35847  -0.45800  -2.27538      2.35847  -0.45800  -2.27538       6   2.35847  -0.45800  -2.27538
    10)     1.46033   0.59623   0.93417      1.46033   0.59623   0.93417       7   1.46033   0.59623   0.93417
    11)     1.33014   2.83315  -1.75992      1.33014   2.83315  -1.75992      10   1.33014   2.83315  -1.75992
    12)     0.41796   3.56561   2.38237      0.41796   3.56561   2.38237      12   0.41796   3.56561   2.38237
    13)     2.05819  -3.89156   0.84128      2.05819  -3.89156   0.84128      13   2.05819  -3.89156   0.84128
    14)     1.07624  -3.18689  -0.50206      1.07624  -3.18689  -0.50206      14   1.07624  -3.18689  -0.50206
    15)     2.83839  -2.99403  -0.50635      2.83839  -2.99403  -0.50635      15   2.83839  -2.99403  -0.50635
    16)     1.47348   0.37077   1.93714      1.47348   0.37077   1.93714      16   1.47348   0.37077   1.93714



                                              ************************
                                              *  Fragment Type : fB  *
                                              ************************
  

 Fragment no.    2   (in the list of all fragments)
 -----------------
 The local coordinate frame is identical to the molecular frame.

 Check Atomic Coordinates:

                  Master (on file)          After Computed Tranformation               As specified on Input
           ----------------------------     ----------------------------     ---------------------------------
     1)    -1.14579   1.00821   0.05603     -1.14579   1.00821   0.05603      17  -1.14579   1.00821   0.05603
     2)    -2.07826   1.04911   1.27019     -2.07826   1.04911   1.27019      18  -2.07826   1.04911   1.27019
     3)    -1.42962   0.42582   2.53251     -1.42962   0.42582   2.53251      19  -1.42962   0.42582   2.53251
     4)    -1.29515  -1.07622   2.16234     -1.29515  -1.07622   2.16234      20  -1.29515  -1.07622   2.16234
     5)    -1.86061  -1.13828   0.72574     -1.86061  -1.13828   0.72574      21  -1.86061  -1.13828   0.72574
     6)    -3.02754  -0.11306   0.85666     -3.02754  -0.11306   0.85666      22  -3.02754  -0.11306   0.85666
     7)    -0.98725  -0.35922  -0.27313     -0.98725  -0.35922  -0.27313      23  -0.98725  -0.35922  -0.27313
     8)    -1.04426  -0.80353  -1.70179     -1.04426  -0.80353  -1.70179      24  -1.04426  -0.80353  -1.70179
     9)    -2.33034  -1.01075  -2.08651     -2.33034  -1.01075  -2.08651      25  -2.33034  -1.01075  -2.08651
    10)    -0.53791   0.09989  -2.55749     -0.53791   0.09989  -2.55749      26  -0.53791   0.09989  -2.55749
    11)    -0.41252  -1.97622  -1.92909     -0.41252  -1.97622  -1.92909      27  -0.41252  -1.97622  -1.92909
    12)    -1.24656   1.76647  -0.72193     -1.24656   1.76647  -0.72193      28  -1.24656   1.76647  -0.72193
    13)    -2.53176   2.03299   1.43677     -2.53176   2.03299   1.43677      29  -2.53176   2.03299   1.43677
    14)    -2.11152   0.56843   3.38271     -2.11152   0.56843   3.38271      30  -2.11152   0.56843   3.38271
    15)    -0.47981   0.89096   2.82122     -0.47981   0.89096   2.82122      31  -0.47981   0.89096   2.82122
    16)    -1.92760  -1.69979   2.81032     -1.92760  -1.69979   2.81032      32  -1.92760  -1.69979   2.81032
    17)    -0.27605  -1.45641   2.25155     -0.27605  -1.45641   2.25155      33  -0.27605  -1.45641   2.25155
    18)    -2.11687  -2.14989   0.38923     -2.11687  -2.14989   0.38923      34  -2.11687  -2.14989   0.38923
    19)    -3.55207   0.06879  -0.09102     -3.55207   0.06879  -0.09102      35  -3.55207   0.06879  -0.09102
    20)    -3.75534  -0.37878   1.64018     -3.75534  -0.37878   1.64018      36  -3.75534  -0.37878   1.64018



 =======
 S F O s  ***  (Symmetrized Fragment Orbitals)  ***
 =======
  
 SFOs are linear combinations of (valence) Fragment Orbitals (FOs), such that the SFOs transform as the
 irreducible representations of the (molecular) symmetry group. Each SFO is therefore characterized by
 an irrep of the molecule and by a few (or only one) generating FOs.
 The SFOs constitute a symmetry-adapted basis for the Fock matrix. The MO eigenvector coefficients in
 this basis provide a direct interpretation of the MOs in terms of Frontier Orbital Theory.

 The SFOs are combined with auxiliary Core Functions (CFs) to ensure orthogonalization on the (frozen)
 Core Orbitals (COs). The Core-orthogonalized SFOs (CSFOs) constitute the true Fock basis.

 The FOs, and hence also the (C)SFOs are combinations of the elementary basis functions (BAS). The basis
 functions that participate in the description of the SFOs depend on the irrep. The indices of the
 involved functions are printed below for each irrep.
 (The complete list of primitive basis functions is printed in another section)

 Total nr. of (C)SFOs (summation over all irreps) :   741

 NOTE: a (C)SFO that is defined as a combination of more than one FO is usually NOT normalized.



                                       === A ===
 Nr. of SFOs :  741
 Cartesian basis functions that participate in this irrep (total number =   846) :
      1     2     3     4     5     6     9    12     7    10
     13     8    11    14    15    16    17    18    19    20
     21    22    23    24    25    26    27    28    29    30
     31    32    33    34    35    36    39    42    37    40
     43    38    41    44    45    46    47    48    49    50
     51    52    53    54    55    56    57    58    59    60
     61    62    63    64    65    66    69    72    67    70
     73    68    71    74    75    76    77    78    79    80
     81    82    83    84    85    86    87    88    89    90
     91    92    93    94    95    96    99   102    97   100
    103    98   101   104   105   106   107   108   109   110
    111   112   113   114   115   116   117   118   119   120
    121   122   123   124   125   126   129   132   127   130
    133   128   131   134   135   136   137   138   139   140
    141   142   143   144   145   146   147   148   149   150
    151   152   153   154   155   156   159   162   157   160
    163   158   161   164   165   166   167   168   169   170
    171   172   173   174   175   176   177   178   179   180
    181   182   183   184   185   186   189   192   187   190
    193   188   191   194   195   196   197   198   199   200
    201   202   203   204   205   206   207   208   209   210
    211   212   213   214   215   216   219   222   217   220
    223   218   221   224   225   226   227   228   229   230
    231   232   233   234   235   236   237   238   239   240
    241   242   243   244   245   246   249   252   247   250
    253   248   251   254   255   256   257   258   259   260
    261   262   263   264   265   266   267   268   269   270
    271   272   273   274   275   276   279   282   277   280
    283   278   281   284   285   286   287   288   289   290
    291   292   293   294   295   296   297   298   299   300
    301   302   303   304   305   306   309   312   307   310
    313   308   311   314   315   316   317   318   319   320
    321   322   323   324   325   326   327   328   329   330
    331   332   333   334   335   336   339   342   337   340
    343   338   341   344   345   346   347   348   349   350
    351   352   353   354   355   356   357   358   359   360
    361   362   363   364   365   366   367   368   369   370
    371   372   373   374   375   376   377   378   379   380
    381   382   383   384   385   386   387   388   389   390
    391   392   393   394   395   396   397   398   399   400
    401   402   403   404   405   406   407   408   409   410
    411   412   413   414   417   420   415   418   421   416
    419   422   423   424   425   426   427   428   429   430
    431   432   433   434   435   436   437   438   439   440
    441   442   443   444   447   450   445   448   451   446
    449   452   453   454   455   456   457   458   459   460
    461   462   463   464   465   466   467   468   469   470
    471   472   473   474   477   480   475   478   481   476
    479   482   483   484   485   486   487   488   489   490
    491   492   493   494   495   496   497   498   499   500
    501   502   503   504   507   510   505   508   511   506
    509   512   513   514   515   516   517   518   519   520
    521   522   523   524   525   526   527   528   529   530
    531   532   533   534   537   540   535   538   541   536
    539   542   543   544   545   546   547   548   549   550
    551   552   553   554   555   556   557   558   559   560
    561   562   563   564   567   570   565   568   571   566
    569   572   573   574   575   576   577   578   579   580
    581   582   583   584   585   586   587   588   589   590
    591   592   593   594   597   600   595   598   601   596
    599   602   603   604   605   606   607   608   609   610
    611   612   613   614   615   616   617   618   619   620
    621   622   623   624   627   630   625   628   631   626
    629   632   633   634   635   636   637   638   639   640
    641   642   643   644   645   646   647   648   649   650
    651   652   653   654   657   660   655   658   661   656
    659   662   663   664   665   666   667   668   669   670
    671   672   673   674   675   676   677   678   679   680
    681   682   683   684   687   690   685   688   691   686
    689   692   693   694   695   696   697   698   699   700
    701   702   703   704   705   706   707   708   709   710
    711   712   713   714   717   720   715   718   721   716
    719   722   723   724   725   726   727   728   729   730
    731   732   733   734   735   736   737   738   739   740
    741   742   743   744   745   746   747   748   749   750
    751   752   753   754   755   756   757   758   759   760
    761   762   763   764   765   766   767   768   769   770
    771   772   773   774   775   776   777   778   779   780
    781   782   783   784   785   786   787   788   789   790
    791   792   793   794   795   796   797   798   799   800
    801   802   803   804   805   806   807   808   809   810
    811   812   813   814   815   816   817   818   819   820
    821   822   823   824   825   826   827   828   829   830
    831   832   833   834   835   836   837   838   839   840
    841   842   843   844   845   846

    SFO  (index         Fragment          Generating    Expansion in Fragment Orbitals
  indx  incl.CFs)   Occup   Orb.Energy   FragmentType  Coeff.   Orbital     on Fragment
 --------------------------------------------------------------------------------------
     1       1      2.000     -18.833 au  fA            1.00      1 A               1
                        (    -512.484 eV)
     2       2      2.000     -14.184 au  fA            1.00      2 A               1
                        (    -385.970 eV)
     3       3      2.000     -14.064 au  fA            1.00      3 A               1
                        (    -382.696 eV)
     4       4      2.000     -14.063 au  fA            1.00      4 A               1
                        (    -382.666 eV)
     5       5      2.000     -14.060 au  fA            1.00      5 A               1
                        (    -382.586 eV)
     6       6      2.000     -10.077 au  fA            1.00      6 A               1
                        (    -274.222 eV)
     7       7      2.000     -10.061 au  fA            1.00      7 A               1
                        (    -273.762 eV)
     8       8      2.000     -10.049 au  fA            1.00      8 A               1
                        (    -273.440 eV)
     9       9      2.000     -10.003 au  fA            1.00      9 A               1
                        (    -272.208 eV)
    10      10      2.000     -10.003 au  fA            1.00     10 A               1
                        (    -272.192 eV)
    11      11      2.000      -9.999 au  fA            1.00     11 A               1
                        (    -272.085 eV)
    12      12      2.000      -9.963 au  fA            1.00     12 A               1
                        (    -271.110 eV)
    13      13      2.000      -1.012 au  fA            1.00     13 A               1
                        (     -27.544 eV)
    14      14      2.000      -0.978 au  fA            1.00     14 A               1
                        (     -26.617 eV)
    15      15      2.000      -0.870 au  fA            1.00     15 A               1
                        (     -23.675 eV)
    16      16      2.000      -0.863 au  fA            1.00     16 A               1
                        (     -23.497 eV)
    17      17      2.000      -0.860 au  fA            1.00     17 A               1
                        (     -23.410 eV)
    18      18      2.000      -0.784 au  fA            1.00     18 A               1
                        (     -21.340 eV)
    19      19      2.000      -0.735 au  fA            1.00     19 A               1
                        (     -19.992 eV)
    20      20      2.000      -0.692 au  fA            1.00     20 A               1
                        (     -18.822 eV)
    21      21      2.000      -0.622 au  fA            1.00     21 A               1
                        (     -16.937 eV)
    22      22      2.000      -0.591 au  fA            1.00     22 A               1
                        (     -16.091 eV)
    23      23      2.000      -0.548 au  fA            1.00     23 A               1
                        (     -14.915 eV)
    24      24      2.000      -0.524 au  fA            1.00     24 A               1
                        (     -14.265 eV)
    25      25      2.000      -0.473 au  fA            1.00     25 A               1
                        (     -12.873 eV)
    26      26      2.000      -0.458 au  fA            1.00     26 A               1
                        (     -12.459 eV)
    27      27      2.000      -0.434 au  fA            1.00     27 A               1
                        (     -11.813 eV)
    28      28      2.000      -0.424 au  fA            1.00     28 A               1
                        (     -11.541 eV)
    29      29      2.000      -0.391 au  fA            1.00     29 A               1
                        (     -10.627 eV)
    30      30      2.000      -0.381 au  fA            1.00     30 A               1
                        (     -10.374 eV)
    31      31      2.000      -0.367 au  fA            1.00     31 A               1
                        (      -9.994 eV)
    32      32      2.000      -0.361 au  fA            1.00     32 A               1
                        (      -9.824 eV)
    33      33      2.000      -0.354 au  fA            1.00     33 A               1
                        (      -9.623 eV)
    34      34      2.000      -0.353 au  fA            1.00     34 A               1
                        (      -9.593 eV)
    35      35      2.000      -0.351 au  fA            1.00     35 A               1
                        (      -9.539 eV)
    36      36      2.000      -0.345 au  fA            1.00     36 A               1
                        (      -9.399 eV)
    37      37      2.000      -0.344 au  fA            1.00     37 A               1
                        (      -9.352 eV)
    38      38      2.000      -0.340 au  fA            1.00     38 A               1
                        (      -9.258 eV)
    39      39      2.000      -0.327 au  fA            1.00     39 A               1
                        (      -8.905 eV)
    40      40      2.000      -0.271 au  fA            1.00     40 A               1
                        (      -7.382 eV)
    41      41      2.000      -0.246 au  fA            1.00     41 A               1
                        (      -6.686 eV)
    42      42       --        -0.194 au  fA            1.00     42 A               1
                        (      -5.269 eV)
    43      43       --        -0.098 au  fA            1.00     43 A               1
                        (      -2.667 eV)
    44      44       --        -0.087 au  fA            1.00     44 A               1
                        (      -2.356 eV)
    45      45       --        -0.050 au  fA            1.00     45 A               1
                        (      -1.373 eV)
    46      46       --        -0.038 au  fA            1.00     46 A               1
                        (      -1.025 eV)
    47      47       --        -0.033 au  fA            1.00     47 A               1
                        (      -0.904 eV)
    48      48       --        -0.020 au  fA            1.00     48 A               1
                        (      -0.549 eV)
    49      49       --        -0.014 au  fA            1.00     49 A               1
                        (      -0.374 eV)
    50      50       --         0.008 au  fA            1.00     50 A               1
                        (       0.217 eV)
    51      51       --         0.015 au  fA            1.00     51 A               1
                        (       0.415 eV)
    52      52       --         0.027 au  fA            1.00     52 A               1
                        (       0.741 eV)
    53      53       --         0.033 au  fA            1.00     53 A               1
                        (       0.903 eV)
    54      54       --         0.036 au  fA            1.00     54 A               1
                        (       0.978 eV)
    55      55       --         0.055 au  fA            1.00     55 A               1
                        (       1.485 eV)
    56      56       --         0.077 au  fA            1.00     56 A               1
                        (       2.102 eV)
    57      57       --         0.092 au  fA            1.00     57 A               1
                        (       2.507 eV)
    58      58       --         0.095 au  fA            1.00     58 A               1
                        (       2.572 eV)
    59      59       --         0.123 au  fA            1.00     59 A               1
                        (       3.336 eV)
    60      60       --         0.127 au  fA            1.00     60 A               1
                        (       3.460 eV)
    61      61       --         0.134 au  fA            1.00     61 A               1
                        (       3.633 eV)
    62      62       --         0.146 au  fA            1.00     62 A               1
                        (       3.982 eV)
    63      63       --         0.160 au  fA            1.00     63 A               1
                        (       4.356 eV)
    64      64       --         0.168 au  fA            1.00     64 A               1
                        (       4.581 eV)
    65      65       --         0.172 au  fA            1.00     65 A               1
                        (       4.670 eV)
    66      66       --         0.172 au  fA            1.00     66 A               1
                        (       4.682 eV)
    67      67       --         0.185 au  fA            1.00     67 A               1
                        (       5.023 eV)
    68      68       --         0.193 au  fA            1.00     68 A               1
                        (       5.252 eV)
    69      69       --         0.214 au  fA            1.00     69 A               1
                        (       5.828 eV)
    70      70       --         0.223 au  fA            1.00     70 A               1
                        (       6.071 eV)
    71      71       --         0.229 au  fA            1.00     71 A               1
                        (       6.232 eV)
    72      72       --         0.243 au  fA            1.00     72 A               1
                        (       6.615 eV)
    73      73       --         0.255 au  fA            1.00     73 A               1
                        (       6.950 eV)
    74      74       --         0.281 au  fA            1.00     74 A               1
                        (       7.651 eV)
    75      75       --         0.286 au  fA            1.00     75 A               1
                        (       7.785 eV)
    76      76       --         0.292 au  fA            1.00     76 A               1
                        (       7.938 eV)
    77      77       --         0.299 au  fA            1.00     77 A               1
                        (       8.140 eV)
    78      78       --         0.315 au  fA            1.00     78 A               1
                        (       8.560 eV)
    79      79       --         0.320 au  fA            1.00     79 A               1
                        (       8.699 eV)
    80      80       --         0.339 au  fA            1.00     80 A               1
                        (       9.233 eV)
    81      81       --         0.344 au  fA            1.00     81 A               1
                        (       9.355 eV)
    82      82       --         0.364 au  fA            1.00     82 A               1
                        (       9.906 eV)
    83      83       --         0.372 au  fA            1.00     83 A               1
                        (      10.129 eV)
    84      84       --         0.377 au  fA            1.00     84 A               1
                        (      10.259 eV)
    85      85       --         0.399 au  fA            1.00     85 A               1
                        (      10.849 eV)
    86      86       --         0.406 au  fA            1.00     86 A               1
                        (      11.039 eV)
    87      87       --         0.414 au  fA            1.00     87 A               1
                        (      11.259 eV)
    88      88       --         0.435 au  fA            1.00     88 A               1
                        (      11.840 eV)
    89      89       --         0.477 au  fA            1.00     89 A               1
                        (      12.980 eV)
    90      90       --         0.493 au  fA            1.00     90 A               1
                        (      13.405 eV)
    91      91       --         0.500 au  fA            1.00     91 A               1
                        (      13.619 eV)
    92      92       --         0.521 au  fA            1.00     92 A               1
                        (      14.167 eV)
    93      93       --         0.537 au  fA            1.00     93 A               1
                        (      14.603 eV)
    94      94       --         0.544 au  fA            1.00     94 A               1
                        (      14.806 eV)
    95      95       --         0.557 au  fA            1.00     95 A               1
                        (      15.169 eV)
    96      96       --         0.568 au  fA            1.00     96 A               1
                        (      15.463 eV)
    97      97       --         0.580 au  fA            1.00     97 A               1
                        (      15.791 eV)
    98      98       --         0.627 au  fA            1.00     98 A               1
                        (      17.064 eV)
    99      99       --         0.645 au  fA            1.00     99 A               1
                        (      17.552 eV)
   100     100       --         0.669 au  fA            1.00    100 A               1
                        (      18.205 eV)
   101     101       --         0.677 au  fA            1.00    101 A               1
                        (      18.430 eV)
   102     102       --         0.704 au  fA            1.00    102 A               1
                        (      19.146 eV)
   103     103       --         0.723 au  fA            1.00    103 A               1
                        (      19.685 eV)
   104     104       --         0.748 au  fA            1.00    104 A               1
                        (      20.342 eV)
   105     105       --         0.778 au  fA            1.00    105 A               1
                        (      21.159 eV)
   106     106       --         0.782 au  fA            1.00    106 A               1
                        (      21.280 eV)
   107     107       --         0.804 au  fA            1.00    107 A               1
                        (      21.891 eV)
   108     108       --         0.825 au  fA            1.00    108 A               1
                        (      22.445 eV)
   109     109       --         0.832 au  fA            1.00    109 A               1
                        (      22.640 eV)
   110     110       --         0.877 au  fA            1.00    110 A               1
                        (      23.874 eV)
   111     111       --         0.896 au  fA            1.00    111 A               1
                        (      24.377 eV)
   112     112       --         0.915 au  fA            1.00    112 A               1
                        (      24.892 eV)
   113     113       --         0.939 au  fA            1.00    113 A               1
                        (      25.558 eV)
   114     114       --         0.946 au  fA            1.00    114 A               1
                        (      25.729 eV)
   115     115       --         0.968 au  fA            1.00    115 A               1
                        (      26.336 eV)
   116     116       --         0.993 au  fA            1.00    116 A               1
                        (      27.009 eV)
   117     117       --         1.000 au  fA            1.00    117 A               1
                        (      27.215 eV)
   118     118       --         1.021 au  fA            1.00    118 A               1
                        (      27.775 eV)
   119     119       --         1.028 au  fA            1.00    119 A               1
                        (      27.963 eV)
   120     120       --         1.042 au  fA            1.00    120 A               1
                        (      28.346 eV)
   121     121       --         1.047 au  fA            1.00    121 A               1
                        (      28.479 eV)
   122     122       --         1.074 au  fA            1.00    122 A               1
                        (      29.236 eV)
   123     123       --         1.083 au  fA            1.00    123 A               1
                        (      29.457 eV)
   124     124       --         1.091 au  fA            1.00    124 A               1
                        (      29.687 eV)
   125     125       --         1.108 au  fA            1.00    125 A               1
                        (      30.150 eV)
   126     126       --         1.133 au  fA            1.00    126 A               1
                        (      30.826 eV)
   127     127       --         1.145 au  fA            1.00    127 A               1
                        (      31.158 eV)
   128     128       --         1.156 au  fA            1.00    128 A               1
                        (      31.445 eV)
   129     129       --         1.176 au  fA            1.00    129 A               1
                        (      32.009 eV)
   130     130       --         1.204 au  fA            1.00    130 A               1
                        (      32.763 eV)
   131     131       --         1.206 au  fA            1.00    131 A               1
                        (      32.811 eV)
   132     132       --         1.238 au  fA            1.00    132 A               1
                        (      33.694 eV)
   133     133       --         1.258 au  fA            1.00    133 A               1
                        (      34.225 eV)
   134     134       --         1.266 au  fA            1.00    134 A               1
                        (      34.449 eV)
   135     135       --         1.274 au  fA            1.00    135 A               1
                        (      34.660 eV)
   136     136       --         1.301 au  fA            1.00    136 A               1
                        (      35.391 eV)
   137     137       --         1.318 au  fA            1.00    137 A               1
                        (      35.876 eV)
   138     138       --         1.324 au  fA            1.00    138 A               1
                        (      36.039 eV)
   139     139       --         1.352 au  fA            1.00    139 A               1
                        (      36.799 eV)
   140     140       --         1.362 au  fA            1.00    140 A               1
                        (      37.056 eV)
   141     141       --         1.379 au  fA            1.00    141 A               1
                        (      37.536 eV)
   142     142       --         1.404 au  fA            1.00    142 A               1
                        (      38.210 eV)
   143     143       --         1.413 au  fA            1.00    143 A               1
                        (      38.455 eV)
   144     144       --         1.467 au  fA            1.00    144 A               1
                        (      39.925 eV)
   145     145       --         1.490 au  fA            1.00    145 A               1
                        (      40.548 eV)
   146     146       --         1.511 au  fA            1.00    146 A               1
                        (      41.117 eV)
   147     147       --         1.543 au  fA            1.00    147 A               1
                        (      41.985 eV)
   148     148       --         1.555 au  fA            1.00    148 A               1
                        (      42.300 eV)
   149     149       --         1.578 au  fA            1.00    149 A               1
                        (      42.952 eV)
   150     150       --         1.592 au  fA            1.00    150 A               1
                        (      43.308 eV)
   151     151       --         1.625 au  fA            1.00    151 A               1
                        (      44.216 eV)
   152     152       --         1.630 au  fA            1.00    152 A               1
                        (      44.363 eV)
   153     153       --         1.653 au  fA            1.00    153 A               1
                        (      44.968 eV)
   154     154       --         1.686 au  fA            1.00    154 A               1
                        (      45.867 eV)
   155     155       --         1.690 au  fA            1.00    155 A               1
                        (      45.976 eV)
   156     156       --         1.698 au  fA            1.00    156 A               1
                        (      46.196 eV)
   157     157       --         1.708 au  fA            1.00    157 A               1
                        (      46.488 eV)
   158     158       --         1.755 au  fA            1.00    158 A               1
                        (      47.764 eV)
   159     159       --         1.777 au  fA            1.00    159 A               1
                        (      48.364 eV)
   160     160       --         1.794 au  fA            1.00    160 A               1
                        (      48.816 eV)
   161     161       --         1.843 au  fA            1.00    161 A               1
                        (      50.162 eV)
   162     162       --         1.847 au  fA            1.00    162 A               1
                        (      50.247 eV)
   163     163       --         1.861 au  fA            1.00    163 A               1
                        (      50.654 eV)
   164     164       --         1.876 au  fA            1.00    164 A               1
                        (      51.045 eV)
   165     165       --         1.892 au  fA            1.00    165 A               1
                        (      51.471 eV)
   166     166       --         1.937 au  fA            1.00    166 A               1
                        (      52.712 eV)
   167     167       --         1.977 au  fA            1.00    167 A               1
                        (      53.796 eV)
   168     168       --         2.000 au  fA            1.00    168 A               1
                        (      54.418 eV)
   169     169       --         2.021 au  fA            1.00    169 A               1
                        (      54.984 eV)
   170     170       --         2.100 au  fA            1.00    170 A               1
                        (      57.141 eV)
   171     171       --         2.128 au  fA            1.00    171 A               1
                        (      57.905 eV)
   172     172       --         2.165 au  fA            1.00    172 A               1
                        (      58.900 eV)
   173     173       --         2.180 au  fA            1.00    173 A               1
                        (      59.333 eV)
   174     174       --         2.200 au  fA            1.00    174 A               1
                        (      59.855 eV)
   175     175       --         2.231 au  fA            1.00    175 A               1
                        (      60.698 eV)
   176     176       --         2.240 au  fA            1.00    176 A               1
                        (      60.953 eV)
   177     177       --         2.295 au  fA            1.00    177 A               1
                        (      62.454 eV)
   178     178       --         2.310 au  fA            1.00    178 A               1
                        (      62.867 eV)
   179     179       --         2.329 au  fA            1.00    179 A               1
                        (      63.389 eV)
   180     180       --         2.339 au  fA            1.00    180 A               1
                        (      63.655 eV)
   181     181       --         2.352 au  fA            1.00    181 A               1
                        (      63.994 eV)
   182     182       --         2.369 au  fA            1.00    182 A               1
                        (      64.453 eV)
   183     183       --         2.392 au  fA            1.00    183 A               1
                        (      65.094 eV)
   184     184       --         2.431 au  fA            1.00    184 A               1
                        (      66.156 eV)
   185     185       --         2.459 au  fA            1.00    185 A               1
                        (      66.917 eV)
   186     186       --         2.493 au  fA            1.00    186 A               1
                        (      67.844 eV)
   187     187       --         2.518 au  fA            1.00    187 A               1
                        (      68.530 eV)
   188     188       --         2.533 au  fA            1.00    188 A               1
                        (      68.924 eV)
   189     189       --         2.561 au  fA            1.00    189 A               1
                        (      69.689 eV)
   190     190       --         2.671 au  fA            1.00    190 A               1
                        (      72.684 eV)
   191     191       --         2.674 au  fA            1.00    191 A               1
                        (      72.768 eV)
   192     192       --         2.690 au  fA            1.00    192 A               1
                        (      73.193 eV)
   193     193       --         2.716 au  fA            1.00    193 A               1
                        (      73.902 eV)
   194     194       --         2.761 au  fA            1.00    194 A               1
                        (      75.144 eV)
   195     195       --         2.772 au  fA            1.00    195 A               1
                        (      75.433 eV)
   196     196       --         2.782 au  fA            1.00    196 A               1
                        (      75.709 eV)
   197     197       --         2.822 au  fA            1.00    197 A               1
                        (      76.780 eV)
   198     198       --         2.838 au  fA            1.00    198 A               1
                        (      77.232 eV)
   199     199       --         2.867 au  fA            1.00    199 A               1
                        (      78.020 eV)
   200     200       --         2.873 au  fA            1.00    200 A               1
                        (      78.169 eV)
   201     201       --         2.919 au  fA            1.00    201 A               1
                        (      79.434 eV)
   202     202       --         2.942 au  fA            1.00    202 A               1
                        (      80.057 eV)
   203     203       --         2.966 au  fA            1.00    203 A               1
                        (      80.714 eV)
   204     204       --         3.015 au  fA            1.00    204 A               1
                        (      82.052 eV)
   205     205       --         3.046 au  fA            1.00    205 A               1
                        (      82.893 eV)
   206     206       --         3.053 au  fA            1.00    206 A               1
                        (      83.069 eV)
   207     207       --         3.093 au  fA            1.00    207 A               1
                        (      84.164 eV)
   208     208       --         3.121 au  fA            1.00    208 A               1
                        (      84.926 eV)
   209     209       --         3.134 au  fA            1.00    209 A               1
                        (      85.288 eV)
   210     210       --         3.156 au  fA            1.00    210 A               1
                        (      85.876 eV)
   211     211       --         3.225 au  fA            1.00    211 A               1
                        (      87.762 eV)
   212     212       --         3.292 au  fA            1.00    212 A               1
                        (      89.572 eV)
   213     213       --         3.311 au  fA            1.00    213 A               1
                        (      90.087 eV)
   214     214       --         3.347 au  fA            1.00    214 A               1
                        (      91.082 eV)
   215     215       --         3.368 au  fA            1.00    215 A               1
                        (      91.635 eV)
   216     216       --         3.394 au  fA            1.00    216 A               1
                        (      92.355 eV)
   217     217       --         3.414 au  fA            1.00    217 A               1
                        (      92.908 eV)
   218     218       --         3.423 au  fA            1.00    218 A               1
                        (      93.136 eV)
   219     219       --         3.461 au  fA            1.00    219 A               1
                        (      94.167 eV)
   220     220       --         3.490 au  fA            1.00    220 A               1
                        (      94.957 eV)
   221     221       --         3.512 au  fA            1.00    221 A               1
                        (      95.577 eV)
   222     222       --         3.518 au  fA            1.00    222 A               1
                        (      95.732 eV)
   223     223       --         3.548 au  fA            1.00    223 A               1
                        (      96.559 eV)
   224     224       --         3.563 au  fA            1.00    224 A               1
                        (      96.951 eV)
   225     225       --         3.582 au  fA            1.00    225 A               1
                        (      97.469 eV)
   226     226       --         3.593 au  fA            1.00    226 A               1
                        (      97.768 eV)
   227     227       --         3.649 au  fA            1.00    227 A               1
                        (      99.283 eV)
   228     228       --         3.661 au  fA            1.00    228 A               1
                        (      99.615 eV)
   229     229       --         3.695 au  fA            1.00    229 A               1
                        (     100.558 eV)
   230     230       --         3.728 au  fA            1.00    230 A               1
                        (     101.449 eV)
   231     231       --         3.741 au  fA            1.00    231 A               1
                        (     101.803 eV)
   232     232       --         3.747 au  fA            1.00    232 A               1
                        (     101.966 eV)
   233     233       --         3.748 au  fA            1.00    233 A               1
                        (     101.988 eV)
   234     234       --         3.762 au  fA            1.00    234 A               1
                        (     102.356 eV)
   235     235       --         3.769 au  fA            1.00    235 A               1
                        (     102.568 eV)
   236     236       --         3.773 au  fA            1.00    236 A               1
                        (     102.672 eV)
   237     237       --         3.793 au  fA            1.00    237 A               1
                        (     103.224 eV)
   238     238       --         3.801 au  fA            1.00    238 A               1
                        (     103.430 eV)
   239     239       --         3.811 au  fA            1.00    239 A               1
                        (     103.709 eV)
   240     240       --         3.814 au  fA            1.00    240 A               1
                        (     103.779 eV)
   241     241       --         3.821 au  fA            1.00    241 A               1
                        (     103.979 eV)
   242     242       --         3.864 au  fA            1.00    242 A               1
                        (     105.141 eV)
   243     243       --         3.874 au  fA            1.00    243 A               1
                        (     105.417 eV)
   244     244       --         3.874 au  fA            1.00    244 A               1
                        (     105.430 eV)
   245     245       --         3.930 au  fA            1.00    245 A               1
                        (     106.930 eV)
   246     246       --         3.943 au  fA            1.00    246 A               1
                        (     107.304 eV)
   247     247       --         3.971 au  fA            1.00    247 A               1
                        (     108.044 eV)
   248     248       --         3.990 au  fA            1.00    248 A               1
                        (     108.567 eV)
   249     249       --         3.997 au  fA            1.00    249 A               1
                        (     108.777 eV)
   250     250       --         4.021 au  fA            1.00    250 A               1
                        (     109.413 eV)
   251     251       --         4.066 au  fA            1.00    251 A               1
                        (     110.655 eV)
   252     252       --         4.119 au  fA            1.00    252 A               1
                        (     112.074 eV)
   253     253       --         4.139 au  fA            1.00    253 A               1
                        (     112.638 eV)
   254     254       --         4.175 au  fA            1.00    254 A               1
                        (     113.605 eV)
   255     255       --         4.193 au  fA            1.00    255 A               1
                        (     114.098 eV)
   256     256       --         4.244 au  fA            1.00    256 A               1
                        (     115.482 eV)
   257     257       --         4.267 au  fA            1.00    257 A               1
                        (     116.111 eV)
   258     258       --         4.306 au  fA            1.00    258 A               1
                        (     117.159 eV)
   259     259       --         4.321 au  fA            1.00    259 A               1
                        (     117.593 eV)
   260     260       --         4.333 au  fA            1.00    260 A               1
                        (     117.909 eV)
   261     261       --         4.373 au  fA            1.00    261 A               1
                        (     119.004 eV)
   262     262       --         4.380 au  fA            1.00    262 A               1
                        (     119.199 eV)
   263     263       --         4.388 au  fA            1.00    263 A               1
                        (     119.416 eV)
   264     264       --         4.395 au  fA            1.00    264 A               1
                        (     119.603 eV)
   265     265       --         4.403 au  fA            1.00    265 A               1
                        (     119.824 eV)
   266     266       --         4.440 au  fA            1.00    266 A               1
                        (     120.819 eV)
   267     267       --         4.447 au  fA            1.00    267 A               1
                        (     121.002 eV)
   268     268       --         4.502 au  fA            1.00    268 A               1
                        (     122.497 eV)
   269     269       --         4.546 au  fA            1.00    269 A               1
                        (     123.691 eV)
   270     270       --         4.574 au  fA            1.00    270 A               1
                        (     124.460 eV)
   271     271       --         4.601 au  fA            1.00    271 A               1
                        (     125.195 eV)
   272     272       --         4.636 au  fA            1.00    272 A               1
                        (     126.139 eV)
   273     273       --         4.694 au  fA            1.00    273 A               1
                        (     127.735 eV)
   274     274       --         4.712 au  fA            1.00    274 A               1
                        (     128.228 eV)
   275     275       --         4.757 au  fA            1.00    275 A               1
                        (     129.456 eV)
   276     276       --         4.781 au  fA            1.00    276 A               1
                        (     130.092 eV)
   277     277       --         4.806 au  fA            1.00    277 A               1
                        (     130.785 eV)
   278     278       --         4.864 au  fA            1.00    278 A               1
                        (     132.345 eV)
   279     279       --         4.894 au  fA            1.00    279 A               1
                        (     133.181 eV)
   280     280       --         4.916 au  fA            1.00    280 A               1
                        (     133.769 eV)
   281     281       --         4.960 au  fA            1.00    281 A               1
                        (     134.967 eV)
   282     282       --         4.986 au  fA            1.00    282 A               1
                        (     135.664 eV)
   283     283       --         5.040 au  fA            1.00    283 A               1
                        (     137.134 eV)
   284     284       --         5.069 au  fA            1.00    284 A               1
                        (     137.928 eV)
   285     285       --         5.089 au  fA            1.00    285 A               1
                        (     138.480 eV)
   286     286       --         5.141 au  fA            1.00    286 A               1
                        (     139.904 eV)
   287     287       --         5.162 au  fA            1.00    287 A               1
                        (     140.476 eV)
   288     288       --         5.292 au  fA            1.00    288 A               1
                        (     144.015 eV)
   289     289       --         5.339 au  fA            1.00    289 A               1
                        (     145.291 eV)
   290     290       --         5.394 au  fA            1.00    290 A               1
                        (     146.773 eV)
   291     291       --         5.415 au  fA            1.00    291 A               1
                        (     147.339 eV)
   292     292       --         5.447 au  fA            1.00    292 A               1
                        (     148.229 eV)
   293     293       --         5.508 au  fA            1.00    293 A               1
                        (     149.867 eV)
   294     294       --         5.542 au  fA            1.00    294 A               1
                        (     150.793 eV)
   295     295       --         5.563 au  fA            1.00    295 A               1
                        (     151.371 eV)
   296     296       --         5.597 au  fA            1.00    296 A               1
                        (     152.305 eV)
   297     297       --         5.620 au  fA            1.00    297 A               1
                        (     152.937 eV)
   298     298       --         5.649 au  fA            1.00    298 A               1
                        (     153.708 eV)
   299     299       --         5.683 au  fA            1.00    299 A               1
                        (     154.643 eV)
   300     300       --         5.757 au  fA            1.00    300 A               1
                        (     156.645 eV)
   301     301       --         5.788 au  fA            1.00    301 A               1
                        (     157.502 eV)
   302     302       --         5.861 au  fA            1.00    302 A               1
                        (     159.477 eV)
   303     303       --         6.018 au  fA            1.00    303 A               1
                        (     163.768 eV)
   304     304       --         6.037 au  fA            1.00    304 A               1
                        (     164.269 eV)
   305     305       --         6.169 au  fA            1.00    305 A               1
                        (     167.862 eV)
   306     306       --         6.251 au  fA            1.00    306 A               1
                        (     170.098 eV)
   307     307       --         6.280 au  fA            1.00    307 A               1
                        (     170.881 eV)
   308     308       --         6.311 au  fA            1.00    308 A               1
                        (     171.725 eV)
   309     309       --         6.321 au  fA            1.00    309 A               1
                        (     171.998 eV)
   310     310       --         6.360 au  fA            1.00    310 A               1
                        (     173.059 eV)
   311     311       --         6.405 au  fA            1.00    311 A               1
                        (     174.286 eV)
   312     312       --         6.417 au  fA            1.00    312 A               1
                        (     174.626 eV)
   313     313       --         6.499 au  fA            1.00    313 A               1
                        (     176.858 eV)
   314     314       --         6.509 au  fA            1.00    314 A               1
                        (     177.130 eV)
   315     315       --         6.573 au  fA            1.00    315 A               1
                        (     178.854 eV)
   316     316       --         6.655 au  fA            1.00    316 A               1
                        (     181.100 eV)
   317     317       --         6.960 au  fA            1.00    317 A               1
                        (     189.402 eV)
   318     318       --         7.014 au  fA            1.00    318 A               1
                        (     190.864 eV)
   319     319       --         7.204 au  fA            1.00    319 A               1
                        (     196.018 eV)
   320     320       --         7.254 au  fA            1.00    320 A               1
                        (     197.403 eV)
   321     321       --         7.274 au  fA            1.00    321 A               1
                        (     197.936 eV)
   322     322       --         7.339 au  fA            1.00    322 A               1
                        (     199.712 eV)
   323     323       --         7.368 au  fA            1.00    323 A               1
                        (     200.485 eV)
   324     324       --         7.486 au  fA            1.00    324 A               1
                        (     203.695 eV)
   325     325       --         7.528 au  fA            1.00    325 A               1
                        (     204.854 eV)
   326     326       --         7.567 au  fA            1.00    326 A               1
                        (     205.898 eV)
   327     327       --         7.652 au  fA            1.00    327 A               1
                        (     208.229 eV)
   328     328       --         7.682 au  fA            1.00    328 A               1
                        (     209.025 eV)
   329     329       --         7.714 au  fA            1.00    329 A               1
                        (     209.902 eV)
   330     330       --         7.751 au  fA            1.00    330 A               1
                        (     210.905 eV)
   331     331       --         7.832 au  fA            1.00    331 A               1
                        (     213.114 eV)
   332     332       --         7.913 au  fA            1.00    332 A               1
                        (     215.319 eV)
   333     333       --         7.967 au  fA            1.00    333 A               1
                        (     216.785 eV)
   334     334       --         8.047 au  fA            1.00    334 A               1
                        (     218.960 eV)
   335     335       --         8.105 au  fA            1.00    335 A               1
                        (     220.538 eV)
   336     336       --         8.648 au  fA            1.00    336 A               1
                        (     235.335 eV)
   337     337       --         8.698 au  fA            1.00    337 A               1
                        (     236.687 eV)
   338     338       --         9.125 au  fA            1.00    338 A               1
                        (     248.317 eV)
   339     339       --         9.746 au  fA            1.00    339 A               1
                        (     265.197 eV)
   340     340       --        10.104 au  fA            1.00    340 A               1
                        (     274.934 eV)
   341     341       --        11.378 au  fA            1.00    341 A               1
                        (     309.605 eV)
   342     342       --        11.420 au  fA            1.00    342 A               1
                        (     310.761 eV)
   343     343       --        11.527 au  fA            1.00    343 A               1
                        (     313.656 eV)
   344     344       --        15.810 au  fA            1.00    344 A               1
                        (     430.216 eV)
   345     345       --        53.735 au  fA            1.00    345 A               1
                        (    1462.197 eV)
   346     346       --        55.063 au  fA            1.00    346 A               1
                        (    1498.330 eV)
   347     347       --        56.055 au  fA            1.00    347 A               1
                        (    1525.338 eV)
   348     348       --        56.907 au  fA            1.00    348 A               1
                        (    1548.512 eV)
   349     349       --        57.313 au  fA            1.00    349 A               1
                        (    1559.574 eV)
   350     350       --        58.254 au  fA            1.00    350 A               1
                        (    1585.163 eV)
   351     351       --        59.007 au  fA            1.00    351 A               1
                        (    1605.659 eV)
   352     352       --        69.540 au  fA            1.00    352 A               1
                        (    1892.279 eV)
   353     353       --        69.657 au  fA            1.00    353 A               1
                        (    1895.453 eV)
   354     354       --        70.026 au  fA            1.00    354 A               1
                        (    1905.514 eV)
   355     355       --        72.190 au  fA            1.00    355 A               1
                        (    1964.394 eV)
   356     356       --       128.328 au  fA            1.00    356 A               1
                        (    3491.993 eV)
   357     357      2.000     -24.336 au  fB            1.00      1 A               2
                        (    -662.221 eV)
   358     358      2.000     -24.334 au  fB            1.00      2 A               2
                        (    -662.164 eV)
   359     359      2.000     -24.331 au  fB            1.00      3 A               2
                        (    -662.078 eV)
   360     360      2.000     -10.164 au  fB            1.00      4 A               2
                        (    -276.567 eV)
   361     361      2.000      -9.954 au  fB            1.00      5 A               2
                        (    -270.873 eV)
   362     362      2.000      -9.954 au  fB            1.00      6 A               2
                        (    -270.852 eV)
   363     363      2.000      -9.947 au  fB            1.00      7 A               2
                        (    -270.662 eV)
   364     364      2.000      -9.946 au  fB            1.00      8 A               2
                        (    -270.655 eV)
   365     365      2.000      -9.934 au  fB            1.00      9 A               2
                        (    -270.322 eV)
   366     366      2.000      -9.929 au  fB            1.00     10 A               2
                        (    -270.170 eV)
   367     367      2.000      -9.927 au  fB            1.00     11 A               2
                        (    -270.139 eV)
   368     368      2.000      -1.204 au  fB            1.00     12 A               2
                        (     -32.772 eV)
   369     369      2.000      -1.121 au  fB            1.00     13 A               2
                        (     -30.494 eV)
   370     370      2.000      -1.115 au  fB            1.00     14 A               2
                        (     -30.348 eV)
   371     371      2.000      -0.819 au  fB            1.00     15 A               2
                        (     -22.275 eV)
   372     372      2.000      -0.713 au  fB            1.00     16 A               2
                        (     -19.391 eV)
   373     373      2.000      -0.672 au  fB            1.00     17 A               2
                        (     -18.274 eV)
   374     374      2.000      -0.646 au  fB            1.00     18 A               2
                        (     -17.585 eV)
   375     375      2.000      -0.618 au  fB            1.00     19 A               2
                        (     -16.828 eV)
   376     376      2.000      -0.559 au  fB            1.00     20 A               2
                        (     -15.224 eV)
   377     377      2.000      -0.538 au  fB            1.00     21 A               2
                        (     -14.638 eV)
   378     378      2.000      -0.527 au  fB            1.00     22 A               2
                        (     -14.338 eV)
   379     379      2.000      -0.518 au  fB            1.00     23 A               2
                        (     -14.094 eV)
   380     380      2.000      -0.501 au  fB            1.00     24 A               2
                        (     -13.646 eV)
   381     381      2.000      -0.474 au  fB            1.00     25 A               2
                        (     -12.898 eV)
   382     382      2.000      -0.443 au  fB            1.00     26 A               2
                        (     -12.052 eV)
   383     383      2.000      -0.416 au  fB            1.00     27 A               2
                        (     -11.330 eV)
   384     384      2.000      -0.406 au  fB            1.00     28 A               2
                        (     -11.045 eV)
   385     385      2.000      -0.405 au  fB            1.00     29 A               2
                        (     -11.024 eV)
   386     386      2.000      -0.395 au  fB            1.00     30 A               2
                        (     -10.757 eV)
   387     387      2.000      -0.370 au  fB            1.00     31 A               2
                        (     -10.059 eV)
   388     388      2.000      -0.368 au  fB            1.00     32 A               2
                        (     -10.023 eV)
   389     389      2.000      -0.365 au  fB            1.00     33 A               2
                        (      -9.942 eV)
   390     390      2.000      -0.346 au  fB            1.00     34 A               2
                        (      -9.415 eV)
   391     391      2.000      -0.344 au  fB            1.00     35 A               2
                        (      -9.362 eV)
   392     392      2.000      -0.326 au  fB            1.00     36 A               2
                        (      -8.882 eV)
   393     393      2.000      -0.323 au  fB            1.00     37 A               2
                        (      -8.782 eV)
   394     394      2.000      -0.321 au  fB            1.00     38 A               2
                        (      -8.740 eV)
   395     395      2.000      -0.304 au  fB            1.00     39 A               2
                        (      -8.262 eV)
   396     396      2.000      -0.303 au  fB            1.00     40 A               2
                        (      -8.258 eV)
   397     397      2.000      -0.280 au  fB            1.00     41 A               2
                        (      -7.627 eV)
   398     398      2.000      -0.227 au  fB            1.00     42 A               2
                        (      -6.189 eV)
   399     399       --        -0.099 au  fB            1.00     43 A               2
                        (      -2.700 eV)
   400     400       --        -0.014 au  fB            1.00     44 A               2
                        (      -0.377 eV)
   401     401       --         0.011 au  fB            1.00     45 A               2
                        (       0.305 eV)
   402     402       --         0.016 au  fB            1.00     46 A               2
                        (       0.426 eV)
[...]
     450       92.9375         0.000       
     449       92.7360         0.000       
     448       92.4293         0.000       
     447       92.2670         0.000       
     446       92.1378         0.000       
     445       91.5555         0.000       
     444       91.3021         0.000       
     443       90.9940         0.000       
     442       90.6051         0.000       
     441       90.4042         0.000       
     440       89.9239         0.000       
     439       89.8258         0.000       
     438       89.5702         0.000       
     437       89.3779         0.000       
     436       89.1605         0.000       
     435       88.6884         0.000       
     434       88.1360         0.000       
     433       87.9425         0.000       
     432       87.5739         0.000       
     431       86.8833         0.000       
     430       86.7419         0.000       
     429       85.8879         0.000       
     428       85.5751         0.000       
     427       85.2283         0.000       
     426       84.4680         0.000       
     425       84.3485         0.000       
     424       83.7082         0.000       
     423       83.3596         0.000       
     422       82.8813         0.000       
     421       82.3761         0.000       
     420       81.8355         0.000       
     419       81.6004         0.000       
     418       81.5041         0.000       
     417       80.9984         0.000       
     416       80.6437         0.000       
     415       80.2157         0.000       
     414       80.0300         0.000       
     413       79.7050         0.000       
     412       79.4114         0.000       
     411       79.0953         0.000       
     410       78.6150         0.000       
     409       78.5547         0.000       
     408       78.0603         0.000       
     407       77.7295         0.000       
     406       77.4406         0.000       
     405       77.2117         0.000       
     404       76.9902         0.000       
     403       76.8929         0.000       
     402       76.4239         0.000       
     401       76.2352         0.000       
     400       76.0056         0.000       
     399       75.7150         0.000       
     398       75.5345         0.000       
     397       75.3151         0.000       
     396       75.0426         0.000       
     395       74.4526         0.000       
     394       74.1599         0.000       
     393       73.8556         0.000       
     392       73.6391         0.000       
     391       73.3434         0.000       
     390       73.0238         0.000       
     389       72.7467         0.000       
     388       71.9017         0.000       
     387       71.6100         0.000       
     386       71.2181         0.000       
     385       70.7676         0.000       
     384       70.0991         0.000       
     383       69.9691         0.000       
     382       69.5415         0.000       
     381       68.7715         0.000       
     380       68.4820         0.000       
     379       67.8363         0.000       
     378       67.6017         0.000       
     377       67.5008         0.000       
     376       67.4602         0.000       
     375       66.9629         0.000       
     374       66.5564         0.000       
     373       66.3752         0.000       
     372       65.9329         0.000       
     371       65.3867         0.000       
     370       64.9182         0.000       
     369       64.5930         0.000       
     368       64.5327         0.000       
     367       64.4214         0.000       
     366       64.0046         0.000       
     365       63.7386         0.000       
     364       63.4105         0.000       
     363       62.9123         0.000       
     362       62.5645         0.000       
     361       62.4583         0.000       
     360       62.0075         0.000       
     359       61.4821         0.000       
     358       61.4264         0.000       
     357       60.8226         0.000       
     356       60.1412         0.000       
     355       59.7947         0.000       
     354       59.4038         0.000       
     353       58.9579         0.000       
     352       58.8080         0.000       
     351       58.6662         0.000       
     350       58.4710         0.000       
     349       57.7255         0.000       
     348       57.1483         0.000       
     347       56.9268         0.000       
     346       56.5926         0.000       
     345       56.2962         0.000       
     344       55.7291         0.000       
     343       55.3348         0.000       
     342       55.1264         0.000       
     341       54.7125         0.000       
     340       54.3944         0.000       
     339       54.1199         0.000       
     338       53.9609         0.000       
     337       53.5870         0.000       
     336       53.3972         0.000       
     335       52.7355         0.000       
     334       52.2856         0.000       
     333       51.9955         0.000       
     332       51.9319         0.000       
     331       51.7933         0.000       
     330       51.3990         0.000       
     329       51.3748         0.000       
     328       50.8249         0.000       
     327       50.6755         0.000       
     326       50.3824         0.000       
     325       50.0919         0.000       
     324       49.8661         0.000       
     323       49.4934         0.000       
     322       49.2179         0.000       
     321       49.0437         0.000       
     320       48.4936         0.000       
     319       48.3982         0.000       
     318       48.2532         0.000       
     317       48.0581         0.000       
     316       47.6497         0.000       
     315       47.4044         0.000       
     314       47.2445         0.000       
     313       47.1517         0.000       
     312       46.9343         0.000       
     311       46.5540         0.000       
     310       46.2250         0.000       
     309       45.9860         0.000       
     308       45.8288         0.000       
     307       45.3957         0.000       
     306       45.1101         0.000       
     305       44.8818         0.000       
     304       44.8313         0.000       
     303       44.3182         0.000       
     302       44.2250         0.000       
     301       43.9845         0.000       
     300       43.7734         0.000       
     299       43.3251         0.000       
     298       43.1328         0.000       
     297       42.8571         0.000       
     296       42.7780         0.000       
     295       42.6035         0.000       
     294       42.2931         0.000       
     293       41.9918         0.000       
     292       41.7173         0.000       
     291       41.4180         0.000       
     290       41.1335         0.000       
     289       40.8513         0.000       
     288       40.5032         0.000       
     287       40.3865         0.000       
     286       39.8084         0.000       
     285       39.6615         0.000       
     284       39.3823         0.000       
     283       39.3497         0.000       
     282       38.8851         0.000       
     281       38.7361         0.000       
     280       38.3754         0.000       
     279       38.1931         0.000       
     278       37.8962         0.000       
     277       37.4860         0.000       
     276       37.0870         0.000       
     275       37.0021         0.000       
     274       36.8875         0.000       
     273       36.5593         0.000       
     272       36.3563         0.000       
     271       36.0341         0.000       
     270       35.9395         0.000       
     269       35.8891         0.000       
     268       35.5200         0.000       
     267       35.3438         0.000       
     266       35.1281         0.000       
     265       34.8783         0.000       
     264       34.6417         0.000       
     263       34.3427         0.000       
     262       34.2750         0.000       
     261       34.1904         0.000       
     260       33.7485         0.000       
     259       33.6232         0.000       
     258       33.3626         0.000       
     257       32.9980         0.000       
     256       32.8546         0.000       
     255       32.6732         0.000       
     254       32.4096         0.000       
     253       32.2489         0.000       
     252       31.9666         0.000       
     251       31.8668         0.000       
     250       31.6161         0.000       
     249       31.3837         0.000       
     248       31.1287         0.000       
     247       30.8513         0.000       
     246       30.7294         0.000       
     245       30.5822         0.000       
     244       30.3827         0.000       
     243       29.9727         0.000       
     242       29.9371         0.000       
     241       29.6870         0.000       
     240       29.5045         0.000       
     239       29.3754         0.000       
     238       29.1333         0.000       
     237       29.0784         0.000       
     236       28.7747         0.000       
     235       28.5535         0.000       
     234       28.2033         0.000       
     233       28.0072         0.000       
     232       27.5747         0.000       
     231       27.3784         0.000       
     230       27.1334         0.000       
     229       26.9477         0.000       
     228       26.6588         0.000       
     227       26.2833         0.000       
     226       26.1883         0.000       
     225       25.6463         0.000       
     224       25.5067         0.000       
     223       25.3511         0.000       
     222       25.0382         0.000       
     221       24.8987         0.000       
     220       24.5548         0.000       
     219       24.4533         0.000       
     218       24.0434         0.000       
     217       23.9552         0.000       
     216       23.6708         0.000       
     215       23.3287         0.000       
     214       23.0441         0.000       
     213       22.8844         0.000       
     212       22.3463         0.000       
     211       22.2950         0.000       
     210       22.1123         0.000       
     209       21.9402         0.000       
     208       21.7122         0.000       
     207       21.4668         0.000       
     206       21.2668         0.000       
     205       21.1340         0.000       
     204       20.9782         0.000       
     203       20.5639         0.000       
     202       20.0617         0.000       
     201       20.0122         0.000       
     200       19.6403         0.000       
     199       19.2744         0.000       
     198       19.1892         0.000       
     197       18.9423         0.000       
     196       18.7666         0.000       
     195       18.5354         0.000       
     194       18.4289         0.000       
     193       17.8815         0.000       
     192       17.8185         0.000       
     191       17.5901         0.000       
     190       17.3432         0.000       
     189       17.1766         0.000       
     188       16.8382         0.000       
     187       16.3558         0.000       
     186       16.1662         0.000       
     185       15.8409         0.000       
     184       15.5997         0.000       
     183       15.2274         0.000       
     182       14.9314         0.000       
     181       14.6001         0.000       
     180       14.1941         0.000       
     179       13.9997         0.000       
     178       13.8931         0.000       
     177       13.7365         0.000       
     176       13.6741         0.000       
     175       13.3744         0.000       
     174       13.1830         0.000       
     173       12.9575         0.000       
     172       12.7119         0.000       
     171       12.3052         0.000       
     170       12.1667         0.000       
     169       11.9579         0.000       
     168       11.6897         0.000       
     167       11.4553         0.000       
     166       11.3430         0.000       
     165       11.2841         0.000       
     164       10.9207         0.000       
     163       10.8215         0.000       
     162       10.6876         0.000       
     161       10.5791         0.000       
     160       10.3585         0.000       
     159       10.1661         0.000       
     158       10.0366         0.000       
     157        9.8363         0.000       
     156        9.6973         0.000       
     155        9.5042         0.000       
     154        9.2781         0.000       
     153        9.2135         0.000       
     152        9.1444         0.000       
     151        9.0247         0.000       
     150        8.8103         0.000       
     149        8.6806         0.000       
     148        8.6275         0.000       
     147        8.5245         0.000       
     146        8.2865         0.000       
     145        8.0474         0.000       
     144        7.9081         0.000       
     143        7.8363         0.000       
     142        7.5751         0.000       
     141        7.3099         0.000       
     140        6.8100         0.000       
     139        6.6652         0.000       
     138        6.4868         0.000       
     137        6.3800         0.000       
     136        6.3148         0.000       
     135        6.0554         0.000       
     134        5.9438         0.000       
     133        5.7444         0.000       
     132        5.5925         0.000       
     131        5.4830         0.000       
     130        5.3658         0.000       
     129        5.2019         0.000       
     128        5.1394         0.000       
     127        4.9937         0.000       
     126        4.9753         0.000       
     125        4.7713         0.000       
     124        4.5038         0.000       
     123        4.2969         0.000       
     122        4.2714         0.000       
     121        4.1158         0.000       
     120        3.9696         0.000       
     119        3.7873         0.000       
     118        3.6982         0.000       
     117        3.5115         0.000       
     116        3.3739         0.000       
     115        3.3496         0.000       
     114        3.0862         0.000       
     113        2.9836         0.000       
     112        2.8456         0.000       
     111        2.6997         0.000       
     110        2.5350         0.000       
     109        2.4426         0.000       
     108        2.1218         0.000       
     107        2.0220         0.000       
     106        1.8566         0.000       
     105        1.7429         0.000       
     104        1.6193         0.000       
     103        1.5689         0.000       
     102        1.1441         0.000       
     101        1.0227         0.000       
     100        0.8279         0.000       
      99        0.8130         0.000       
      98        0.7347         0.000       
      97        0.5291         0.000       
      96        0.4274         0.000       
      95        0.1974         0.000       
      94       -0.0698         0.000       
      93       -0.3121         0.000       
      92       -0.4051         0.000       
      91       -0.4665         0.000       
      90       -0.8163         0.000       
      89       -0.9854         0.000       
      88       -1.1854         0.000       
      87       -2.1007         0.000       
      86       -2.4828         0.000       
      85       -2.6718         0.000       
      84       -4.4553         0.000 < LUMO
      83       -6.7605         2.000 < HOMO
      82       -7.0995         2.000       
      81       -7.3611         2.000       
      80       -8.2140         2.000       
      79       -8.6860         2.000       
      78       -8.7655         2.000       
      77       -8.8308         2.000       
      76       -8.9795         2.000       
      75       -9.0894         2.000       
      74       -9.2054         2.000       
      73       -9.2397         2.000       
      72       -9.3083         2.000       
      71       -9.3898         2.000       
      70       -9.4539         2.000       
      69       -9.4931         2.000       
      68       -9.6287         2.000       
      67       -9.7950         2.000       
      66       -9.8591         2.000       
      65       -9.9665         2.000       
      64       -9.9856         2.000       
      63      -10.2348         2.000       
      62      -10.3932         2.000       
      61      -10.5416         2.000       
      60      -10.7103         2.000       
      59      -10.8067         2.000       
      58      -10.9973         2.000       
      57      -11.4820         2.000       
      56      -11.5524         2.000       
      55      -11.5753         2.000       
      54      -11.7391         2.000       
      53      -12.0057         2.000       
      52      -12.3641         2.000       
      51      -12.6848         2.000       
      50      -12.8956         2.000       
      49      -13.6880         2.000       
      48      -13.9224         2.000       
      47      -14.3052         2.000       
      46      -14.6549         2.000       
      45      -14.7686         2.000       
      44      -14.9020         2.000       
      43      -15.2331         2.000       
      42      -15.7217         2.000       
      41      -15.9892         2.000       
      40      -16.7184         2.000       
      39      -17.4953         2.000       
      38      -18.2037         2.000       
      37      -18.5730         2.000       
      36      -18.9389         2.000       
      35      -19.8280         2.000       
      34      -20.1766         2.000       
      33      -21.1947         2.000       
      32      -23.0020         2.000       
      31      -23.1489         2.000       
      30      -23.3002         2.000       
      29      -23.6294         2.000       
      28      -26.1736         2.000       
      27      -27.4382         2.000       
      26      -30.8805         2.000       
      25      -31.0129         2.000       
      24      -33.2975         2.000       
      23     -270.6402         2.000       
      22     -270.7643         2.000       
      21     -270.8690         2.000       
      20     -270.9495         2.000       
      19     -271.2189         2.000       
      18     -271.2730         2.000       
      17     -271.7076         2.000       
      16     -271.7240         2.000       
      15     -271.7505         2.000       
      14     -271.9605         2.000       
      13     -272.2093         2.000       
      12     -273.4073         2.000       
      11     -273.7168         2.000       
      10     -274.2803         2.000       
       9     -277.1014         2.000       
       8     -382.2412         2.000       
       7     -382.4596         2.000       
       6     -382.6953         2.000       
       5     -384.7667         2.000       
       4     -512.4544         2.000       
       3     -662.6173         2.000       
       2     -662.6485         2.000       
       1     -662.7122         2.000       

AMS application finished. Exiting.
NORMAL TERMINATION
     Total cpu time:     370.47
  Total system time:       0.66
 Total elapsed time:     373.20
NORMAL TERMINATION
