
 *******************************************************************************
 *                                                                             *
 *  --------------------------------                                           *
 *   Amsterdam Modeling Suite (AMS)              2026.103                      *
 *  --------------------------------                                           *
 *                                               r260501 2026-05-01 873454b5   *
 *                                                                             *
 *                                                                             *
 *                              =================                              *
 *                              |               |                              *
 *                              |     A M S     |                              *
 *                              |               |                              *
 *                              =================                              *
 *                                                                             *
 *                                                                             *
 *   Online information and documentation:  https://www.scm.com/support/       *
 *   E-mail:  support@scm.com   info@scm.com                                   *
 *                                                                             *
 *   Scientific publications using AMS results must be properly referenced     *
 *   See the User Manuals (or the web site) for recommended citations          *
 *   The terms and conditions of the End User License Agreement apply to       *
 *   the use of AMS, https://www.scm.com/license-terms/                        *
 *                                                                             *
 **********************  x86_64_linux_intel / intelmpi  ************************
 
 Licensed to: Jong-June Jeon / University of Seoul 2026-06-02 13:44:15
 SCM User ID: u30731
  
 AMS 2026.103  RunTime: Jun03-2026 09:15:17  ShM Nodes: 1  Procs: 1

 AMS jobname: c5_fragB_opt
 AMS jobid  : 990634430

 Start   directory: /gpfs/home1/yeseo1ee/projects/eda-asm-prediction/ADF_800/adf_outputs/batch_000/dipolar_000794/
 Results directory: /gpfs/home1/yeseo1ee/projects/eda-asm-prediction/ADF_800/adf_outputs/batch_000/dipolar_000794/c5_fragB_opt.results/
 Scratch directory: /tmp/amstmp_c5_fragB_opt_kid0.990634430/

 RNG seed: -247726084 -1840406198 -1354368059 1724107424 1532302515 1377563448 -1185975533 -152257260



                      ************************************************************************
                      *  ADF 2026.103  RunTime: Jun03-2026 09:15:17  ShM Nodes: 1  Procs: 1  *
                      ************************************************************************
  

       ***************************
       *  GEOMETRY OPTIMIZATION  *
       ***************************

Optimization Method                    Quasi Newton
Optimization Coordinates               Delocalized Coordinates
Optimize lattice                       F
 
 ------------------------------------------------------
 Convergence criteria (Hartree,Angstrom)
 ------------------------------------------------------
 Maximum gradient               0.000100000000
 Maximum rms gradient           0.000066666667
 Maximum step allowed           0.010000000000
 Maximum rms step allowed       0.006666666667
 Maximum energy change allowe   0.000200000000
 Maximum stress energy allowe   0.000500000000
 
Initial model Hessian                  Automatic Hessian
 
------------------------------------
Quasi-Newton Optimizer Parameters
------------------------------------
Hessian Update Method                  BFGS
Maximum number of steps                  200
First GDIIS cycle                          0
Maximum GDIIS vectors                      0
Trust radius (bohr)                        0.200000
Trust radius varies                        T
Constraints converged at all steps         T
Use projector                              T
 
 Rigid motions settings for: old optimizer
 Atomic rotations (x,y,z):     T T T
 Atomic translations (x,y,z):  T T T
 Tolerance:                  1.000000000000000E-006

--------
Geometry
--------
Formula: C8H9F3
Atoms
  Index Symbol   x (angstrom)   y (angstrom)   z (angstrom)
      1      C    -1.14579000     1.00821000     0.05603000
      2      C    -2.07826000     1.04911000     1.27019000
      3      C    -1.42962000     0.42582000     2.53251000
      4      C    -1.29515000    -1.07622000     2.16234000
      5      C    -1.86061000    -1.13828000     0.72574000
      6      C    -3.02754000    -0.11306000     0.85666000
      7      C    -0.98725000    -0.35922000    -0.27313000
      8      C    -1.04426000    -0.80353000    -1.70179000
      9      F    -2.33034000    -1.01075000    -2.08651000
     10      F    -0.53791000     0.09989000    -2.55749000
     11      F    -0.41252000    -1.97622000    -1.92909000
     12      H    -1.24656000     1.76647000    -0.72193000
     13      H    -2.53176000     2.03299000     1.43677000
     14      H    -2.11152000     0.56843000     3.38271000
     15      H    -0.47981000     0.89096000     2.82122000
     16      H    -1.92760000    -1.69979000     2.81032000
     17      H    -0.27605000    -1.45641000     2.25155000
     18      H    -2.11687000    -2.14989000     0.38923000
     19      H    -3.55207000     0.06879000    -0.09102000
     20      H    -3.75534000    -0.37878000     1.64018000

Total System Charge              0.00000


----------------
ADF Engine Input
----------------
 
   Basis
     Type TZ2P
     Core None
   End
   XC
     GGA BLYP
     Dispersion GRIMME3 BJDAMP
   End
   Symmetry NOSYM
   NumericalQuality Normal
   Unrestricted No
   SCF
     Iterations 200
     Converge 1.0e-6
   End
   Save TAPE21
 

 Title: *** (NO TITLE) ***

 Using automatic Hessian for delocalized coordinates.
 *** GO1_GOStep1 ***

 Energy gradients wrt nuclear displacements
 ==========================================

     Atom      Cartesian (a.u./angstrom)
                 X         Y         Z
 ----------------------------------------
     1 C     0.027772  0.094899  0.033824
     2 C    -0.008795 -0.015944  0.001250
     3 C    -0.006312 -0.011151 -0.020264
     4 C    -0.005041  0.012730 -0.011517
     5 C    -0.005518  0.012147  0.006363
     6 C     0.024654  0.003766 -0.002223
     7 C     0.048819 -0.093847 -0.014323
     8 C    -0.027926 -0.006562 -0.029942
     9 F     0.044464  0.006385  0.009030
    10 F    -0.021890 -0.031479  0.027375
    11 F    -0.024852  0.037695  0.004064
    12 H    -0.032457 -0.007425 -0.008884
    13 H    -0.000656  0.003536 -0.000908
    14 H    -0.001576  0.001804  0.001398
    15 H    -0.000731  0.000069  0.006654
    16 H    -0.003051 -0.001853  0.000379
    17 H    -0.004887 -0.000918  0.003729
    18 H    -0.000293 -0.004454 -0.002505
    19 H    -0.002892  0.001926 -0.005686
    20 H     0.001167 -0.001325  0.002187
 ----------------------------------------
 
----------------------------------------------------------------------
Geometry Convergence after Step   1       (Hartree/Angstrom,Angstrom)
----------------------------------------------------------------------
current energy                               -4.08141647 Hartree
energy change                      -4.08141647     0.00020000    F
constrained gradient max            0.09489767     0.00010000    F
constrained gradient rms            0.02375827     0.00006667    F
gradient max                        0.09489767
gradient rms                        0.02375827
cart. step max                      0.07642224     0.01000000    F
cart. step rms                      0.02812645     0.00666667    F
 

--------
Geometry
--------
Formula: C8H9F3
Atoms
  Index Symbol   x (angstrom)   y (angstrom)   z (angstrom)
      1      C    -1.18040141     0.97558911     0.04870026
      2      C    -2.09831921     1.04395390     1.27324851
      3      C    -1.41408231     0.42894448     2.52580892
      4      C    -1.29465358    -1.07640034     2.15650576
      5      C    -1.90308371    -1.13853211     0.73122634
      6      C    -3.07462780    -0.11203073     0.88220056
      7      C    -1.02992785    -0.35953557    -0.27466150
      8      C    -1.01707784    -0.79495325    -1.71178985
      9      F    -2.30098497    -1.01101027    -2.15909307
     10      F    -0.46148776     0.13095075    -2.54222881
     11      F    -0.35112775    -1.97543502    -1.90730030
     12      H    -1.22683527     1.73653033    -0.72922692
     13      H    -2.53357255     2.03333188     1.44637519
     14      H    -2.06566553     0.57938987     3.39693063
     15      H    -0.45316188     0.89327979     2.77417932
     16      H    -1.90382209    -1.69744980     2.82665691
     17      H    -0.27114064    -1.45627323     2.20971340
     18      H    -2.16126039    -2.15050236     0.40438320
     19      H    -3.61353831     0.06826626    -0.05435323
     20      H    -3.79205915    -0.36959369     1.67721469

Total System Charge              0.00000

 *** GO1_GOStep2 ***

 Energy gradients wrt nuclear displacements
 ==========================================

     Atom      Cartesian (a.u./angstrom)
                 X         Y         Z
 ----------------------------------------
     1 C     0.027850  0.051701  0.026361
     2 C    -0.006531 -0.015089  0.001211
     3 C    -0.003785 -0.008281 -0.014633
     4 C    -0.004595  0.010791 -0.007818
     5 C    -0.004861  0.015505  0.005756
     6 C     0.008648  0.003849 -0.006375
     7 C     0.047413 -0.055349 -0.000476
     8 C    -0.025135  0.001227 -0.021956
     9 F     0.012964  0.002942  0.005336
    10 F    -0.006567 -0.007909  0.009753
    11 F    -0.007703  0.012308  0.004278
    12 H    -0.029017 -0.010340 -0.010825
    13 H    -0.000079  0.001729  0.000252
    14 H    -0.000701  0.001761  0.000926
    15 H    -0.000491 -0.000221  0.006031
    16 H    -0.001870 -0.001197  0.000220
    17 H    -0.002533 -0.001288  0.003657
    18 H     0.000353 -0.002219 -0.001021
    19 H    -0.002520  0.000629 -0.001922
    20 H    -0.000840 -0.000550  0.001243
 ----------------------------------------

 dE(predicted):    -0.88019E-02, dE(actual):    -0.89838E-02, Trust radius:    0.400000, all in a.u.
 
----------------------------------------------------------------------
Geometry Convergence after Step   2       (Hartree/Angstrom,Angstrom)
----------------------------------------------------------------------
current energy                               -4.09040030 Hartree
energy change                      -0.00898383     0.00020000    F
constrained gradient max            0.05535410     0.00010000    F
constrained gradient rms            0.01503113     0.00006667    F
gradient max                        0.05535410
gradient rms                        0.01503113
cart. step max                      0.10510241     0.01000000    F
cart. step rms                      0.04392298     0.00666667    F
 

--------
Geometry
--------
Formula: C8H9F3
Atoms
  Index Symbol   x (angstrom)   y (angstrom)   z (angstrom)
      1      C    -1.24507505     0.96044239     0.03864603
      2      C    -2.13419989     1.05190727     1.28184246
      3      C    -1.39545159     0.42917849     2.50629475
      4      C    -1.29489122    -1.08012792     2.13023676
      5      C    -1.97208925    -1.14069878     0.72898279
      6      C    -3.13577662    -0.10449642     0.92601805
      7      C    -1.11294851    -0.34700113    -0.28250639
      8      C    -0.97394700    -0.79887676    -1.70737651
      9      F    -2.21780726    -1.05511681    -2.26419548
     10      F    -0.37025281     0.13005062    -2.51679613
     11      F    -0.26327310    -1.97354561    -1.84851201
     12      H    -1.17833213     1.74650931    -0.71031031
     13      H    -2.54263275     2.04748824     1.47521457
     14      H    -1.99784221     0.57951057     3.41083029
     15      H    -0.42100630     0.89299690     2.69130407
     16      H    -1.86322847    -1.70262509     2.83176272
     17      H    -0.26690889    -1.45530720     2.12058358
     18      H    -2.23254671    -2.15301041     0.41123323
     19      H    -3.70100168     0.07971437     0.00865981
     20      H    -3.82761854    -0.35847204     1.74257771

Total System Charge              0.00000

 *** GO1_GOStep3 ***

 Energy gradients wrt nuclear displacements
 ==========================================

     Atom      Cartesian (a.u./angstrom)
                 X         Y         Z
 ----------------------------------------
     1 C     0.023225  0.008769  0.016772
     2 C    -0.004526 -0.004739  0.002256
     3 C    -0.003912 -0.005375 -0.009526
     4 C    -0.003749  0.007070 -0.004372
     5 C    -0.006717  0.006177  0.002422
     6 C    -0.001732  0.003048 -0.007172
     7 C     0.038794 -0.011314  0.014243
     8 C    -0.019164  0.008170 -0.005750
     9 F     0.001918 -0.000416 -0.001618
    10 F    -0.000693 -0.001446 -0.001928
    11 F    -0.001461  0.000557 -0.001932
    12 H    -0.022410 -0.008989 -0.012484
    13 H     0.002048  0.001281  0.001356
    14 H     0.000025  0.001076  0.000471
    15 H    -0.000550  0.000003  0.003306
    16 H    -0.000612 -0.000536 -0.000412
    17 H    -0.000470 -0.001422  0.002367
    18 H     0.002117 -0.001732  0.000925
    19 H    -0.000791 -0.000153  0.000929
    20 H    -0.001341 -0.000027  0.000147
 ----------------------------------------

 dE(predicted):    -0.92790E-02, dE(actual):    -0.94477E-02, Trust radius:    0.800000, all in a.u.
 
----------------------------------------------------------------------
Geometry Convergence after Step   3       (Hartree/Angstrom,Angstrom)
----------------------------------------------------------------------
current energy                               -4.09984797 Hartree
energy change                      -0.00944767     0.00020000    F
constrained gradient max            0.03876574     0.00010000    F
constrained gradient rms            0.00858080     0.00006667    F
gradient max                        0.03876574
gradient rms                        0.00858080
cart. step max                      0.18343239     0.01000000    F
cart. step rms                      0.07712768     0.00666667    F
 

--------
Geometry
--------
Formula: C8H9F3
Atoms
  Index Symbol   x (angstrom)   y (angstrom)   z (angstrom)
      1      C    -1.35445390     0.97527236     0.01483173
      2      C    -2.19164545     1.06466237     1.29079763
      3      C    -1.36113188     0.42539116     2.45636884
      4      C    -1.29212215    -1.08424664     2.05760673
      5      C    -2.08005831    -1.13336553     0.70515795
      6      C    -3.21925111    -0.09132434     0.99526307
      7      C    -1.26126921    -0.32188061    -0.32682017
      8      C    -0.91341267    -0.82665874    -1.68805543
      9      F    -2.06785014    -1.15930982    -2.38880124
     10      F    -0.23745299     0.10385279    -2.44209827
     11      F    -0.13811192    -1.97390749    -1.66507962
     12      H    -1.08519190     1.80802316    -0.62891739
     13      H    -2.57438569     2.06066312     1.52364043
     14      H    -1.88487539     0.56430507     3.40920446
     15      H    -0.37392415     0.88879875     2.54899604
     16      H    -1.79311125    -1.71302646     2.80204949
     17      H    -0.26657765    -1.45061499     1.94598702
     18      H    -2.35923749    -2.14066282     0.39299420
     19      H    -3.84024474     0.10455544     0.11760267
     20      H    -3.85252201    -0.35200680     1.85376186

Total System Charge              0.00000

 *** GO1_GOStep4 ***

 Energy gradients wrt nuclear displacements
 ==========================================

     Atom      Cartesian (a.u./angstrom)
                 X         Y         Z
 ----------------------------------------
     1 C     0.011569 -0.000923  0.009559
     2 C    -0.001686  0.003544  0.002395
     3 C    -0.003112 -0.002059 -0.003596
     4 C    -0.003820  0.003741 -0.002039
     5 C    -0.008019 -0.006239  0.001669
     6 C    -0.009048  0.000550 -0.003127
     7 C     0.028650  0.001423  0.007869
     8 C    -0.010471  0.002982 -0.007230
     9 F    -0.007142 -0.000906 -0.000859
    10 F     0.003164  0.005209 -0.000392
    11 F     0.003471 -0.004745  0.000152
    12 H    -0.011142 -0.002549 -0.009348
    13 H     0.003891  0.000800  0.001694
    14 H     0.000305  0.000029  0.000233
    15 H    -0.000290  0.000606  0.000361
    16 H     0.000232  0.000449 -0.000328
    17 H     0.000558 -0.000608  0.000373
    18 H     0.003330 -0.000832  0.001785
    19 H     0.000874 -0.000658  0.001089
    20 H    -0.001314  0.000186 -0.000261
 ----------------------------------------

 dE(predicted):    -0.98150E-02, dE(actual):    -0.11302E-01, Trust radius:    1.000000, all in a.u.
 
----------------------------------------------------------------------
Geometry Convergence after Step   4       (Hartree/Angstrom,Angstrom)
----------------------------------------------------------------------
current energy                               -4.11114993 Hartree
energy change                      -0.01130196     0.00020000    F
constrained gradient max            0.02866119     0.00010000    F
constrained gradient rms            0.00568997     0.00006667    F
gradient max                        0.02866119
gradient rms                        0.00568997
cart. step max                      0.20705737     0.01000000    F
cart. step rms                      0.06904026     0.00666667    F
 

--------
Geometry
--------
Formula: C8H9F3
Atoms
  Index Symbol   x (angstrom)   y (angstrom)   z (angstrom)
      1      C    -1.45262547     1.00474153    -0.01044573
      2      C    -2.23317534     1.07491147     1.29854016
      3      C    -1.32706261     0.41678056     2.40455888
      4      C    -1.28788691    -1.08931389     1.98073693
      5      C    -2.16359699    -1.11135705     0.67469993
      6      C    -3.27367168    -0.07459162     1.05157444
      7      C    -1.38476907    -0.28790584    -0.37307340
      8      C    -0.86588393    -0.84684617    -1.64858977
      9      F    -1.90617131    -1.27062412    -2.46525569
     10      F    -0.13363862     0.05628640    -2.38025088
     11      F    -0.06236423    -1.95697255    -1.45802225
     12      H    -1.04543946     1.85270805    -0.55137650
     13      H    -2.60917628     2.06368147     1.56832314
     14      H    -1.78705685     0.54112271     3.39106253
     15      H    -0.33477811     0.87714809     2.43254985
     16      H    -1.73882064    -1.72789562     2.74838503
     17      H    -0.27344866    -1.45290769     1.78957263
     18      H    -2.47148981    -2.10842532     0.35803806
     19      H    -3.94907017     0.13785395     0.21798247
     20      H    -3.84670386    -0.34987436     1.94548018

Total System Charge              0.00000

 *** GO1_GOStep5 ***

 Energy gradients wrt nuclear displacements
 ==========================================

     Atom      Cartesian (a.u./angstrom)
                 X         Y         Z
 ----------------------------------------
     1 C     0.001171  0.000576  0.002213
     2 C     0.002180  0.003732  0.001174
     3 C    -0.001844 -0.000661 -0.000793
     4 C    -0.002602  0.001290  0.000237
     5 C    -0.006647 -0.005677  0.000684
     6 C    -0.010101 -0.001284  0.000395
     7 C     0.021560  0.001293  0.001274
     8 C    -0.006139  0.003497  0.002139
     9 F    -0.003315 -0.000450 -0.001527
    10 F     0.001854  0.000974 -0.001377
    11 F     0.001972 -0.002144 -0.001350
    12 H    -0.004736 -0.000394 -0.002986
    13 H     0.002787 -0.000172  0.000784
    14 H     0.000369 -0.000784 -0.000273
    15 H    -0.000154  0.000388 -0.000807
    16 H     0.000432  0.000518  0.000082
    17 H     0.000702 -0.000271 -0.000712
    18 H     0.002325 -0.000102  0.001089
    19 H     0.000972 -0.000396  0.000108
    20 H    -0.000787  0.000067 -0.000353
 ----------------------------------------

 dE(predicted):    -0.56755E-02, dE(actual):    -0.55739E-02, Trust radius:    1.000000, all in a.u.
 
----------------------------------------------------------------------
Geometry Convergence after Step   5       (Hartree/Angstrom,Angstrom)
----------------------------------------------------------------------
current energy                               -4.11672383 Hartree
energy change                      -0.00557390     0.00020000    F
constrained gradient max            0.02154772     0.00010000    F
constrained gradient rms            0.00370701     0.00006667    F
gradient max                        0.02154772
gradient rms                        0.00370701
cart. step max                      0.19999308     0.01000000    F
cart. step rms                      0.05903173     0.00666667    F
 

--------
Geometry
--------
Formula: C8H9F3
Atoms
  Index Symbol   x (angstrom)   y (angstrom)   z (angstrom)
      1      C    -1.52376086     1.02422173    -0.03400231
      2      C    -2.26108865     1.08265552     1.29618669
      3      C    -1.30163324     0.41051840     2.35577354
      4      C    -1.28068820    -1.09073472     1.90786785
      5      C    -2.22850593    -1.09690902     0.64502549
      6      C    -3.30162711    -0.06262767     1.09299099
      7      C    -1.50775196    -0.26184409    -0.42666224
      8      C    -0.84416320    -0.85759249    -1.61122067
      9      F    -1.76268707    -1.37360989    -2.51228081
     10      F    -0.07172663     0.03943877    -2.30575033
     11      F    -0.02668219    -1.91492253    -1.25802917
     12      H    -0.98560281     1.85605770    -0.47600350
     13      H    -2.63893807     2.06327508     1.59356017
     14      H    -1.71943297     0.52187084     3.36245831
     15      H    -0.30921024     0.87063215     2.34612420
     16      H    -1.69156987    -1.74023929     2.68887752
     17      H    -0.27829628    -1.44969185     1.65801508
     18      H    -2.56932558    -2.08406990     0.32995422
     19      H    -4.02735480     0.16055655     0.30457638
     20      H    -3.81678432    -0.34846527     2.01702858

Total System Charge              0.00000

 *** GO1_GOStep6 ***

 Energy gradients wrt nuclear displacements
 ==========================================

     Atom      Cartesian (a.u./angstrom)
                 X         Y         Z
 ----------------------------------------
     1 C    -0.003822  0.000564 -0.003885
     2 C     0.003214  0.003157 -0.001515
     3 C    -0.001650  0.000221  0.001004
     4 C    -0.000668  0.000530  0.002165
     5 C    -0.001067 -0.006944  0.001180
     6 C    -0.001480 -0.001247  0.000506
     7 C     0.006811  0.003492 -0.006075
     8 C    -0.002904 -0.000271  0.004239
     9 F    -0.001983 -0.001328 -0.001721
    10 F     0.000129  0.000930  0.001310
    11 F    -0.001606  0.000546  0.000705
    12 H     0.001321  0.000031  0.004028
    13 H     0.000430 -0.000351  0.000448
    14 H     0.000142 -0.000435 -0.000251
    15 H    -0.000313  0.000189 -0.000814
    16 H     0.000495  0.000689  0.000715
    17 H     0.000300 -0.000162 -0.000633
    18 H     0.000760  0.000402 -0.000389
    19 H     0.001007  0.000055 -0.000524
    20 H     0.000884 -0.000067 -0.000494
 ----------------------------------------

 dE(predicted):    -0.18425E-02, dE(actual):    -0.18013E-02, Trust radius:    1.000000, all in a.u.
 
----------------------------------------------------------------------
Geometry Convergence after Step   6       (Hartree/Angstrom,Angstrom)
----------------------------------------------------------------------
current energy                               -4.11852514 Hartree
energy change                      -0.00180131     0.00020000    F
constrained gradient max            0.00694420     0.00010000    F
constrained gradient rms            0.00215116     0.00006667    F
gradient max                        0.00694420
gradient rms                        0.00215116
cart. step max                      0.04556254     0.01000000    F
cart. step rms                      0.01516233     0.00666667    F
 

--------
Geometry
--------
Formula: C8H9F3
Atoms
  Index Symbol   x (angstrom)   y (angstrom)   z (angstrom)
      1      C    -1.53655765     1.01876111    -0.04087654
      2      C    -2.25928674     1.08205274     1.29738030
      3      C    -1.29232117     0.40393532     2.34727184
      4      C    -1.28895226    -1.09785002     1.90072694
      5      C    -2.24689494    -1.09423501     0.64658483
      6      C    -3.30953139    -0.05436684     1.10475875
      7      C    -1.51968390    -0.27025897    -0.42604098
      8      C    -0.82569690    -0.85275150    -1.60341312
      9      F    -1.72018522    -1.39539020    -2.50964553
     10      F    -0.07344879     0.05935336    -2.29894105
     11      F     0.01888035    -1.88573355    -1.24255129
     12      H    -1.01255600     1.84708150    -0.50723468
     13      H    -2.63033577     2.06502682     1.59649629
     14      H    -1.70037816     0.52072062     3.35756215
     15      H    -0.29578641     0.85513712     2.33018169
     16      H    -1.70223530    -1.74522300     2.68236724
     17      H    -0.29191628    -1.46621564     1.64477561
     18      H    -2.59877280    -2.07894244     0.33479995
     19      H    -4.04412957     0.17354120     0.32555533
     20      H    -3.81704109    -0.33612262     2.03473226

Total System Charge              0.00000

 *** GO1_GOStep7 ***

 Energy gradients wrt nuclear displacements
 ==========================================

     Atom      Cartesian (a.u./angstrom)
                 X         Y         Z
 ----------------------------------------
     1 C    -0.003917  0.001280 -0.002894
     2 C     0.003870 -0.000100 -0.000097
     3 C    -0.000539  0.000250  0.000240
     4 C     0.000199  0.000858  0.000690
     5 C    -0.003401 -0.001403  0.001473
     6 C    -0.002060 -0.001161  0.001136
     7 C     0.005001 -0.002318 -0.003057
     8 C     0.000482  0.001390  0.003711
     9 F     0.000698  0.000549  0.000052
    10 F    -0.000420 -0.000832 -0.000406
    11 F    -0.001562  0.000404 -0.001079
    12 H     0.000427  0.000256  0.001347
    13 H    -0.000045 -0.000124  0.000040
    14 H     0.000062 -0.000131 -0.000176
    15 H     0.000021  0.000074 -0.000088
    16 H     0.000046  0.000169  0.000049
    17 H     0.000143  0.000066 -0.000244
    18 H     0.000355  0.000375 -0.000307
    19 H     0.000288  0.000060 -0.000331
    20 H     0.000352  0.000338 -0.000059
 ----------------------------------------

 dE(predicted):    -0.19124E-03, dE(actual):    -0.17269E-03, Trust radius:    1.000000, all in a.u.
 
----------------------------------------------------------------------
Geometry Convergence after Step   7       (Hartree/Angstrom,Angstrom)
----------------------------------------------------------------------
current energy                               -4.11869782 Hartree
energy change                      -0.00017269     0.00020000    T
constrained gradient max            0.00500507     0.00010000    F
constrained gradient rms            0.00146556     0.00006667    F
gradient max                        0.00500507
gradient rms                        0.00146556
cart. step max                      0.02532522     0.01000000    F
cart. step rms                      0.00727172     0.00666667    F
 

--------
Geometry
--------
Formula: C8H9F3
Atoms
  Index Symbol   x (angstrom)   y (angstrom)   z (angstrom)
      1      C    -1.52920796     1.01953869    -0.03495392
      2      C    -2.25874580     1.08332731     1.29963661
      3      C    -1.29281915     0.40080910     2.34889010
      4      C    -1.29055696    -1.10075621     1.90021561
      5      C    -2.24636028    -1.09186985     0.64561296
      6      C    -3.30852273    -0.05049435     1.10319839
      7      C    -1.52204415    -0.26724833    -0.42554318
      8      C    -0.82723804    -0.85179709    -1.60478851
      9      F    -1.71897921    -1.42071542    -2.49712950
     10      F    -0.09569984     0.06615345    -2.31483336
     11      F     0.04157214    -1.86349789    -1.23772127
     12      H    -1.00679469     1.84096178    -0.51573101
     13      H    -2.62865845     2.06687572     1.59872379
     14      H    -1.70217491     0.51769391     3.35882746
     15      H    -0.29523534     0.84984490     2.33471885
     16      H    -1.70755706    -1.74940570     2.67891485
     17      H    -0.29388127    -1.47104575     1.64652281
     18      H    -2.60224175    -2.07539469     0.33354772
     19      H    -4.04324678     0.17909301     0.32454775
     20      H    -3.81843776    -0.33355258     2.03183386

Total System Charge              0.00000

 *** GO1_GOStep8 ***

 Energy gradients wrt nuclear displacements
 ==========================================

     Atom      Cartesian (a.u./angstrom)
                 X         Y         Z
 ----------------------------------------
     1 C    -0.001570  0.000627  0.001457
     2 C     0.000640 -0.000816 -0.000219
     3 C    -0.000336 -0.000049 -0.001193
     4 C     0.001043 -0.000012  0.000460
     5 C    -0.001010 -0.000188  0.001641
     6 C    -0.000968 -0.000065  0.000156
     7 C     0.001811  0.000766 -0.000786
     8 C     0.000423 -0.000088  0.001073
     9 F    -0.000078  0.000505 -0.000560
    10 F     0.000116 -0.000718 -0.000155
    11 F    -0.000330  0.000423 -0.000557
    12 H     0.000576 -0.000752 -0.001002
    13 H    -0.000316  0.000104 -0.000129
    14 H    -0.000130  0.000224 -0.000174
    15 H     0.000180 -0.000111  0.000133
    16 H    -0.000032 -0.000091 -0.000098
    17 H    -0.000066 -0.000089  0.000073
    18 H     0.000062  0.000092 -0.000098
    19 H    -0.000092  0.000107 -0.000017
    20 H     0.000078  0.000131 -0.000005
 ----------------------------------------

 dE(predicted):    -0.66753E-04, dE(actual):    -0.75521E-04, Trust radius:    1.000000, all in a.u.
 
----------------------------------------------------------------------
Geometry Convergence after Step   8       (Hartree/Angstrom,Angstrom)
----------------------------------------------------------------------
current energy                               -4.11877334 Hartree
energy change                      -0.00007552     0.00020000    T
constrained gradient max            0.00181179     0.00010000    F
constrained gradient rms            0.00062543     0.00006667    F
gradient max                        0.00181179
gradient rms                        0.00062543
cart. step max                      0.03945148     0.01000000    F
cart. step rms                      0.00984524     0.00666667    F
 

--------
Geometry
--------
Formula: C8H9F3
Atoms
  Index Symbol   x (angstrom)   y (angstrom)   z (angstrom)
      1      C    -1.52795962     1.02009910    -0.03432058
      2      C    -2.25617063     1.08474153     1.30131230
      3      C    -1.29057030     0.39678812     2.34848382
      4      C    -1.29512293    -1.10387523     1.89524733
      5      C    -2.25129316    -1.08967700     0.64142322
      6      C    -3.30792799    -0.04546836     1.10323536
      7      C    -1.52919165    -0.26574478    -0.42868529
      8      C    -0.82563950    -0.85185245    -1.60370881
      9      F    -1.70604752    -1.46016690    -2.48049028
     10      F    -0.12063731     0.07417168    -2.33034482
     11      F     0.07149643    -1.83399648    -1.22148609
     12      H    -1.00665603     1.84310123    -0.51375640
     13      H    -2.62271133     2.06888493     1.60248631
     14      H    -1.69765687     0.51259960     3.35961910
     15      H    -0.29152704     0.84241993     2.33382169
     16      H    -1.71439877    -1.75272491     2.67261117
     17      H    -0.29998920    -1.47731123     1.64061159
     18      H    -2.61299360    -2.07138140     0.32955205
     19      H    -4.04413737     0.18751753     0.32700991
     20      H    -3.81769560    -0.32960489     2.03186845

Total System Charge              0.00000

 *** GO1_GOStep9 ***

 Energy gradients wrt nuclear displacements
 ==========================================

     Atom      Cartesian (a.u./angstrom)
                 X         Y         Z
 ----------------------------------------
     1 C    -0.000343 -0.000287  0.001470
     2 C    -0.000275 -0.000378  0.000018
     3 C     0.000163  0.000205 -0.000643
     4 C     0.000305  0.000098 -0.000126
     5 C     0.000003 -0.000015  0.000499
     6 C     0.001120  0.000207 -0.000664
     7 C    -0.001014  0.000251  0.001000
     8 C     0.000986 -0.000392 -0.001012
     9 F    -0.000710  0.000438 -0.000436
    10 F     0.000546  0.000232 -0.000090
    11 F     0.000004  0.000106  0.000323
    12 H     0.000124 -0.000206 -0.000836
    13 H    -0.000285  0.000078 -0.000059
    14 H    -0.000075  0.000208  0.000073
    15 H     0.000099 -0.000089  0.000250
    16 H    -0.000073 -0.000159 -0.000071
    17 H    -0.000197 -0.000054  0.000111
    18 H    -0.000208 -0.000184 -0.000013
    19 H    -0.000154 -0.000102  0.000117
    20 H    -0.000015  0.000043  0.000087
 ----------------------------------------

 dE(predicted):    -0.32450E-04, dE(actual):    -0.44796E-04, Trust radius:    1.000000, all in a.u.
 
----------------------------------------------------------------------
Geometry Convergence after Step   9       (Hartree/Angstrom,Angstrom)
----------------------------------------------------------------------
current energy                               -4.11881814 Hartree
energy change                      -0.00004480     0.00020000    T
constrained gradient max            0.00145940     0.00010000    F
constrained gradient rms            0.00044670     0.00006667    F
gradient max                        0.00145940
gradient rms                        0.00044670
cart. step max                      0.11350944     0.01000000    F
cart. step rms                      0.02825376     0.00666667    F
 

--------
Geometry
--------
Formula: C8H9F3
Atoms
  Index Symbol   x (angstrom)   y (angstrom)   z (angstrom)
      1      C    -1.52633591     1.02843217    -0.03167264
      2      C    -2.25188572     1.08897510     1.30728378
      3      C    -1.28655485     0.38398450     2.34667121
      4      C    -1.30465298    -1.11258821     1.87817773
      5      C    -2.26361312    -1.07784596     0.62812273
      6      C    -3.31035410    -0.03050554     1.10368008
      7      C    -1.54210020    -0.25457569    -0.43645431
      8      C    -0.82102135    -0.85573197    -1.59565991
      9      F    -1.66770496    -1.57367634    -2.41898679
     10      F    -0.19222564     0.07771397    -2.38040064
     11      F     0.14928502    -1.75226502    -1.17699049
     12      H    -1.00234236     1.85416908    -0.50324236
     13      H    -2.60849099     2.07376108     1.61762092
     14      H    -1.68781562     0.49253253     3.36110499
     15      H    -0.28461593     0.82269492     2.33095278
     16      H    -1.72744413    -1.76540209     2.65029970
     17      H    -0.31299412    -1.49097180     1.61762154
     18      H    -2.63735048    -2.05378459     0.31175177
     19      H    -4.04904869     0.21452097     0.33350509
     20      H    -3.81956388    -0.32091710     2.03110481

Total System Charge              0.00000

 *** GO1_GOStep10 ***

 Energy gradients wrt nuclear displacements
 ==========================================

     Atom      Cartesian (a.u./angstrom)
                 X         Y         Z
 ----------------------------------------
     1 C     0.000977 -0.000995  0.001599
     2 C    -0.002227 -0.000387  0.000024
     3 C     0.000569  0.000284  0.000457
     4 C    -0.000270 -0.000622 -0.001271
     5 C     0.002709  0.002528 -0.001795
     6 C     0.003126  0.000801 -0.001067
     7 C    -0.003745  0.001014  0.002825
     8 C     0.000850 -0.001680 -0.002821
     9 F    -0.001274 -0.000608 -0.000734
    10 F     0.000538  0.000792  0.000125
    11 F     0.000515  0.000020  0.001237
    12 H    -0.000486  0.000281 -0.000366
    13 H    -0.000123 -0.000134  0.000041
    14 H     0.000144 -0.000109  0.000505
    15 H    -0.000041 -0.000127  0.000188
    16 H    -0.000069 -0.000237 -0.000070
    17 H    -0.000051 -0.000071  0.000131
    18 H    -0.000502 -0.000344  0.000328
    19 H    -0.000271 -0.000121  0.000387
    20 H    -0.000370 -0.000285  0.000276
 ----------------------------------------

 dE(predicted):    -0.62572E-04, dE(actual):    -0.79470E-05, Trust radius:    0.064072, all in a.u.
 
----------------------------------------------------------------------
Geometry Convergence after Step  10       (Hartree/Angstrom,Angstrom)
----------------------------------------------------------------------
current energy                               -4.11882608 Hartree
energy change                      -0.00000795     0.00020000    T
constrained gradient max            0.00371637     0.00010000    F
constrained gradient rms            0.00117089     0.00006667    F
gradient max                        0.00371637
gradient rms                        0.00117089
cart. step max                      0.02600389     0.01000000    F
cart. step rms                      0.00726562     0.00666667    F
 

--------
Geometry
--------
Formula: C8H9F3
Atoms
  Index Symbol   x (angstrom)   y (angstrom)   z (angstrom)
      1      C    -1.52261966     1.02273273    -0.03301723
      2      C    -2.25078336     1.08697570     1.30416997
      3      C    -1.28862740     0.38711639     2.34838031
      4      C    -1.30461662    -1.11120564     1.88718710
      5      C    -2.26078815    -1.08332692     0.63411946
      6      C    -3.31017458    -0.03466754     1.10241050
      7      C    -1.53590630    -0.26170784    -0.43229588
      8      C    -0.82271501    -0.85233957    -1.59974728
      9      F    -1.67902210    -1.54767245    -2.43251994
     10      F    -0.18755391     0.08616279    -2.37308525
     11      F     0.13871846    -1.76626561    -1.20048329
     12      H    -0.99759619     1.84827787    -0.50353035
     13      H    -2.60793997     2.07290286     1.61025452
     14      H    -1.69278854     0.50005881     3.36097390
     15      H    -0.28692722     0.82650022     2.33302732
     16      H    -1.72788833    -1.76074810     2.66171971
     17      H    -0.31192329    -1.48946742     1.62996455
     18      H    -2.63040506    -2.06101817     0.31903927
     19      H    -4.04573746     0.20706839     0.32824354
     20      H    -3.82153532    -0.32085651     2.02967906

Total System Charge              0.00000

 *** GO1_GOStep11 ***

 Energy gradients wrt nuclear displacements
 ==========================================

     Atom      Cartesian (a.u./angstrom)
                 X         Y         Z
 ----------------------------------------
     1 C     0.001489 -0.000882 -0.000540
     2 C    -0.001121 -0.000140 -0.000083
     3 C     0.000406  0.000151  0.000342
     4 C    -0.000376 -0.000385 -0.000476
     5 C     0.001221  0.001292 -0.000781
     6 C     0.001489  0.000041 -0.000466
     7 C    -0.002777 -0.000330  0.002442
     8 C     0.000707  0.000334 -0.001595
     9 F    -0.000359  0.000118 -0.000261
    10 F     0.000128  0.000428 -0.000135
    11 F     0.000037 -0.000139  0.000293
    12 H    -0.000306  0.000445  0.000169
    13 H     0.000058 -0.000098  0.000058
    14 H     0.000089 -0.000133  0.000242
    15 H    -0.000055 -0.000055  0.000074
    16 H    -0.000006 -0.000146  0.000018
    17 H    -0.000023  0.000027  0.000086
    18 H    -0.000205 -0.000208  0.000215
    19 H    -0.000154 -0.000133  0.000230
    20 H    -0.000240 -0.000188  0.000167
 ----------------------------------------

 dE(predicted):    -0.30531E-04, dE(actual):    -0.52748E-04, Trust radius:    0.128144, all in a.u.
 
----------------------------------------------------------------------
Geometry Convergence after Step  11       (Hartree/Angstrom,Angstrom)
----------------------------------------------------------------------
current energy                               -4.11887883 Hartree
energy change                      -0.00005275     0.00020000    T
constrained gradient max            0.00275366     0.00010000    F
constrained gradient rms            0.00070236     0.00006667    F
gradient max                        0.00275366
gradient rms                        0.00070236
cart. step max                      0.00947871     0.01000000    T
cart. step rms                      0.00286219     0.00666667    T
 

--------
Geometry
--------
Formula: C8H9F3
Atoms
  Index Symbol   x (angstrom)   y (angstrom)   z (angstrom)
      1      C    -1.52516077     1.02467358    -0.03336875
      2      C    -2.25089189     1.08769750     1.30516270
      3      C    -1.28788195     0.38553285     2.34687243
      4      C    -1.30543487    -1.11226470     1.88485336
      5      C    -2.26302042    -1.08250420     0.63283169
      6      C    -3.31166956    -0.03306208     1.10281214
      7      C    -1.53553987    -0.26012446    -0.43230345
      8      C    -0.82107758    -0.85307780    -1.59653302
      9      F    -1.67475958    -1.55715116    -2.42424352
     10      F    -0.19273811     0.08533418    -2.37539172
     11      F     0.14617954    -1.75987728    -1.19540951
     12      H    -0.99860560     1.84929679    -0.50358367
     13      H    -2.60670316     2.07351887     1.61329900
     14      H    -1.69065598     0.49792141     3.35994135
     15      H    -0.28584385     0.82419174     2.33027483
     16      H    -1.72777910    -1.76220820     2.65945314
     17      H    -0.31342907    -1.49090733     1.62530956
     18      H    -2.63252123    -2.05939911     0.31552167
     19      H    -4.04690055     0.21062662     0.32892667
     20      H    -3.82239640    -0.31969721     2.03006508

Total System Charge              0.00000

 *** GO1_GOStep12 ***

 Energy gradients wrt nuclear displacements
 ==========================================

     Atom      Cartesian (a.u./angstrom)
                 X         Y         Z
 ----------------------------------------
     1 C     0.000301 -0.000186 -0.000494
     2 C    -0.000641  0.000134  0.000379
     3 C     0.000263 -0.000026  0.000310
     4 C    -0.000211 -0.000262 -0.000315
     5 C     0.000514  0.000455 -0.000735
     6 C     0.000785  0.000091 -0.000139
     7 C    -0.000940 -0.000136  0.001080
     8 C     0.000454  0.000015 -0.000701
     9 F    -0.000153  0.000268 -0.000040
    10 F    -0.000201  0.000239  0.000134
    11 F     0.000010 -0.000118  0.000009
    12 H    -0.000224  0.000149  0.000144
    13 H     0.000115 -0.000021  0.000093
    14 H     0.000085 -0.000173  0.000078
    15 H    -0.000015 -0.000052 -0.000004
    16 H     0.000026 -0.000110 -0.000063
    17 H     0.000039  0.000011 -0.000045
    18 H    -0.000055 -0.000132  0.000104
    19 H    -0.000083 -0.000023  0.000133
    20 H    -0.000067 -0.000123  0.000073
 ----------------------------------------

 dE(predicted):    -0.86589E-05, dE(actual):    -0.93055E-05, Trust radius:    0.128144, all in a.u.
 
----------------------------------------------------------------------
Geometry Convergence after Step  12       (Hartree/Angstrom,Angstrom)
----------------------------------------------------------------------
current energy                               -4.11888814 Hartree
energy change                      -0.00000931     0.00020000    T
constrained gradient max            0.00108714     0.00010000    F
constrained gradient rms            0.00031482     0.00006667    F
gradient max                        0.00108714
gradient rms                        0.00031482
cart. step max                      0.01612844     0.01000000    F
cart. step rms                      0.00441181     0.00666667    T
 

--------
Geometry
--------
Formula: C8H9F3
Atoms
  Index Symbol   x (angstrom)   y (angstrom)   z (angstrom)
      1      C    -1.52413443     1.02522156    -0.03271766
      2      C    -2.25003872     1.08775593     1.30555026
      3      C    -1.28757343     0.38369539     2.34634006
      4      C    -1.30705913    -1.11359693     1.88347621
      5      C    -2.26549567    -1.08159967     0.63197093
      6      C    -3.31310886    -0.03116381     1.10286989
      7      C    -1.53632204    -0.25924689    -0.43289792
      8      C    -0.82063706    -0.85274065    -1.59535064
      9      F    -1.66905300    -1.57327960    -2.41387279
     10      F    -0.20578724     0.08658421    -2.38398686
     11      F     0.15882041    -1.74544722    -1.19217553
     12      H    -0.99458976     1.84899926    -0.50105583
     13      H    -2.60436868     2.07373306     1.61493745
     14      H    -1.68993080     0.49606244     3.35951088
     15      H    -0.28497677     0.82113479     2.32954458
     16      H    -1.72937730    -1.76366736     2.65791458
     17      H    -0.31576452    -1.49315710     1.62245120
     18      H    -2.63590754    -2.05746472     0.31288635
     19      H    -4.04776144     0.21426839     0.32899410
     20      H    -3.82376404    -0.31757108     2.03010073

Total System Charge              0.00000

 *** GO1_GOStep13 ***

 Energy gradients wrt nuclear displacements
 ==========================================

     Atom      Cartesian (a.u./angstrom)
                 X         Y         Z
 ----------------------------------------
     1 C     0.000330  0.000123 -0.000435
     2 C    -0.000410 -0.000160  0.000161
     3 C     0.000233 -0.000067  0.000249
     4 C    -0.000053 -0.000161 -0.000108
     5 C     0.000263  0.000265 -0.000382
     6 C    -0.000072  0.000037  0.000208
     7 C    -0.000266 -0.000231  0.000343
     8 C    -0.000007  0.000314 -0.000133
     9 F     0.000042  0.000057  0.000059
    10 F    -0.000071  0.000055  0.000121
    11 F    -0.000167  0.000138 -0.000242
    12 H    -0.000085  0.000079  0.000203
    13 H     0.000089 -0.000056  0.000125
    14 H     0.000071 -0.000164 -0.000011
    15 H     0.000021 -0.000062 -0.000040
    16 H     0.000065 -0.000071 -0.000091
    17 H     0.000070 -0.000004 -0.000119
    18 H     0.000003  0.000005 -0.000009
    19 H    -0.000049  0.000005  0.000069
    20 H    -0.000008 -0.000101  0.000032
 ----------------------------------------

 dE(predicted):    -0.32838E-05, dE(actual):    -0.22718E-05, Trust radius:    0.128144, all in a.u.
 
----------------------------------------------------------------------
Geometry Convergence after Step  13       (Hartree/Angstrom,Angstrom)
----------------------------------------------------------------------
current energy                               -4.11889041 Hartree
energy change                      -0.00000227     0.00020000    T
constrained gradient max            0.00049208     0.00010000    F
constrained gradient rms            0.00015474     0.00006667    F
gradient max                        0.00049208
gradient rms                        0.00015474
cart. step max                      0.00215059     0.01000000    T
cart. step rms                      0.00077217     0.00666667    T
 

--------
Geometry
--------
Formula: C8H9F3
Atoms
  Index Symbol   x (angstrom)   y (angstrom)   z (angstrom)
      1      C    -1.52388429     1.02518876    -0.03246865
      2      C    -2.24972302     1.08780692     1.30558571
      3      C    -1.28803816     0.38391777     2.34695646
      4      C    -1.30679700    -1.11340824     1.88439334
      5      C    -2.26460945    -1.08194299     0.63236570
      6      C    -3.31255764    -0.03142282     1.10247711
      7      C    -1.53527880    -0.25927207    -0.43275494
      8      C    -0.82105270    -0.85278975    -1.59597078
      9      F    -1.67116780    -1.57112901    -2.41479681
     10      F    -0.20564042     0.08631762    -2.38457924
     11      F     0.15759428    -1.74697567    -1.19407886
     12      H    -0.99470057     1.84875895    -0.50165423
     13      H    -2.60468433     2.07364318     1.61476299
     14      H    -1.69123526     0.49639255     3.35980015
     15      H    -0.28545904     0.82145988     2.33108843
     16      H    -1.72938317    -1.76343781     2.65873337
     17      H    -0.31533374    -1.49294976     1.62399570
     18      H    -2.63460873    -2.05785220     0.31298191
     19      H    -4.04670758     0.21379878     0.32808977
     20      H    -3.82356259    -0.31758411     2.02956289

Total System Charge              0.00000

 *** GO1_GOStep14 ***

 Energy gradients wrt nuclear displacements
 ==========================================

     Atom      Cartesian (a.u./angstrom)
                 X         Y         Z
 ----------------------------------------
     1 C    -0.000031  0.000125 -0.000072
     2 C    -0.000195 -0.000007  0.000177
     3 C     0.000085 -0.000124  0.000149
     4 C     0.000017 -0.000093 -0.000008
     5 C     0.000132 -0.000020 -0.000189
     6 C    -0.000064  0.000077  0.000159
     7 C     0.000050 -0.000037 -0.000076
     8 C    -0.000068  0.000137  0.000034
     9 F    -0.000040  0.000190 -0.000081
    10 F    -0.000123  0.000049  0.000013
    11 F    -0.000030  0.000123 -0.000173
    12 H    -0.000039  0.000011  0.000108
    13 H     0.000043 -0.000047  0.000143
    14 H     0.000065 -0.000148  0.000003
    15 H     0.000024 -0.000071 -0.000019
    16 H     0.000069 -0.000074 -0.000081
    17 H     0.000043 -0.000041 -0.000111
    18 H     0.000027  0.000018 -0.000058
    19 H    -0.000009  0.000009  0.000058
    20 H     0.000046 -0.000081  0.000024
 ----------------------------------------

 dE(predicted):    -0.51370E-06, dE(actual):    -0.16121E-05, Trust radius:    0.128144, all in a.u.
 
----------------------------------------------------------------------
Geometry Convergence after Step  14       (Hartree/Angstrom,Angstrom)
----------------------------------------------------------------------
current energy                               -4.11889202 Hartree
energy change                      -0.00000161     0.00020000    T
constrained gradient max            0.00020226     0.00010000    F
constrained gradient rms            0.00006206     0.00006667    T
gradient max                        0.00020226
gradient rms                        0.00006206
cart. step max                      0.00084089     0.01000000    T
cart. step rms                      0.00023432     0.00666667    T
 

--------
Geometry
--------
Formula: C8H9F3
Atoms
  Index Symbol   x (angstrom)   y (angstrom)   z (angstrom)
      1      C    -1.52376872     1.02504212    -0.03249269
      2      C    -2.24948318     1.08777878     1.30546693
      3      C    -1.28798207     0.38382766     2.34686748
      4      C    -1.30690497    -1.11352997     1.88442057
      5      C    -2.26481983    -1.08206241     0.63247243
      6      C    -3.31250033    -0.03136060     1.10247271
      7      C    -1.53547770    -0.25938338    -0.43275542
      8      C    -0.82102279    -0.85264299    -1.59599584
      9      F    -1.67076833    -1.57168141    -2.41460570
     10      F    -0.20626915     0.08685990    -2.38475007
     11      F     0.15820351    -1.74613478    -1.19388209
     12      H    -0.99472889     1.84862758    -0.50188016
     13      H    -2.60450483     2.07361593     1.61458795
     14      H    -1.69124553     0.49643093     3.35969207
     15      H    -0.28532260     0.82120512     2.33117947
     16      H    -1.72955738    -1.76350927     2.65878555
     17      H    -0.31550314    -1.49321910     1.62403699
     18      H    -2.63501025    -2.05791297     0.31310026
     19      H    -4.04667130     0.21388423     0.32812694
     20      H    -3.82349252    -0.31731536     2.02964261

Total System Charge              0.00000

 *** GO1_GOStep15 ***

 Energy gradients wrt nuclear displacements
 ==========================================

     Atom      Cartesian (a.u./angstrom)
                 X         Y         Z
 ----------------------------------------
     1 C    -0.000003  0.000057 -0.000021
     2 C    -0.000080 -0.000029  0.000104
     3 C     0.000066 -0.000120  0.000066
     4 C     0.000047 -0.000062 -0.000015
     5 C     0.000048 -0.000074 -0.000100
     6 C    -0.000018  0.000051  0.000090
     7 C    -0.000026  0.000032  0.000009
     8 C    -0.000025  0.000144 -0.000033
     9 F    -0.000095  0.000160 -0.000080
    10 F    -0.000099  0.000147 -0.000008
    11 F    -0.000029  0.000109 -0.000105
    12 H    -0.000043  0.000055  0.000084
    13 H     0.000021 -0.000050  0.000134
    14 H     0.000062 -0.000137  0.000020
    15 H     0.000027 -0.000072  0.000003
    16 H     0.000059 -0.000092 -0.000085
    17 H     0.000036 -0.000044 -0.000100
    18 H     0.000010  0.000010 -0.000062
    19 H    -0.000005 -0.000000  0.000066
    20 H     0.000047 -0.000084  0.000033
 ----------------------------------------
 
---------------------------------------------------------
Geometry Convergence after Step  15       ** CONVERGED **
---------------------------------------------------------
current energy                               -4.11889166 Hartree
energy change                       0.00000036     0.00020000    T
constrained gradient max            0.00008750     0.00010000    T
constrained gradient rms            0.00002870     0.00006667    T
gradient max                        0.00008750
gradient rms                        0.00002870
cart. step max                      0.00017485     0.01000000    T
cart. step rms                      0.00006458     0.00666667    T
 
Geometry optimization converged

Optimized geometry:

--------
Geometry
--------
Formula: C8H9F3
Atoms
  Index Symbol   x (angstrom)   y (angstrom)   z (angstrom)
      1      C    -1.52376872     1.02504212    -0.03249269
      2      C    -2.24948318     1.08777878     1.30546693
      3      C    -1.28798207     0.38382766     2.34686748
      4      C    -1.30690497    -1.11352997     1.88442057
      5      C    -2.26481983    -1.08206241     0.63247243
      6      C    -3.31250033    -0.03136060     1.10247271
      7      C    -1.53547770    -0.25938338    -0.43275542
      8      C    -0.82102279    -0.85264299    -1.59599584
      9      F    -1.67076833    -1.57168141    -2.41460570
     10      F    -0.20626915     0.08685990    -2.38475007
     11      F     0.15820351    -1.74613478    -1.19388209
     12      H    -0.99472889     1.84862758    -0.50188016
     13      H    -2.60450483     2.07361593     1.61458795
     14      H    -1.69124553     0.49643093     3.35969207
     15      H    -0.28532260     0.82120512     2.33117947
     16      H    -1.72955738    -1.76350927     2.65878555
     17      H    -0.31550314    -1.49321910     1.62403699
     18      H    -2.63501025    -2.05791297     0.31310026
     19      H    -4.04667130     0.21388423     0.32812694
     20      H    -3.82349252    -0.31731536     2.02964261

Total System Charge              0.00000

Performing a single point calculation on the final geometry ...

 *** adf ***



 ===========================
 A T T A C H E D   F I L E S
 ===========================
  
 Restart/tmp/amstmp_c5_fragB_opt_kid0.990634430/GO1_GOStep15.rkf*** GO1_GOStep15 ***



 ===============================
 M O D E L   P A R A M E T E R S
 ===============================
  
 DENSITY FUNCTIONAL POTENTIAL (scf)
    LDA:                               Exchange only                           == Not Default ==
    Gradient Corrections:              Becke88 LYP                             == Not Default ==

 SPIN  (restricted / unrestr.)
    Molecule:                          Restricted                               
    Fragments:                         Restricted                               

 OTHER ASPECTS
    Relativistic Corrections:          scalar (ZORA,MAPA)                       

    Nuclear Charge Density Model:      Point Charge Nuclei                      
    Core Treatment:                    Frozen Orbital(s)                        

    Hyperfine or Zeeman Interaction:   ---                                      

 Settings for Grimme D3 dispersion correction

      damping                        BJ
      s6                          1.000
      s8                          2.700
      a1                          0.430
      a2                          4.236

 Other (technical) parameters

      alpha                      14.000
      version                         4
 



 ===============
 G E O M E T R Y  ***  3D  Molecule  ***
 ===============
  

 ATOMS
 =====                            X Y Z                    CHARGE
                                (Angstrom)             Nucl     +Core       At.Mass
                       --------------------------    ----------------       -------
    1  C              -1.5238    1.0250   -0.0325      6.00      6.00       12.0000
    2  C              -2.2495    1.0878    1.3055      6.00      6.00       12.0000
    3  C              -1.2880    0.3838    2.3469      6.00      6.00       12.0000
    4  C              -1.3069   -1.1135    1.8844      6.00      6.00       12.0000
    5  C              -2.2648   -1.0821    0.6325      6.00      6.00       12.0000
    6  C              -3.3125   -0.0314    1.1025      6.00      6.00       12.0000
    7  C              -1.5355   -0.2594   -0.4328      6.00      6.00       12.0000
    8  C              -0.8210   -0.8526   -1.5960      6.00      6.00       12.0000
    9  F              -1.6708   -1.5717   -2.4146      9.00      9.00       18.9984
   10  F              -0.2063    0.0869   -2.3848      9.00      9.00       18.9984
   11  F               0.1582   -1.7461   -1.1939      9.00      9.00       18.9984
   12  H              -0.9947    1.8486   -0.5019      1.00      1.00        1.0078
   13  H              -2.6045    2.0736    1.6146      1.00      1.00        1.0078
   14  H              -1.6912    0.4964    3.3597      1.00      1.00        1.0078
   15  H              -0.2853    0.8212    2.3312      1.00      1.00        1.0078
   16  H              -1.7296   -1.7635    2.6588      1.00      1.00        1.0078
   17  H              -0.3155   -1.4932    1.6240      1.00      1.00        1.0078
   18  H              -2.6350   -2.0579    0.3131      1.00      1.00        1.0078
   19  H              -4.0467    0.2139    0.3281      1.00      1.00        1.0078
   20  H              -3.8235   -0.3173    2.0296      1.00      1.00        1.0078


 FRAGMENTS
 =========                                     Atoms in this Fragment     Cart. coord.s (Angstrom)
                                               -------------------------------------------------------
    1  C                                                 1  C           -1.5238    1.0250   -0.0325
    2  C                                                 2  C           -2.2495    1.0878    1.3055
    3  C                                                 3  C           -1.2880    0.3838    2.3469
    4  C                                                 4  C           -1.3069   -1.1135    1.8844
    5  C                                                 5  C           -2.2648   -1.0821    0.6325
    6  C                                                 6  C           -3.3125   -0.0314    1.1025
    7  C                                                 7  C           -1.5355   -0.2594   -0.4328
    8  C                                                 8  C           -0.8210   -0.8526   -1.5960
    9  F                                                 9  F           -1.6708   -1.5717   -2.4146
   10  F                                                10  F           -0.2063    0.0869   -2.3848
   11  F                                                11  F            0.1582   -1.7461   -1.1939
   12  H                                                12  H           -0.9947    1.8486   -0.5019
   13  H                                                13  H           -2.6045    2.0736    1.6146
   14  H                                                14  H           -1.6912    0.4964    3.3597
   15  H                                                15  H           -0.2853    0.8212    2.3312
   16  H                                                16  H           -1.7296   -1.7635    2.6588
   17  H                                                17  H           -0.3155   -1.4932    1.6240
   18  H                                                18  H           -2.6350   -2.0579    0.3131
   19  H                                                19  H           -4.0467    0.2139    0.3281
   20  H                                                20  H           -3.8235   -0.3173    2.0296



 =====================================
 S Y M M E T R Y ,   E L E C T R O N S
 =====================================
  
 Symmetry: NOSYM

 Irreducible Representations, including subspecies
 -------------------------------------------------
 A


 Configuration of Valence Electrons
 ==================================
 ( determined in the SCF procedure )

 Total:   84

 Net Charge: 0 (Nuclei minus Electrons)

 Aufbau principle for MO occupations will be applied through SCF cycle no.     100
 Thereafter, the program will assign electrons to MOs that are spatially
 similar to the occupied MOs in a "reference" cycle ("KeepOrbitals").
 The reference cycle is always the PREVIOUS cycle: it will evolve with
 the SCF procedure.
 ***************************************************************************************************



                                      ****************************************
                                      *  B U I L D : (Fragments, Functions)  *
                                      ****************************************
  



 =======
 S F O s  ***  (Symmetrized Fragment Orbitals)  ***
 =======
  
 SFOs are linear combinations of (valence) Fragment Orbitals (FOs), such that the SFOs transform as the
 irreducible representations of the (molecular) symmetry group. Each SFO is therefore characterized by
 an irrep of the molecule and by a few (or only one) generating FOs.
 The SFOs constitute a symmetry-adapted basis for the Fock matrix. The MO eigenvector coefficients in
 this basis provide a direct interpretation of the MOs in terms of Frontier Orbital Theory.

 The SFOs are combined with auxiliary Core Functions (CFs) to ensure orthogonalization on the (frozen)
 Core Orbitals (COs). The Core-orthogonalized SFOs (CSFOs) constitute the true Fock basis.

 The FOs, and hence also the (C)SFOs are combinations of the elementary basis functions (BAS). The basis
 functions that participate in the description of the SFOs depend on the irrep. The indices of the
 involved functions are printed below for each irrep.
 (The complete list of primitive basis functions is printed in another section)

 Total nr. of (C)SFOs (summation over all irreps) :   385

 NOTE: a (C)SFO that is defined as a combination of more than one FO is usually NOT normalized.



                                       === A ===
 Nr. of SFOs :  385
 Cartesian basis functions that participate in this irrep (total number =   438) :
      1     2     3     4     5     6     9    12     7    10
     13     8    11    14    15    16    17    18    19    20
     21    22    23    24    25    26    27    28    29    30
     31    32    33    34    35    36    39    42    37    40
     43    38    41    44    45    46    47    48    49    50
     51    52    53    54    55    56    57    58    59    60
     61    62    63    64    65    66    69    72    67    70
     73    68    71    74    75    76    77    78    79    80
     81    82    83    84    85    86    87    88    89    90
     91    92    93    94    95    96    99   102    97   100
    103    98   101   104   105   106   107   108   109   110
    111   112   113   114   115   116   117   118   119   120
    121   122   123   124   125   126   129   132   127   130
    133   128   131   134   135   136   137   138   139   140
    141   142   143   144   145   146   147   148   149   150
    151   152   153   154   155   156   159   162   157   160
    163   158   161   164   165   166   167   168   169   170
    171   172   173   174   175   176   177   178   179   180
    181   182   183   184   185   186   189   192   187   190
    193   188   191   194   195   196   197   198   199   200
    201   202   203   204   205   206   207   208   209   210
    211   212   213   214   215   216   219   222   217   220
    223   218   221   224   225   226   227   228   229   230
    231   232   233   234   235   236   237   238   239   240
    241   242   243   244   245   246   249   252   247   250
    253   248   251   254   255   256   257   258   259   260
    261   262   263   264   265   266   267   268   269   270
    271   272   273   274   275   276   279   282   277   280
    283   278   281   284   285   286   287   288   289   290
    291   292   293   294   295   296   297   298   299   300
    301   302   303   304   305   306   309   312   307   310
    313   308   311   314   315   316   317   318   319   320
    321   322   323   324   325   326   327   328   329   330
    331   332   333   334   335   336   337   338   339   340
    341   342   343   344   345   346   347   348   349   350
    351   352   353   354   355   356   357   358   359   360
    361   362   363   364   365   366   367   368   369   370
    371   372   373   374   375   376   377   378   379   380
    381   382   383   384   385   386   387   388   389   390
    391   392   393   394   395   396   397   398   399   400
    401   402   403   404   405   406   407   408   409   410
    411   412   413   414   415   416   417   418   419   420
    421   422   423   424   425   426   427   428   429   430
    431   432   433   434   435   436   437   438

    SFO  (index         Fragment          Generating    Expansion in Fragment Orbitals
  indx  incl.CFs)   Occup   Orb.Energy   FragmentType  Coeff.   Orbital     on Fragment
 --------------------------------------------------------------------------------------
     1       1      2.000     -10.066 au  C             1.00      1 S               1
                        (    -273.921 eV)
     2       2      2.000      -0.501 au  C             1.00      2 S               1
                        (     -13.620 eV)
     3       3       --         0.373 au  C             1.00      3 S               1
                        (      10.158 eV)
     4       4       --         5.405 au  C             1.00      4 S               1
                        (     147.073 eV)
     5       5       --        49.848 au  C             1.00      5 S               1
                        (    1356.422 eV)
     6       6      0.667      -0.193 au  C             1.00      1 P:x             1
                        (      -5.239 eV)
     7       7       --         0.169 au  C             1.00      2 P:x             1
                        (       4.589 eV)
     8       8       --         2.013 au  C             1.00      3 P:x             1
                        (      54.789 eV)
     9       9      0.667      -0.193 au  C             1.00      1 P:y             1
                        (      -5.239 eV)
    10      10       --         0.169 au  C             1.00      2 P:y             1
                        (       4.589 eV)
    11      11       --         2.013 au  C             1.00      3 P:y             1
                        (      54.789 eV)
    12      12      0.667      -0.193 au  C             1.00      1 P:z             1
                        (      -5.239 eV)
    13      13       --         0.169 au  C             1.00      2 P:z             1
                        (       4.589 eV)
    14      14       --         2.013 au  C             1.00      3 P:z             1
                        (      54.789 eV)
    15      15       --         1.243 au  C             1.00      1 D:z2            1
                        (      33.824 eV)
    16      16       --         1.243 au  C             1.00      1 D:x2-y2         1
                        (      33.824 eV)
    17      17       --         1.243 au  C             1.00      1 D:xy            1
                        (      33.824 eV)
    18      18       --         1.243 au  C             1.00      1 D:xz            1
                        (      33.824 eV)
    19      19       --         1.243 au  C             1.00      1 D:yz            1
                        (      33.824 eV)
    20      20       --         4.016 au  C             1.00      1 F:z3            1
                        (     109.271 eV)
    21      21       --         4.016 au  C             1.00      1 F:z             1
                        (     109.271 eV)
    22      22       --         4.016 au  C             1.00      1 F:xyz           1
                        (     109.271 eV)
    23      23       --         4.016 au  C             1.00      1 F:z2x           1
                        (     109.271 eV)
    24      24       --         4.016 au  C             1.00      1 F:z2y           1
                        (     109.271 eV)
    25      25       --         4.016 au  C             1.00      1 F:x             1
                        (     109.271 eV)
    26      26       --         4.016 au  C             1.00      1 F:y             1
                        (     109.271 eV)
    27      27      2.000     -10.066 au  C             1.00      1 S               2
                        (    -273.921 eV)
    28      28      2.000      -0.501 au  C             1.00      2 S               2
                        (     -13.620 eV)
    29      29       --         0.373 au  C             1.00      3 S               2
                        (      10.158 eV)
    30      30       --         5.405 au  C             1.00      4 S               2
                        (     147.073 eV)
    31      31       --        49.848 au  C             1.00      5 S               2
                        (    1356.422 eV)
    32      32      0.667      -0.193 au  C             1.00      1 P:x             2
                        (      -5.239 eV)
    33      33       --         0.169 au  C             1.00      2 P:x             2
                        (       4.589 eV)
    34      34       --         2.013 au  C             1.00      3 P:x             2
                        (      54.789 eV)
    35      35      0.667      -0.193 au  C             1.00      1 P:y             2
                        (      -5.239 eV)
    36      36       --         0.169 au  C             1.00      2 P:y             2
                        (       4.589 eV)
    37      37       --         2.013 au  C             1.00      3 P:y             2
                        (      54.789 eV)
    38      38      0.667      -0.193 au  C             1.00      1 P:z             2
                        (      -5.239 eV)
    39      39       --         0.169 au  C             1.00      2 P:z             2
                        (       4.589 eV)
    40      40       --         2.013 au  C             1.00      3 P:z             2
                        (      54.789 eV)
    41      41       --         1.243 au  C             1.00      1 D:z2            2
                        (      33.824 eV)
    42      42       --         1.243 au  C             1.00      1 D:x2-y2         2
                        (      33.824 eV)
    43      43       --         1.243 au  C             1.00      1 D:xy            2
                        (      33.824 eV)
    44      44       --         1.243 au  C             1.00      1 D:xz            2
                        (      33.824 eV)
    45      45       --         1.243 au  C             1.00      1 D:yz            2
                        (      33.824 eV)
    46      46       --         4.016 au  C             1.00      1 F:z3            2
                        (     109.271 eV)
    47      47       --         4.016 au  C             1.00      1 F:z             2
                        (     109.271 eV)
    48      48       --         4.016 au  C             1.00      1 F:xyz           2
                        (     109.271 eV)
    49      49       --         4.016 au  C             1.00      1 F:z2x           2
                        (     109.271 eV)
    50      50       --         4.016 au  C             1.00      1 F:z2y           2
                        (     109.271 eV)
    51      51       --         4.016 au  C             1.00      1 F:x             2
                        (     109.271 eV)
    52      52       --         4.016 au  C             1.00      1 F:y             2
                        (     109.271 eV)
    53      53      2.000     -10.066 au  C             1.00      1 S               3
                        (    -273.921 eV)
    54      54      2.000      -0.501 au  C             1.00      2 S               3
                        (     -13.620 eV)
    55      55       --         0.373 au  C             1.00      3 S               3
                        (      10.158 eV)
    56      56       --         5.405 au  C             1.00      4 S               3
                        (     147.073 eV)
    57      57       --        49.848 au  C             1.00      5 S               3
                        (    1356.422 eV)
    58      58      0.667      -0.193 au  C             1.00      1 P:x             3
                        (      -5.239 eV)
    59      59       --         0.169 au  C             1.00      2 P:x             3
                        (       4.589 eV)
    60      60       --         2.013 au  C             1.00      3 P:x             3
                        (      54.789 eV)
    61      61      0.667      -0.193 au  C             1.00      1 P:y             3
                        (      -5.239 eV)
    62      62       --         0.169 au  C             1.00      2 P:y             3
                        (       4.589 eV)
    63      63       --         2.013 au  C             1.00      3 P:y             3
                        (      54.789 eV)
    64      64      0.667      -0.193 au  C             1.00      1 P:z             3
                        (      -5.239 eV)
    65      65       --         0.169 au  C             1.00      2 P:z             3
                        (       4.589 eV)
    66      66       --         2.013 au  C             1.00      3 P:z             3
                        (      54.789 eV)
    67      67       --         1.243 au  C             1.00      1 D:z2            3
                        (      33.824 eV)
    68      68       --         1.243 au  C             1.00      1 D:x2-y2         3
                        (      33.824 eV)
    69      69       --         1.243 au  C             1.00      1 D:xy            3
                        (      33.824 eV)
    70      70       --         1.243 au  C             1.00      1 D:xz            3
                        (      33.824 eV)
    71      71       --         1.243 au  C             1.00      1 D:yz            3
                        (      33.824 eV)
    72      72       --         4.016 au  C             1.00      1 F:z3            3
                        (     109.271 eV)
    73      73       --         4.016 au  C             1.00      1 F:z             3
                        (     109.271 eV)
    74      74       --         4.016 au  C             1.00      1 F:xyz           3
                        (     109.271 eV)
    75      75       --         4.016 au  C             1.00      1 F:z2x           3
                        (     109.271 eV)
    76      76       --         4.016 au  C             1.00      1 F:z2y           3
                        (     109.271 eV)
    77      77       --         4.016 au  C             1.00      1 F:x             3
                        (     109.271 eV)
    78      78       --         4.016 au  C             1.00      1 F:y             3
                        (     109.271 eV)
    79      79      2.000     -10.066 au  C             1.00      1 S               4
                        (    -273.921 eV)
    80      80      2.000      -0.501 au  C             1.00      2 S               4
                        (     -13.620 eV)
    81      81       --         0.373 au  C             1.00      3 S               4
                        (      10.158 eV)
    82      82       --         5.405 au  C             1.00      4 S               4
                        (     147.073 eV)
    83      83       --        49.848 au  C             1.00      5 S               4
                        (    1356.422 eV)
    84      84      0.667      -0.193 au  C             1.00      1 P:x             4
                        (      -5.239 eV)
    85      85       --         0.169 au  C             1.00      2 P:x             4
                        (       4.589 eV)
    86      86       --         2.013 au  C             1.00      3 P:x             4
                        (      54.789 eV)
    87      87      0.667      -0.193 au  C             1.00      1 P:y             4
                        (      -5.239 eV)
    88      88       --         0.169 au  C             1.00      2 P:y             4
                        (       4.589 eV)
    89      89       --         2.013 au  C             1.00      3 P:y             4
                        (      54.789 eV)
    90      90      0.667      -0.193 au  C             1.00      1 P:z             4
                        (      -5.239 eV)
    91      91       --         0.169 au  C             1.00      2 P:z             4
                        (       4.589 eV)
    92      92       --         2.013 au  C             1.00      3 P:z             4
                        (      54.789 eV)
    93      93       --         1.243 au  C             1.00      1 D:z2            4
                        (      33.824 eV)
    94      94       --         1.243 au  C             1.00      1 D:x2-y2         4
                        (      33.824 eV)
    95      95       --         1.243 au  C             1.00      1 D:xy            4
                        (      33.824 eV)
    96      96       --         1.243 au  C             1.00      1 D:xz            4
                        (      33.824 eV)
    97      97       --         1.243 au  C             1.00      1 D:yz            4
                        (      33.824 eV)
    98      98       --         4.016 au  C             1.00      1 F:z3            4
                        (     109.271 eV)
    99      99       --         4.016 au  C             1.00      1 F:z             4
                        (     109.271 eV)
   100     100       --         4.016 au  C             1.00      1 F:xyz           4
                        (     109.271 eV)
   101     101       --         4.016 au  C             1.00      1 F:z2x           4
                        (     109.271 eV)
   102     102       --         4.016 au  C             1.00      1 F:z2y           4
                        (     109.271 eV)
   103     103       --         4.016 au  C             1.00      1 F:x             4
                        (     109.271 eV)
   104     104       --         4.016 au  C             1.00      1 F:y             4
                        (     109.271 eV)
   105     105      2.000     -10.066 au  C             1.00      1 S               5
                        (    -273.921 eV)
   106     106      2.000      -0.501 au  C             1.00      2 S               5
                        (     -13.620 eV)
   107     107       --         0.373 au  C             1.00      3 S               5
                        (      10.158 eV)
   108     108       --         5.405 au  C             1.00      4 S               5
                        (     147.073 eV)
[...]
                                    3.82%     2 S             -29.785  2.00    11 F
                                    3.26%     2 S             -13.620  2.00     8 C
                                    3.13%     1 P:z            -5.239  0.67     7 C
                                    2.98%     1 P:x            -5.239  0.67     7 C
                                    2.42%     1 P:x            -5.239  0.67     4 C
                                   -2.37%     2 P:x             4.589  0.00     4 C
                                    2.31%     1 S              -6.532  1.00    17 H
                                    2.23%     1 P:y           -11.127  1.67     9 F
                                    2.22%     1 P:y            -5.239  0.67     8 C
                                    1.54%     1 S              -6.532  1.00    13 H
                                    1.31%     1 P:z            -5.239  0.67     5 C
                                    1.30%     1 P:z            -5.239  0.67     4 C
                                   -1.22%     2 S               2.394  0.00    13 H
                                   -1.13%     2 P:z             4.589  0.00     4 C
                                   -1.07%     3 S              10.158  0.00     8 C
       3.699  0.00    61 A         43.62%     2 S             -13.620  2.00     8 C
                                   22.86%     1 P:z            -5.239  0.67     8 C
                                   11.33%     3 S               0.624  0.00     9 F
                                   -9.80%     3 S              10.158  0.00     8 C
                                    8.32%     1 P:x           -11.127  1.67     9 F
                                    6.73%     1 P:y           -11.127  1.67    10 F
                                   -6.41%     2 P:z             4.589  0.00     8 C
                                    4.35%     1 P:y           -11.127  1.67     9 F
                                    4.18%     1 P:y            -5.239  0.67     8 C
                                   -4.05%     4 S              42.880  0.00     9 F
                                    3.78%     1 P:x            -5.239  0.67     6 C
                                    3.65%     1 P:z           -11.127  1.67     9 F
                                   -3.54%     2 P:x            11.654  0.00     9 F
                                    3.31%     2 S             -29.785  2.00     9 F
                                    2.85%     3 S               0.624  0.00    11 F
                                   -2.84%     2 P:y             4.589  0.00     8 C
                                   -2.84%     2 P:z            11.654  0.00     9 F
                                    2.56%     1 P:x           -11.127  1.67    11 F
                                    2.40%     1 P:z            -5.239  0.67     5 C
                                    2.29%     1 P:x           -11.127  1.67    10 F
                                   -2.19%     2 P:y            11.654  0.00     9 F
                                    2.12%     1 S              -6.532  1.00    19 H
                                    2.06%     1 P:x            -5.239  0.67     5 C
                                    2.01%     1 P:z           -11.127  1.67    11 F
                                   -1.95%     2 P:x            11.654  0.00    11 F
                                   -1.71%     2 P:y            11.654  0.00    10 F
                                    1.48%     1 P:x            -5.239  0.67     7 C
                                    1.24%     1 P:y           -11.127  1.67    11 F
                                    1.24%     2 P:z             4.589  0.00     7 C
                                   -1.18%     3 S              10.158  0.00     7 C
                                   -1.16%     2 S               2.394  0.00    19 H
                                    1.15%     2 S             -29.785  2.00    10 F
                                    1.14%     1 P:z           -11.127  1.67    10 F
                                   -1.14%     4 S              42.880  0.00    10 F
                                   -1.13%     2 P:y             4.589  0.00     2 C
                                   -1.10%     4 S              42.880  0.00    11 F
                                    1.06%     2 S             -13.620  2.00     7 C

 Energy gradients wrt nuclear displacements
 ==========================================

     Atom      Cartesian (a.u./angstrom)
                 X         Y         Z
 ----------------------------------------
     1 C    -0.000003  0.000057 -0.000021
     2 C    -0.000080 -0.000029  0.000104
     3 C     0.000066 -0.000120  0.000066
     4 C     0.000047 -0.000062 -0.000015
     5 C     0.000048 -0.000074 -0.000100
     6 C    -0.000018  0.000051  0.000090
     7 C    -0.000026  0.000032  0.000009
     8 C    -0.000025  0.000144 -0.000033
     9 F    -0.000095  0.000160 -0.000080
    10 F    -0.000099  0.000147 -0.000008
    11 F    -0.000029  0.000109 -0.000105
    12 H    -0.000043  0.000055  0.000084
    13 H     0.000021 -0.000050  0.000134
    14 H     0.000062 -0.000137  0.000020
    15 H     0.000027 -0.000072  0.000003
    16 H     0.000059 -0.000092 -0.000085
    17 H     0.000036 -0.000044 -0.000100
    18 H     0.000010  0.000010 -0.000062
    19 H    -0.000005 -0.000000  0.000066
    20 H     0.000047 -0.000084  0.000033
 ----------------------------------------



 =======================================================================
 Electrostatic potential at the Nuclei due to electrons and other nuclei
 =======================================================================
  
         Atom                  Potential
         ----                  ---------
     1)   C                  14.77118933
     2)   C                  14.76137113
     3)   C                  14.77624467
     4)   C                  14.77843117
     5)   C                  14.76031814
     6)   C                  14.77712586
     7)   C                  14.76522620
     8)   C                  14.53583228
     9)   F                  26.62568306
    10)   F                  26.62058138
    11)   F                  26.62505525
    12)   H                   1.08187192
    13)   H                   1.10618109
    14)   H                   1.11441081
    15)   H                   1.11668022
    16)   H                   1.11588489
    17)   H                   1.11911425
    18)   H                   1.10583673
    19)   H                   1.11265968
    20)   H                   1.11049438
 Mulliken charges used for AMS results%charges...


    =====================
     CALCULATION RESULTS
    =====================

Energy (hartree)            -4.11889166

Gradients (hartree/bohr)
  Index   Atom            d/dx            d/dy            d/dz
      1      C   -0.0000015749    0.0000302336   -0.0000112381
      2      C   -0.0000423276   -0.0000155762    0.0000548130
      3      C    0.0000350838   -0.0000636409    0.0000351839
      4      C    0.0000247578   -0.0000329808   -0.0000080104
      5      C    0.0000251536   -0.0000391756   -0.0000528598
      6      C   -0.0000095129    0.0000271965    0.0000474266
      7      C   -0.0000136002    0.0000168112    0.0000048139
      8      C   -0.0000134559    0.0000763057   -0.0000174292
      9      F   -0.0000501067    0.0000844183   -0.0000423200
     10      F   -0.0000524686    0.0000776715   -0.0000040060
     11      F   -0.0000151596    0.0000577875   -0.0000555645
     12      H   -0.0000227228    0.0000290150    0.0000446128
     13      H    0.0000109698   -0.0000262344    0.0000706833
     14      H    0.0000327853   -0.0000726052    0.0000106950
     15      H    0.0000142773   -0.0000379692    0.0000016445
     16      H    0.0000313288   -0.0000488726   -0.0000448607
     17      H    0.0000189994   -0.0000230911   -0.0000530961
     18      H    0.0000053778    0.0000050751   -0.0000329980
     19      H   -0.0000028479   -0.0000000999    0.0000350647
     20      H    0.0000250435   -0.0000442684    0.0000174450


--------------
Atomic charges
--------------
  Index   Atom    Charge
      1      C    0.2961
      2      C    0.1668
      3      C    0.4229
      4      C    0.4334
      5      C    0.1769
      6      C    0.4448
      7      C   -0.0827
      8      C    1.1772
      9      F   -0.4083
     10      F   -0.4105
     11      F   -0.4115
     12      H   -0.2276
     13      H   -0.1924
     14      H   -0.1924
     15      H   -0.1998
     16      H   -0.1931
     17      H   -0.1952
     18      H   -0.1836
     19      H   -0.2004
     20      H   -0.2204


Dipole moment vector    (Debye):    -1.26706104    1.22947752    2.86775584
              magnitude (Debye):     3.36765233


-----------------------
Molecular orbitals info
-----------------------
n orbitals:              385
n spin:                    1

Note: only printing virtual orbitals with
      energy smaller than HOMO + 100. eV

HOMO (eV):              -6.4529
LUMO (eV):              -1.6686
HOMO-LUMO gap (eV):      4.7843

   Index   Energy (eV)    Occupation
     242       93.2238         0.000       
     241       92.7079         0.000       
     240       92.6100         0.000       
     239       92.2886         0.000       
     238       91.7485         0.000       
     237       91.5386         0.000       
     236       91.1474         0.000       
     235       91.0060         0.000       
     234       90.6638         0.000       
     233       89.9204         0.000       
     232       88.8791         0.000       
     231       88.3481         0.000       
     230       87.7582         0.000       
     229       87.0783         0.000       
     228       86.4833         0.000       
     227       85.5650         0.000       
     226       84.6183         0.000       
     225       84.0387         0.000       
     224       83.5544         0.000       
     223       82.9320         0.000       
     222       82.3654         0.000       
     221       81.4977         0.000       
     220       80.3803         0.000       
     219       79.7922         0.000       
     218       78.8753         0.000       
     217       78.6474         0.000       
     216       78.3782         0.000       
     215       77.9901         0.000       
     214       76.9519         0.000       
     213       76.6006         0.000       
     212       76.4136         0.000       
     211       75.6980         0.000       
     210       75.4491         0.000       
     209       75.2672         0.000       
     208       74.8260         0.000       
     207       74.4760         0.000       
     206       73.4820         0.000       
     205       72.8669         0.000       
     204       72.4806         0.000       
     203       71.1351         0.000       
     202       69.5948         0.000       
     201       68.5273         0.000       
     200       67.9400         0.000       
     199       67.7282         0.000       
     198       66.9537         0.000       
     197       66.4509         0.000       
     196       65.1208         0.000       
     195       64.4399         0.000       
     194       63.7483         0.000       
     193       63.4575         0.000       
     192       62.5487         0.000       
     191       61.7350         0.000       
     190       61.4050         0.000       
     189       60.2767         0.000       
     188       59.8688         0.000       
     187       59.4890         0.000       
     186       58.5774         0.000       
     185       58.0214         0.000       
     184       57.4832         0.000       
     183       56.7638         0.000       
     182       56.4426         0.000       
     181       55.6167         0.000       
     180       55.2409         0.000       
     179       55.0048         0.000       
     178       54.3925         0.000       
     177       53.4852         0.000       
     176       52.8291         0.000       
     175       51.8575         0.000       
     174       51.7233         0.000       
     173       51.4353         0.000       
     172       50.7450         0.000       
     171       50.1939         0.000       
     170       49.4151         0.000       
     169       48.9708         0.000       
     168       47.9478         0.000       
     167       47.5936         0.000       
     166       47.2912         0.000       
     165       46.6318         0.000       
     164       45.8099         0.000       
     163       45.7315         0.000       
     162       44.9469         0.000       
     161       44.7343         0.000       
     160       44.3064         0.000       
     159       43.8884         0.000       
     158       43.6944         0.000       
     157       43.0252         0.000       
     156       42.5618         0.000       
     155       41.9516         0.000       
     154       41.5721         0.000       
     153       41.1828         0.000       
     152       40.6077         0.000       
     151       40.0415         0.000       
     150       38.9616         0.000       
     149       38.7324         0.000       
     148       38.4375         0.000       
     147       37.4380         0.000       
     146       37.3484         0.000       
     145       37.0666         0.000       
     144       36.7962         0.000       
     143       36.3422         0.000       
     142       35.9049         0.000       
     141       35.4994         0.000       
     140       35.1959         0.000       
     139       34.6357         0.000       
     138       34.2218         0.000       
     137       34.0198         0.000       
     136       33.7116         0.000       
     135       33.5281         0.000       
     134       32.8424         0.000       
     133       32.4203         0.000       
     132       31.5830         0.000       
     131       31.2763         0.000       
     130       31.0643         0.000       
     129       30.7694         0.000       
     128       30.3695         0.000       
     127       30.0945         0.000       
     126       29.0961         0.000       
     125       28.7828         0.000       
     124       28.5508         0.000       
     123       28.0618         0.000       
     122       27.6596         0.000       
     121       27.1794         0.000       
     120       26.6687         0.000       
     119       26.2558         0.000       
     118       25.8006         0.000       
     117       25.0817         0.000       
     116       24.5700         0.000       
     115       24.3822         0.000       
     114       23.8904         0.000       
     113       23.4656         0.000       
     112       23.0550         0.000       
     111       22.6746         0.000       
     110       22.5595         0.000       
     109       21.8520         0.000       
     108       21.7036         0.000       
     107       20.6202         0.000       
     106       20.2511         0.000       
     105       19.8494         0.000       
     104       19.4868         0.000       
     103       19.1046         0.000       
     102       18.8648         0.000       
     101       18.5660         0.000       
     100       18.5269         0.000       
      99       17.1430         0.000       
      98       16.8898         0.000       
      97       16.1241         0.000       
      96       15.6531         0.000       
      95       15.0349         0.000       
      94       13.6284         0.000       
      93       13.5799         0.000       
      92       13.0837         0.000       
      91       12.5021         0.000       
      90       12.1943         0.000       
      89       12.0702         0.000       
      88       11.7046         0.000       
      87       11.3502         0.000       
      86       11.2046         0.000       
      85       11.0756         0.000       
      84       10.7124         0.000       
      83       10.4504         0.000       
      82       10.2450         0.000       
      81        9.8435         0.000       
      80        9.5510         0.000       
      79        9.3357         0.000       
      78        9.0673         0.000       
      77        8.7886         0.000       
      76        8.6082         0.000       
      75        8.4702         0.000       
      74        7.9450         0.000       
      73        7.2806         0.000       
      72        6.9204         0.000       
      71        6.6350         0.000       
      70        6.0613         0.000       
      69        5.8707         0.000       
      68        5.5288         0.000       
      67        5.4727         0.000       
      66        5.3457         0.000       
      65        4.9919         0.000       
      64        4.7346         0.000       
      63        4.2456         0.000       
      62        4.0299         0.000       
      61        3.6991         0.000       
      60        3.5317         0.000       
      59        3.4380         0.000       
      58        3.1351         0.000       
      57        2.9888         0.000       
      56        2.9042         0.000       
      55        2.5787         0.000       
      54        2.2317         0.000       
      53        1.9547         0.000       
      52        1.4533         0.000       
      51        1.3874         0.000       
      50        1.2627         0.000       
      49        1.0915         0.000       
      48        0.8204         0.000       
      47        0.5567         0.000       
      46        0.3602         0.000       
      45        0.2872         0.000       
      44       -0.3436         0.000       
      43       -1.6686         0.000 < LUMO
      42       -6.4529         2.000 < HOMO
      41       -7.7619         2.000       
      40       -8.2473         2.000       
      39       -8.4246         2.000       
      38       -8.6978         2.000       
      37       -8.8160         2.000       
      36       -8.8560         2.000       
      35       -9.3728         2.000       
      34       -9.3951         2.000       
      33       -9.8863         2.000       
      32       -9.9323         2.000       
      31      -10.0221         2.000       
      30      -10.7579         2.000       
      29      -10.8443         2.000       
      28      -10.9135         2.000       
      27      -11.3540         2.000       
      26      -12.0069         2.000       
      25      -13.0316         2.000       
      24      -13.7252         2.000       
      23      -14.0291         2.000       
      22      -14.1122         2.000       
      21      -14.5108         2.000       
      20      -14.9784         2.000       
      19      -16.9105         2.000       
      18      -17.6815         2.000       
      17      -18.2213         2.000       
      16      -19.3263         2.000       
      15      -22.2808         2.000       
      14      -30.1184         2.000       
      13      -30.2571         2.000       
      12      -32.2987         2.000       
      11     -270.1987         2.000       
      10     -270.2597         2.000       
       9     -270.2765         2.000       
       8     -270.5627         2.000       
       7     -270.6474         2.000       
       6     -270.6787         2.000       
       5     -270.7000         2.000       
       4     -276.6649         2.000       
       3     -662.0961         2.000       
       2     -662.1142         2.000       
       1     -662.2245         2.000       

AMS application finished. Exiting.
NORMAL TERMINATION
     Total cpu time:     977.28
  Total system time:       3.02
 Total elapsed time:     985.91
NORMAL TERMINATION
