
 *******************************************************************************
 *                                                                             *
 *  --------------------------------                                           *
 *   Amsterdam Modeling Suite (AMS)              2026.103                      *
 *  --------------------------------                                           *
 *                                               r260501 2026-05-01 873454b5   *
 *                                                                             *
 *                                                                             *
 *                              =================                              *
 *                              |               |                              *
 *                              |     A M S     |                              *
 *                              |               |                              *
 *                              =================                              *
 *                                                                             *
 *                                                                             *
 *   Online information and documentation:  https://www.scm.com/support/       *
 *   E-mail:  support@scm.com   info@scm.com                                   *
 *                                                                             *
 *   Scientific publications using AMS results must be properly referenced     *
 *   See the User Manuals (or the web site) for recommended citations          *
 *   The terms and conditions of the End User License Agreement apply to       *
 *   the use of AMS, https://www.scm.com/license-terms/                        *
 *                                                                             *
 **********************  x86_64_linux_intel / intelmpi  ************************
 
 Licensed to: Jong-June Jeon / University of Seoul 2026-05-13 16:10:32
 SCM User ID: u30731
  
 AMS 2026.103  RunTime: May31-2026 07:02:30  ShM Nodes: 1  Procs: 1

 AMS jobname: c5_fragB_opt
 AMS jobid  : 1770254499

 Start   directory: /gpfs/home1/yeseo1ee/projects/eda-asm-prediction/adf_outputs/batch_001/dipolar_001727/
 Results directory: /gpfs/home1/yeseo1ee/projects/eda-asm-prediction/adf_outputs/batch_001/dipolar_001727/c5_fragB_opt.results/
 Scratch directory: /tmp/amstmp_c5_fragB_opt_kid0.1770254499/

 RNG seed: 1672464373 -1566080566 -578814891 264090020 -89192295 -1359986699 858914049 680338990



                      ************************************************************************
                      *  ADF 2026.103  RunTime: May31-2026 07:02:30  ShM Nodes: 1  Procs: 1  *
                      ************************************************************************
  

       ***************************
       *  GEOMETRY OPTIMIZATION  *
       ***************************

Optimization Method                    Quasi Newton
Optimization Coordinates               Delocalized Coordinates
Optimize lattice                       F
 
 ------------------------------------------------------
 Convergence criteria (Hartree,Angstrom)
 ------------------------------------------------------
 Maximum gradient               0.000100000000
 Maximum rms gradient           0.000066666667
 Maximum step allowed           0.010000000000
 Maximum rms step allowed       0.006666666667
 Maximum energy change allowe   0.000210000000
 Maximum stress energy allowe   0.000500000000
 
Initial model Hessian                  Automatic Hessian
 
------------------------------------
Quasi-Newton Optimizer Parameters
------------------------------------
Hessian Update Method                  BFGS
Maximum number of steps                  200
First GDIIS cycle                          0
Maximum GDIIS vectors                      0
Trust radius (bohr)                        0.200000
Trust radius varies                        T
Constraints converged at all steps         T
Use projector                              T
 
 Rigid motions settings for: old optimizer
 Atomic rotations (x,y,z):     T T T
 Atomic translations (x,y,z):  T T T
 Tolerance:                  1.000000000000000E-006

--------
Geometry
--------
Formula: C9H8F3N
Atoms
  Index Symbol   x (angstrom)   y (angstrom)   z (angstrom)
      1      C    -1.14391000    -0.42315000    -0.17987000
      2      C    -1.69946000    -0.42889000    -1.57148000
      3      F    -0.74192000    -0.41404000    -2.52471000
      4      F    -2.43889000    -1.53671000    -1.82932000
      5      F    -2.50737000     0.62251000    -1.78935000
      6      C    -2.08506000    -0.24268000     1.01236000
      7      C    -2.92790000    -1.55363000     1.13264000
      8      C    -1.85810000    -2.62091000     1.49947000
      9      C    -0.55902000    -1.77740000     1.66607000
     10      C    -1.12223000    -0.45275000     2.20044000
     11      C    -0.15630000    -1.35540000     0.24661000
     12      C     0.43025000    -2.31245000    -0.64452000
     13      N     0.89528000    -3.10939000    -1.35269000
     14      H    -2.67534000     0.67934000     0.98960000
     15      H    -3.65264000    -1.42006000     1.94869000
     16      H    -3.48810000    -1.79281000     0.22199000
     17      H    -1.74639000    -3.39733000     0.72857000
     18      H    -2.09327000    -3.12296000     2.44845000
     19      H     0.24740000    -2.25802000     2.22758000
     20      H    -0.35844000     0.31650000     2.32891000
     21      H    -1.66670000    -0.58476000     3.14567000

Total System Charge              0.00000


----------------
ADF Engine Input
----------------
 
   Basis
     Type TZ2P
     Core None
   End
   XC
     GGA BLYP
     Dispersion GRIMME3 BJDAMP
   End
   Symmetry NOSYM
   NumericalQuality Normal
   Unrestricted No
   SCF
     Iterations 200
     Converge 1.0e-6
   End
   Save TAPE21
 

 Title: *** (NO TITLE) ***

Challenging geometry: could not add a dihedral for atom   13
 Using automatic Hessian for delocalized coordinates.
 *** GO1_GOStep1 ***

 Energy gradients wrt nuclear displacements
 ==========================================

     Atom      Cartesian (a.u./angstrom)
                 X         Y         Z
 ----------------------------------------
     1 C    -0.033179  0.085311 -0.042537
     2 C    -0.032581 -0.013073  0.002684
     3 F    -0.028733 -0.007693  0.017772
     4 F     0.023261  0.033331 -0.001324
     5 F     0.027334 -0.038587  0.003753
     6 C    -0.007574 -0.032050  0.004220
     7 C     0.017495  0.009844  0.003904
     8 C     0.008177  0.019827  0.003697
     9 C    -0.036309 -0.010610 -0.006745
    10 C     0.000178 -0.006668 -0.018240
    11 C     0.083233 -0.008325  0.049579
    12 C    -0.009281 -0.030562 -0.014955
    13 N    -0.005481  0.010278  0.003609
    14 H    -0.000585  0.003629 -0.002743
    15 H    -0.002775  0.000018  0.002644
    16 H    -0.003377 -0.001203 -0.005933
    17 H     0.000741 -0.004147 -0.005364
    18 H    -0.001488 -0.002300  0.002683
    19 H     0.004325 -0.000117 -0.002489
    20 H    -0.000818 -0.005235  0.003688
    21 H    -0.002562 -0.001667  0.002096
 ----------------------------------------
 
----------------------------------------------------------------------
Geometry Convergence after Step   1       (Hartree/Angstrom,Angstrom)
----------------------------------------------------------------------
current energy                               -4.54907929 Hartree
energy change                      -4.54907929     0.00021000    F
constrained gradient max            0.08526620     0.00010000    F
constrained gradient rms            0.02234392     0.00006667    F
gradient max                        0.08526630
gradient rms                        0.02234392
cart. step max                      0.06416787     0.01000000    F
cart. step rms                      0.02254429     0.00666667    F
 

--------
Geometry
--------
Formula: C9H8F3N
Atoms
  Index Symbol   x (angstrom)   y (angstrom)   z (angstrom)
      1      C    -1.16467758    -0.45366789    -0.18632851
      2      C    -1.68380455    -0.41624454    -1.59934250
      3      F    -0.67775213    -0.38014508    -2.52093755
      4      F    -2.44249132    -1.52264416    -1.89179564
      5      F    -2.47896169     0.67191120    -1.80425909
      6      C    -2.09683358    -0.25682070     1.01413404
      7      C    -2.94525504    -1.57070529     1.15707976
      8      C    -1.86728880    -2.63656618     1.52402954
      9      C    -0.56415601    -1.78151180     1.66372204
     10      C    -1.11878390    -0.44893788     2.19446152
     11      C    -0.20282590    -1.37689399     0.22732298
     12      C     0.41936866    -2.30749420    -0.65772852
     13      N     0.92720490    -3.09397239    -1.35500696
     14      H    -2.67951150     0.66826982     0.99428962
     15      H    -3.65868503    -1.42733705     1.97909996
     16      H    -3.51526184    -1.81880905     0.25867844
     17      H    -1.76429364    -3.41937084     0.76269716
     18      H    -2.08674015    -3.12794664     2.48039589
     19      H     0.25297861    -2.24794248     2.21998013
     20      H    -0.35602021     0.32795562     2.29398319
     21      H    -1.64431931    -0.56611647     3.15063450

Total System Charge              0.00000

 *** GO1_GOStep2 ***

 Energy gradients wrt nuclear displacements
 ==========================================

     Atom      Cartesian (a.u./angstrom)
                 X         Y         Z
 ----------------------------------------
     1 C    -0.010804  0.063865 -0.026384
     2 C    -0.022582 -0.017563 -0.001592
     3 F    -0.003038 -0.003130  0.004604
     4 F     0.007037  0.007028  0.001125
     5 F     0.009608 -0.011006  0.004356
     6 C    -0.002317 -0.028658  0.005350
     7 C     0.008274  0.005596  0.000697
     8 C     0.006269  0.010867  0.000343
     9 C    -0.030040 -0.007733 -0.004363
    10 C    -0.000255 -0.004429 -0.011122
    11 C     0.055239  0.002079  0.033878
    12 C    -0.018629 -0.010815 -0.002850
    13 N     0.002354 -0.001923 -0.005995
    14 H     0.001394  0.002927 -0.001026
    15 H    -0.001561  0.000146  0.001361
    16 H    -0.002247 -0.000803 -0.001075
    17 H    -0.000217 -0.002425 -0.002710
    18 H    -0.000331 -0.001822  0.001205
    19 H     0.003148  0.001542 -0.000885
    20 H    -0.000223 -0.002741  0.003519
    21 H    -0.001081 -0.001001  0.001564
 ----------------------------------------

 dE(predicted):    -0.75302E-02, dE(actual):    -0.73459E-02, Trust radius:    0.400000, all in a.u.
 
----------------------------------------------------------------------
Geometry Convergence after Step   2       (Hartree/Angstrom,Angstrom)
----------------------------------------------------------------------
current energy                               -4.55642520 Hartree
energy change                      -0.00734591     0.00021000    F
constrained gradient max            0.06382372     0.00010000    F
constrained gradient rms            0.01443204     0.00006667    F
gradient max                        0.06382385
gradient rms                        0.01443204
cart. step max                      0.11379202     0.01000000    F
cart. step rms                      0.04169256     0.00666667    F
 

--------
Geometry
--------
Formula: C9H8F3N
Atoms
  Index Symbol   x (angstrom)   y (angstrom)   z (angstrom)
      1      C    -1.20110985    -0.52060331    -0.19995604
      2      C    -1.67789101    -0.37134246    -1.62489218
      3      F    -0.65413505    -0.31979777    -2.53154787
      4      F    -2.48784352    -1.42263153    -2.00357159
      5      F    -2.42962717     0.76669027    -1.79532591
      6      C    -2.11904039    -0.28151315     1.00450622
      7      C    -2.96738205    -1.59867652     1.18845328
      8      C    -1.88000835    -2.65851489     1.57097694
      9      C    -0.56579512    -1.79760413     1.65883664
     10      C    -1.11286027    -0.44818284     2.16730809
     11      C    -0.26702663    -1.44098584     0.19497880
     12      C     0.44883174    -2.32855809    -0.65415233
     13      N     1.04099693    -3.08645767    -1.30767370
     14      H    -2.69248846     0.64745546     0.97968722
     15      H    -3.66833663    -1.43607012     2.01524804
     16      H    -3.54593927    -1.86667781     0.30347035
     17      H    -1.78841041    -3.45929170     0.83146825
     18      H    -2.08333804    -3.12169851     2.54293321
     19      H     0.26541088    -2.24252875     2.20975202
     20      H    -0.35151189     0.33696566     2.21503716
     21      H    -1.61060544    -0.53496629     3.13957340

Total System Charge              0.00000

 *** GO1_GOStep3 ***

 Energy gradients wrt nuclear displacements
 ==========================================

     Atom      Cartesian (a.u./angstrom)
                 X         Y         Z
 ----------------------------------------
     1 C     0.011333  0.031796 -0.002062
     2 C    -0.008478 -0.015758  0.004695
     3 F    -0.000279  0.000186 -0.003992
     4 F     0.001368  0.002641 -0.002755
     5 F    -0.000099 -0.001857 -0.002520
     6 C    -0.004548 -0.015474  0.004147
     7 C     0.000277  0.001327 -0.002993
     8 C     0.004030  0.003489 -0.002218
     9 C    -0.013566 -0.006035  0.000512
    10 C    -0.002110 -0.004260 -0.006453
    11 C     0.019276  0.008038  0.011994
    12 C    -0.005443 -0.017147 -0.008541
    13 N    -0.005108  0.009030  0.004765
    14 H     0.002338  0.002591  0.000979
    15 H     0.000230  0.000776  0.000189
    16 H    -0.001440 -0.000133  0.002199
    17 H    -0.000174  0.000066 -0.000518
    18 H     0.000642 -0.001160 -0.000280
    19 H     0.002027  0.002867  0.000780
    20 H     0.000032 -0.000688  0.002113
    21 H    -0.000309 -0.000296 -0.000042
 ----------------------------------------

 dE(predicted):    -0.75411E-02, dE(actual):    -0.72851E-02, Trust radius:    0.800000, all in a.u.
 
----------------------------------------------------------------------
Geometry Convergence after Step   3       (Hartree/Angstrom,Angstrom)
----------------------------------------------------------------------
current energy                               -4.56371033 Hartree
energy change                      -0.00728513     0.00021000    F
constrained gradient max            0.03174784     0.00010000    F
constrained gradient rms            0.00721788     0.00006667    F
gradient max                        0.03174827
gradient rms                        0.00721788
cart. step max                      0.19659499     0.01000000    F
cart. step rms                      0.06913123     0.00666667    F
 

--------
Geometry
--------
Formula: C9H8F3N
Atoms
  Index Symbol   x (angstrom)   y (angstrom)   z (angstrom)
      1      C    -1.27485206    -0.63050191    -0.23845911
      2      C    -1.68793948    -0.30772677    -1.64886122
      3      F    -0.63329364    -0.29706092    -2.51590265
      4      F    -2.60010630    -1.23480098    -2.11771667
      5      F    -2.30387414     0.92254495    -1.72153837
      6      C    -2.15387611    -0.32452584     0.97645055
      7      C    -2.99532833    -1.64018016     1.22712579
      8      C    -1.90423967    -2.68407156     1.65037508
      9      C    -0.57533838    -1.82649372     1.63756439
     10      C    -1.10132939    -0.44895174     2.10823799
     11      C    -0.34143733    -1.53609912     0.14686021
     12      C     0.52676307    -2.33125218    -0.64359525
     13      N     1.23759192    -3.03470134    -1.25044330
     14      H    -2.72970067     0.60020118     0.92719974
     15      H    -3.69454265    -1.45003103     2.04854886
     16      H    -3.56906820    -1.94563800     0.35001273
     17      H    -1.83548771    -3.52791416     0.95946107
     18      H    -2.08948345    -3.08228946     2.65345730
     19      H     0.27147163    -2.25521473     2.17498319
     20      H    -0.33907596     0.33708712     2.07706591
     21      H    -1.55496316    -0.48736962     3.10428375

Total System Charge              0.00000

 *** GO1_GOStep4 ***

 Energy gradients wrt nuclear displacements
 ==========================================

     Atom      Cartesian (a.u./angstrom)
                 X         Y         Z
 ----------------------------------------
     1 C     0.014140  0.003114  0.004283
     2 C    -0.006297 -0.004691 -0.006079
     3 F     0.003004  0.000035  0.001165
     4 F     0.000039 -0.002427  0.001299
     5 F    -0.002084  0.003515  0.001661
     6 C    -0.007029  0.003475  0.003470
     7 C    -0.000343 -0.000814 -0.005325
     8 C    -0.000240 -0.002122  0.000411
     9 C     0.003377 -0.002136  0.000830
    10 C    -0.001860 -0.003747 -0.004023
    11 C    -0.006505  0.005283 -0.001606
    12 C    -0.006987  0.005098  0.011473
    13 N     0.007633 -0.009241 -0.010028
    14 H     0.001527  0.001371  0.001392
    15 H     0.001612  0.001056  0.000247
    16 H    -0.000387 -0.000264  0.000947
    17 H     0.000377  0.001400 -0.000006
    18 H    -0.000368 -0.001233 -0.000903
    19 H     0.000257  0.002165  0.001226
    20 H     0.000122  0.000461  0.000481
    21 H     0.000011 -0.000298 -0.000916
 ----------------------------------------

 dE(predicted):    -0.43641E-02, dE(actual):    -0.51410E-02, Trust radius:    1.000000, all in a.u.
 
----------------------------------------------------------------------
Geometry Convergence after Step   4       (Hartree/Angstrom,Angstrom)
----------------------------------------------------------------------
current energy                               -4.56885132 Hartree
energy change                      -0.00514099     0.00021000    F
constrained gradient max            0.01412037     0.00010000    F
constrained gradient rms            0.00411800     0.00006667    F
gradient max                        0.01411920
gradient rms                        0.00411800
cart. step max                      0.15608101     0.01000000    F
cart. step rms                      0.05122856     0.00666667    F
 

--------
Geometry
--------
Formula: C9H8F3N
Atoms
  Index Symbol   x (angstrom)   y (angstrom)   z (angstrom)
      1      C    -1.32470187    -0.69598561    -0.26983389
      2      C    -1.67978909    -0.27256267    -1.66477372
      3      F    -0.62309111    -0.31911675    -2.52349260
      4      F    -2.66988822    -1.07871998    -2.19237411
      5      F    -2.17320271     1.01052299    -1.68860933
      6      C    -2.17614906    -0.36642350     0.95603561
      7      C    -3.01876575    -1.66968401     1.26701721
      8      C    -1.92283001    -2.69900887     1.70654007
      9      C    -0.59051516    -1.84922599     1.61781286
     10      C    -1.09623509    -0.45487819     2.06889420
     11      C    -0.38134934    -1.59200874     0.11643245
     12      C     0.55579791    -2.31941663    -0.65638993
     13      N     1.37159926    -2.93859864    -1.20711229
     14      H    -2.75911586     0.55183191     0.88757547
     15      H    -3.71305359    -1.45870945     2.08802762
     16      H    -3.59754499    -2.00141836     0.40166355
     17      H    -1.87768523    -3.57659986     1.05576299
     18      H    -2.08294904    -3.04439992     2.73336973
     19      H     0.26579350    -2.27519785     2.14154627
     20      H    -0.33308701     0.32641640     1.98821476
     21      H    -1.52134753    -0.46180629     3.07880307

Total System Charge              0.00000

 *** GO1_GOStep5 ***

 Energy gradients wrt nuclear displacements
 ==========================================

     Atom      Cartesian (a.u./angstrom)
                 X         Y         Z
 ----------------------------------------
     1 C     0.005157  0.001133 -0.000972
     2 C    -0.001032 -0.000279 -0.001927
     3 F    -0.002321  0.001273  0.001363
     4 F     0.002550  0.001554  0.000254
     5 F    -0.000111 -0.001512 -0.000901
     6 C     0.000037  0.002144  0.002244
     7 C    -0.001829 -0.000878 -0.001338
     8 C    -0.002183 -0.002362  0.002190
     9 C     0.003962  0.003062 -0.001622
    10 C    -0.001211 -0.001870 -0.000477
    11 C    -0.001631 -0.001615 -0.000726
    12 C     0.005412 -0.008526 -0.005559
    13 N    -0.006971  0.007672  0.006386
    14 H     0.000942 -0.000404  0.000305
    15 H     0.000646 -0.000154  0.000863
    16 H     0.000031 -0.000394  0.000244
    17 H     0.000305  0.000692 -0.000427
    18 H    -0.001191 -0.000763 -0.000418
    19 H    -0.000764  0.001024  0.000660
    20 H     0.000106  0.000433 -0.000068
    21 H     0.000098 -0.000230 -0.000075
 ----------------------------------------

 dE(predicted):    -0.11904E-02, dE(actual):    -0.11687E-02, Trust radius:    1.000000, all in a.u.
 
----------------------------------------------------------------------
Geometry Convergence after Step   5       (Hartree/Angstrom,Angstrom)
----------------------------------------------------------------------
current energy                               -4.57001998 Hartree
energy change                      -0.00116866     0.00021000    F
constrained gradient max            0.00855508     0.00010000    F
constrained gradient rms            0.00255956     0.00006667    F
gradient max                        0.00855213
gradient rms                        0.00255956
cart. step max                      0.06949705     0.01000000    F
cart. step rms                      0.01703158     0.00666667    F
 

--------
Geometry
--------
Formula: C9H8F3N
Atoms
  Index Symbol   x (angstrom)   y (angstrom)   z (angstrom)
      1      C    -1.33840633    -0.71307835    -0.27242706
      2      C    -1.67681591    -0.27271008    -1.66460199
      3      F    -0.62730266    -0.37281828    -2.52922483
      4      F    -2.71158165    -1.02624947    -2.18813515
      5      F    -2.10370565     1.03473127    -1.68334417
      6      C    -2.18426291    -0.37579288     0.95314046
      7      C    -3.02385415    -1.67810237     1.27231892
      8      C    -1.92459906    -2.70174929     1.71569033
      9      C    -0.59419882    -1.85311098     1.61709427
     10      C    -1.09899038    -0.45525468     2.06349647
     11      C    -0.38384204    -1.59527001     0.11588163
     12      C     0.57623432    -2.29387665    -0.65520747
     13      N     1.38849221    -2.90946899    -1.22251806
     14      H    -2.77207017     0.53924675     0.87802944
     15      H    -3.72311993    -1.46531002     2.08843280
     16      H    -3.59861970    -2.01388614     0.40562270
     17      H    -1.88233576    -3.58794427     1.07608206
     18      H    -2.07656541    -3.03376790     2.74806227
     19      H     0.26390503    -2.28023330     2.13757905
     20      H    -0.33660150     0.32541775     1.97377467
     21      H    -1.51986951    -0.45576212     3.07536365

Total System Charge              0.00000

 *** GO1_GOStep6 ***

 Energy gradients wrt nuclear displacements
 ==========================================

     Atom      Cartesian (a.u./angstrom)
                 X         Y         Z
 ----------------------------------------
     1 C     0.001514 -0.001772 -0.000150
     2 C    -0.000054 -0.000225 -0.000231
     3 F    -0.000341  0.000816  0.000202
     4 F     0.001056  0.000212 -0.000145
     5 F    -0.000234 -0.001096 -0.000275
     6 C     0.001637  0.003192  0.002086
     7 C    -0.001537 -0.000537 -0.000405
     8 C    -0.002019 -0.001855  0.001270
     9 C     0.002418  0.002267 -0.001299
    10 C    -0.000442 -0.001024 -0.000589
    11 C    -0.002623 -0.001210 -0.000837
    12 C    -0.000647  0.002737  0.002519
    13 N     0.001305 -0.001262 -0.001669
    14 H     0.000216 -0.000475 -0.000018
    15 H     0.000232  0.000073  0.000313
    16 H     0.000113 -0.000082 -0.000051
    17 H     0.000214  0.000238 -0.000354
    18 H    -0.000528 -0.000200 -0.000413
    19 H    -0.000451  0.000163  0.000102
    20 H     0.000062  0.000230 -0.000101
    21 H     0.000109 -0.000190  0.000046
 ----------------------------------------

 dE(predicted):    -0.20050E-03, dE(actual):    -0.22630E-03, Trust radius:    1.000000, all in a.u.
 
----------------------------------------------------------------------
Geometry Convergence after Step   6       (Hartree/Angstrom,Angstrom)
----------------------------------------------------------------------
current energy                               -4.57024627 Hartree
energy change                      -0.00022630     0.00021000    F
constrained gradient max            0.00319617     0.00010000    F
constrained gradient rms            0.00114899     0.00006667    F
gradient max                        0.00319617
gradient rms                        0.00114899
cart. step max                      0.09814898     0.01000000    F
cart. step rms                      0.02362647     0.00666667    F
 

--------
Geometry
--------
Formula: C9H8F3N
Atoms
  Index Symbol   x (angstrom)   y (angstrom)   z (angstrom)
      1      C    -1.34840165    -0.72350496    -0.27740869
      2      C    -1.67149291    -0.25625489    -1.66306170
      3      F    -0.64057816    -0.42664663    -2.54024065
      4      F    -2.76444981    -0.93366888    -2.17564306
      5      F    -2.00555667     1.07886186    -1.66894851
      6      C    -2.19799767    -0.39067735     0.94427884
      7      C    -3.02305086    -1.69865120     1.27222923
      8      C    -1.91477710    -2.70553247     1.72888415
      9      C    -0.59402005    -1.84964875     1.61729163
     10      C    -1.10878496    -0.45047369     2.05413424
     11      C    -0.38875268    -1.60096709     0.11322659
     12      C     0.57543949    -2.29585616    -0.65690235
     13      N     1.38909124    -2.91235112    -1.22299908
     14      H    -2.79715054     0.51706426     0.86236636
     15      H    -3.73169085    -1.48700526     2.08031545
     16      H    -3.58883695    -2.04720646     0.40444123
     17      H    -1.86783487    -3.60380781     1.10636551
     18      H    -2.05776541    -3.01904240     2.76843623
     19      H     0.26923865    -2.26965505     2.13596643
     20      H    -0.35276641     0.33480751     1.95554507
     21      H    -1.52797182    -0.44477344     3.06683308

Total System Charge              0.00000

 *** GO1_GOStep7 ***

 Energy gradients wrt nuclear displacements
 ==========================================

     Atom      Cartesian (a.u./angstrom)
                 X         Y         Z
 ----------------------------------------
     1 C    -0.000960 -0.000093  0.000076
     2 C    -0.000356  0.001622  0.000391
     3 F     0.001477 -0.000293 -0.000396
     4 F    -0.000258 -0.001356 -0.000102
     5 F    -0.000528 -0.000323  0.000553
     6 C     0.001071  0.001357  0.000715
     7 C    -0.000612 -0.000314  0.000391
     8 C    -0.001096 -0.000611  0.000164
     9 C     0.001691  0.001972 -0.000126
    10 C     0.000135  0.000076 -0.000793
    11 C    -0.001562 -0.003111  0.000463
    12 C    -0.002570  0.004354  0.003287
    13 N     0.003557 -0.003057 -0.003315
    14 H    -0.000358 -0.000233 -0.000521
    15 H    -0.000028  0.000151 -0.000163
    16 H     0.000012  0.000181 -0.000153
    17 H     0.000141 -0.000014 -0.000268
    18 H     0.000465  0.000263 -0.000223
    19 H    -0.000120 -0.000661 -0.000054
    20 H    -0.000036 -0.000005 -0.000006
    21 H    -0.000064  0.000096  0.000080
 ----------------------------------------

 dE(predicted):    -0.11874E-03, dE(actual):    -0.16945E-03, Trust radius:    1.000000, all in a.u.
 
----------------------------------------------------------------------
Geometry Convergence after Step   7       (Hartree/Angstrom,Angstrom)
----------------------------------------------------------------------
current energy                               -4.57041572 Hartree
energy change                      -0.00016945     0.00021000    T
constrained gradient max            0.00433292     0.00010000    F
constrained gradient rms            0.00129154     0.00006667    F
gradient max                        0.00433291
gradient rms                        0.00129154
cart. step max                      0.21158565     0.01000000    F
cart. step rms                      0.04906685     0.00666667    F
 

--------
Geometry
--------
Formula: C9H8F3N
Atoms
  Index Symbol   x (angstrom)   y (angstrom)   z (angstrom)
      1      C    -1.36519917    -0.73998459    -0.28881565
      2      C    -1.66530217    -0.22912748    -1.66284700
      3      F    -0.70342595    -0.54546964    -2.57807927
      4      F    -2.86926049    -0.72879233    -2.13457124
      5      F    -1.79397103     1.14321851    -1.65600900
      6      C    -2.22181065    -0.41776320     0.92814994
      7      C    -3.01878978    -1.73798995     1.26898387
      8      C    -1.89508652    -2.71377300     1.75023160
      9      C    -0.59413227    -1.84154738     1.61558471
     10      C    -1.12941040    -0.44337222     2.03996921
     11      C    -0.39473898    -1.60237885     0.10766774
     12      C     0.57729283    -2.29623393    -0.65396020
     13      N     1.39605567    -2.91578312    -1.20750139
     14      H    -2.84086181     0.47668945     0.83877817
     15      H    -3.74377961    -1.53210041     2.06365450
     16      H    -3.56726865    -2.11075213     0.40002172
     17      H    -1.83723767    -3.63213239     1.15871006
     18      H    -2.02716030    -2.99530083     2.80081021
     19      H     0.27971410    -2.24312794     2.13210011
     20      H    -0.38667824     0.35228308     1.92893859
     21      H    -1.54705891    -0.43155165     3.05329332

Total System Charge              0.00000

 *** GO1_GOStep8 ***

 Energy gradients wrt nuclear displacements
 ==========================================

     Atom      Cartesian (a.u./angstrom)
                 X         Y         Z
 ----------------------------------------
     1 C    -0.002075  0.000352  0.000525
     2 C     0.001523  0.003201  0.002693
     3 F     0.003148 -0.000198 -0.001336
     4 F    -0.003947 -0.001456 -0.001957
     5 F    -0.000064  0.000346  0.000443
     6 C     0.000929 -0.002171 -0.001936
     7 C     0.001638  0.000099  0.001424
     8 C     0.000097  0.000370 -0.000735
     9 C    -0.001070  0.000148 -0.000018
    10 C     0.000670  0.001600  0.000747
    11 C    -0.000941 -0.001548  0.000877
    12 C    -0.000855  0.001885  0.001538
    13 N     0.001394 -0.001467 -0.001552
    14 H    -0.000775  0.000107 -0.000700
    15 H    -0.000324 -0.000134 -0.000645
    16 H    -0.000136  0.000227 -0.000100
    17 H    -0.000151 -0.000438  0.000331
    18 H     0.001199  0.000474  0.000286
    19 H     0.000125 -0.001377 -0.000122
    20 H    -0.000220 -0.000295  0.000024
    21 H    -0.000166  0.000276  0.000212
 ----------------------------------------

 dE(predicted):    -0.19865E-03, dE(actual):    -0.11757E-03, Trust radius:    1.000000, all in a.u.
 
----------------------------------------------------------------------
Geometry Convergence after Step   8       (Hartree/Angstrom,Angstrom)
----------------------------------------------------------------------
current energy                               -4.57053329 Hartree
energy change                      -0.00011757     0.00021000    T
constrained gradient max            0.00399224     0.00010000    F
constrained gradient rms            0.00126419     0.00006667    F
gradient max                        0.00399217
gradient rms                        0.00126419
cart. step max                      0.06538924     0.01000000    F
cart. step rms                      0.01624836     0.00666667    F
 

--------
Geometry
--------
Formula: C9H8F3N
Atoms
  Index Symbol   x (angstrom)   y (angstrom)   z (angstrom)
      1      C    -1.36055139    -0.73390001    -0.28483837
      2      C    -1.67293864    -0.23865601    -1.66197224
      3      F    -0.74861793    -0.61085888    -2.59433727
      4      F    -2.90623009    -0.70176372    -2.09073787
      5      F    -1.75027465     1.13870049    -1.68029568
      6      C    -2.21910690    -0.41280203     0.93148561
      7      C    -3.01592465    -1.73595881     1.25943787
      8      C    -1.89187108    -2.71307514     1.73784361
      9      C    -0.59201232    -1.83851507     1.61821815
     10      C    -1.13215374    -0.44419374     2.04846756
     11      C    -0.38610617    -1.59039932     0.11204124
     12      C     0.58384711    -2.28746813    -0.64959143
     13      N     1.41084672    -2.90246635    -1.19395807
     14      H    -2.83731222     0.48263108     0.84620756
     15      H    -3.74399275    -1.53672103     2.05298830
     16      H    -3.56056894    -2.10395959     0.38629318
     17      H    -1.82964894    -3.62625077     1.13909256
     18      H    -2.03096393    -3.00440303     2.78491185
     19      H     0.28099379    -2.23842598     2.13730362
     20      H    -0.39017415     0.35356061     1.94716963
     21      H    -1.55534911    -0.44006456     3.05938019

Total System Charge              0.00000

 *** GO1_GOStep9 ***

 Energy gradients wrt nuclear displacements
 ==========================================

     Atom      Cartesian (a.u./angstrom)
                 X         Y         Z
 ----------------------------------------
     1 C    -0.001971 -0.001239  0.001010
     2 C     0.001167  0.001832  0.001454
     3 F     0.003035 -0.001095 -0.001711
     4 F    -0.003317 -0.001337 -0.001277
     5 F    -0.000335  0.001575  0.000728
     6 C     0.000590 -0.001654 -0.001794
     7 C     0.001588  0.000063  0.000827
     8 C     0.000772  0.001216 -0.001591
     9 C    -0.001882 -0.001523  0.000124
    10 C     0.000495  0.001599  0.001707
    11 C     0.000104  0.000785  0.000760
    12 C     0.000291 -0.000883 -0.000984
    13 N    -0.000438  0.000829  0.000656
    14 H    -0.000569  0.000248 -0.000153
    15 H    -0.000310  0.000015 -0.000713
    16 H    -0.000047  0.000122  0.000076
    17 H    -0.000203 -0.000245  0.000493
    18 H     0.000930  0.000486  0.000255
    19 H     0.000364 -0.000779 -0.000128
    20 H    -0.000159 -0.000261  0.000112
    21 H    -0.000105  0.000245  0.000149
 ----------------------------------------

 dE(predicted):    -0.99494E-04, dE(actual):    -0.17050E-03, Trust radius:    1.000000, all in a.u.
 
----------------------------------------------------------------------
Geometry Convergence after Step   9       (Hartree/Angstrom,Angstrom)
----------------------------------------------------------------------
current energy                               -4.57070379 Hartree
energy change                      -0.00017050     0.00021000    T
constrained gradient max            0.00336033     0.00010000    F
constrained gradient rms            0.00110996     0.00006667    F
gradient max                        0.00336007
gradient rms                        0.00110996
cart. step max                      0.08563917     0.01000000    F
cart. step rms                      0.02362032     0.00666667    F
 

--------
Geometry
--------
Formula: C9H8F3N
Atoms
  Index Symbol   x (angstrom)   y (angstrom)   z (angstrom)
      1      C    -1.34968542    -0.72195436    -0.27908555
      2      C    -1.68071953    -0.24606957    -1.65819865
      3      F    -0.82050296    -0.69649805    -2.61375856
      4      F    -2.95238982    -0.64638790    -2.02402392
      5      F    -1.67844823     1.13256695    -1.71718792
      6      C    -2.21770350    -0.40868683     0.93352557
      7      C    -3.01081490    -1.73811554     1.24583857
      8      C    -1.88414712    -2.71366664     1.72345652
      9      C    -0.58803268    -1.83074875     1.62446342
     10      C    -1.13933413    -0.44266843     2.05679416
     11      C    -0.37345411    -1.57602168     0.11959758
     12      C     0.59419239    -2.27908523    -0.63999816
     13      N     1.41734141    -2.90076319    -1.18318075
     14      H    -2.83714250     0.48591652     0.85175913
     15      H    -3.74288317    -1.54977593     2.03866739
     16      H    -3.54903814    -2.10282589     0.36751341
     17      H    -1.81078761    -3.61827690     1.11307040
     18      H    -2.03610346    -3.02088259     2.76433075
     19      H     0.28390292    -2.22332230     2.15018463
     20      H    -0.40124736     0.36039557     1.96751851
     21      H    -1.57111209    -0.44811925     3.06382348

Total System Charge              0.00000

 *** GO1_GOStep10 ***

 Energy gradients wrt nuclear displacements
 ==========================================

     Atom      Cartesian (a.u./angstrom)
                 X         Y         Z
 ----------------------------------------
     1 C    -0.000828  0.000201  0.000905
     2 C     0.000490 -0.000115  0.000652
     3 F    -0.000160 -0.000501 -0.000415
     4 F    -0.000373 -0.000217 -0.000111
     5 F    -0.000048  0.000609 -0.000269
     6 C    -0.000689 -0.001214 -0.001697
     7 C     0.000975  0.000058  0.000176
     8 C     0.001448  0.002002 -0.001796
     9 C    -0.001824 -0.002783  0.000753
    10 C     0.000521  0.001236  0.001080
    11 C     0.000639  0.000819  0.000277
    12 C     0.000035 -0.000759 -0.000350
    13 N     0.000143  0.000158  0.000082
    14 H    -0.000060  0.000265  0.000407
    15 H    -0.000302 -0.000145 -0.000328
    16 H     0.000037 -0.000108  0.000080
    17 H    -0.000180 -0.000094  0.000377
    18 H     0.000056  0.000193  0.000266
    19 H     0.000365  0.000304 -0.000035
    20 H    -0.000082  0.000001  0.000129
    21 H    -0.000161  0.000089 -0.000186
 ----------------------------------------

 dE(predicted):    -0.96030E-04, dE(actual):    -0.10275E-03, Trust radius:    1.000000, all in a.u.
 
----------------------------------------------------------------------
Geometry Convergence after Step  10       (Hartree/Angstrom,Angstrom)
----------------------------------------------------------------------
current energy                               -4.57080654 Hartree
energy change                      -0.00010275     0.00021000    T
constrained gradient max            0.00282108     0.00010000    F
constrained gradient rms            0.00075587     0.00006667    F
gradient max                        0.00282128
gradient rms                        0.00075587
cart. step max                      0.06377637     0.01000000    F
cart. step rms                      0.01544829     0.00666667    F
 

--------
Geometry
--------
Formula: C9H8F3N
Atoms
  Index Symbol   x (angstrom)   y (angstrom)   z (angstrom)
      1      C    -1.34774731    -0.72062349    -0.27873807
      2      C    -1.67915860    -0.24943352    -1.65965247
      3      F    -0.78133364    -0.64930446    -2.60258897
      4      F    -2.92274969    -0.70776038    -2.05120628
      5      F    -1.74222460     1.12714302    -1.70819680
      6      C    -2.21341770    -0.40408614     0.93587361
      7      C    -3.01356327    -1.72943570     1.25129036
      8      C    -1.89040985    -2.71270076     1.72320827
      9      C    -0.58889879    -1.83349657     1.62305061
     10      C    -1.13380999    -0.44435912     2.05639385
     11      C    -0.37533528    -1.57966447     0.11851811
     12      C     0.59184142    -2.28195571    -0.64174788
     13      N     1.41278995    -2.90360575    -1.18846048
     14      H    -2.82816754     0.49341891     0.85412615
     15      H    -3.73887518    -1.53647217     2.04929454
     16      H    -3.55891283    -2.09012772     0.37563721
     17      H    -1.82116111    -3.61359342     1.10676137
     18      H    -2.04220667    -3.02520380     2.76233990
     19      H     0.28088880    -2.23061769     2.14853856
     20      H    -0.39239038     0.35568099     1.96618157
     21      H    -1.56326774    -0.44879204     3.06448684

Total System Charge              0.00000

 *** GO1_GOStep11 ***

 Energy gradients wrt nuclear displacements
 ==========================================

     Atom      Cartesian (a.u./angstrom)
                 X         Y         Z
 ----------------------------------------
     1 C    -0.000189  0.000501  0.000551
     2 C    -0.000223 -0.000110 -0.000062
     3 F    -0.000311  0.000309  0.000023
     4 F     0.000620 -0.000005  0.000086
     5 F    -0.000051 -0.000381 -0.000228
     6 C    -0.000384 -0.000102 -0.000661
     7 C     0.000317 -0.000010  0.000242
     8 C     0.000651  0.000872 -0.000586
     9 C    -0.000594 -0.001278  0.000310
    10 C     0.000122  0.000375  0.000275
    11 C     0.000198  0.000105 -0.000250
    12 C    -0.000082 -0.000058  0.000308
    13 N     0.000245 -0.000086 -0.000247
    14 H     0.000081 -0.000049  0.000233
    15 H    -0.000149 -0.000179 -0.000064
    16 H     0.000043 -0.000100 -0.000074
    17 H    -0.000041 -0.000059  0.000143
    18 H    -0.000170 -0.000004  0.000125
    19 H     0.000088  0.000271  0.000002
    20 H    -0.000072  0.000034  0.000002
    21 H    -0.000098 -0.000047 -0.000129
 ----------------------------------------

 dE(predicted):    -0.29776E-04, dE(actual):    -0.18464E-04, Trust radius:    1.000000, all in a.u.
 
----------------------------------------------------------------------
Geometry Convergence after Step  11       (Hartree/Angstrom,Angstrom)
----------------------------------------------------------------------
current energy                               -4.57082500 Hartree
energy change                      -0.00001846     0.00021000    T
constrained gradient max            0.00130232     0.00010000    F
constrained gradient rms            0.00032499     0.00006667    F
gradient max                        0.00130213
gradient rms                        0.00032499
cart. step max                      0.02231644     0.01000000    F
cart. step rms                      0.00517530     0.00666667    T
 

--------
Geometry
--------
Formula: C9H8F3N
Atoms
  Index Symbol   x (angstrom)   y (angstrom)   z (angstrom)
      1      C    -1.35136266    -0.72546008    -0.28098869
      2      C    -1.67901382    -0.24768964    -1.66024193
      3      F    -0.78896353    -0.66010846    -2.60542219
      4      F    -2.93120027    -0.68544394    -2.04955457
      5      F    -1.72051477     1.13019415    -1.70526067
      6      C    -2.21585948    -0.40727840     0.93405397
      7      C    -3.01466894    -1.73265537     1.25304915
      8      C    -1.89029444    -2.71422384     1.72607346
      9      C    -0.58967325    -1.83379363     1.62182394
     10      C    -1.13504537    -0.44428619     2.05372771
     11      C    -0.37756436    -1.58192128     0.11683346
     12      C     0.59422194    -2.27948829    -0.64152412
     13      N     1.42055402    -2.89669262    -1.18481492
     14      H    -2.83200273     0.48915534     0.85023651
     15      H    -3.73972066    -1.53847711     2.05091896
     16      H    -3.56014069    -2.09513849     0.37820433
     17      H    -1.82103954    -3.61667640     1.11189393
     18      H    -2.03947341    -3.02380653     2.76637213
     19      H     0.28087535    -2.23030032     2.14656425
     20      H    -0.39433059     0.35604559     1.96059517
     21      H    -1.56289280    -0.44694450     3.06257010

Total System Charge              0.00000

 *** GO1_GOStep12 ***

 Energy gradients wrt nuclear displacements
 ==========================================

     Atom      Cartesian (a.u./angstrom)
                 X         Y         Z
 ----------------------------------------
     1 C     0.000098 -0.000239  0.000333
     2 C     0.000085  0.000050 -0.000165
     3 F     0.000220 -0.000040  0.000028
     4 F    -0.000299 -0.000161 -0.000032
     5 F    -0.000030 -0.000055  0.000076
     6 C    -0.000052  0.000012 -0.000642
     7 C     0.000249  0.000018  0.000329
     8 C     0.000457  0.000404 -0.000307
     9 C    -0.000560 -0.000813  0.000064
    10 C     0.000077  0.000414  0.000469
    11 C    -0.000120  0.000339 -0.000406
    12 C     0.000150 -0.000097  0.000045
    13 N    -0.000078  0.000280  0.000187
    14 H    -0.000016 -0.000028  0.000092
    15 H    -0.000120 -0.000132 -0.000108
    16 H     0.000082 -0.000005 -0.000100
    17 H    -0.000018 -0.000077  0.000143
    18 H    -0.000008  0.000039  0.000086
    19 H     0.000039  0.000096 -0.000028
    20 H    -0.000089  0.000016 -0.000032
    21 H    -0.000068 -0.000020 -0.000033
 ----------------------------------------

 dE(predicted):    -0.62594E-05, dE(actual):    -0.43885E-05, Trust radius:    1.000000, all in a.u.
 
----------------------------------------------------------------------
Geometry Convergence after Step  12       (Hartree/Angstrom,Angstrom)
----------------------------------------------------------------------
current energy                               -4.57082939 Hartree
energy change                      -0.00000439     0.00021000    T
constrained gradient max            0.00084507     0.00010000    F
constrained gradient rms            0.00023009     0.00006667    F
gradient max                        0.00084517
gradient rms                        0.00023009
cart. step max                      0.00580679     0.01000000    T
cart. step rms                      0.00147587     0.00666667    T
 

--------
Geometry
--------
Formula: C9H8F3N
Atoms
  Index Symbol   x (angstrom)   y (angstrom)   z (angstrom)
      1      C    -1.35127494    -0.72528666    -0.28090264
      2      C    -1.67848488    -0.24705820    -1.66004995
      3      F    -0.79149343    -0.66356114    -2.60618226
      4      F    -2.93257589    -0.68006436    -2.04776096
      5      F    -1.71470798     1.13100032    -1.70601277
      6      C    -2.21662720    -0.40779185     0.93397815
      7      C    -3.01462323    -1.73372963     1.25294039
      8      C    -1.88930600    -2.71452290     1.72580207
      9      C    -0.58923688    -1.83250872     1.62235402
     10      C    -1.13608110    -0.44368473     2.05362800
     11      C    -0.37720339    -1.58153380     0.11731534
     12      C     0.59373350    -2.28017258    -0.64124960
     13      N     1.41865505    -2.89896937    -1.18501545
     14      H    -2.83348052     0.48811498     0.84950804
     15      H    -3.73910229    -1.53965745     2.05136232
     16      H    -3.56044200    -2.09668715     0.37852389
     17      H    -1.81865921    -3.61614404     1.11052986
     18      H    -2.03842597    -3.02533639     2.76569067
     19      H     0.28132865    -2.22827585     2.14762532
     20      H    -0.39606269     0.35732830     1.96058179
     21      H    -1.56403961    -0.44644878     3.06244379

Total System Charge              0.00000

 *** GO1_GOStep13 ***

 Energy gradients wrt nuclear displacements
 ==========================================

     Atom      Cartesian (a.u./angstrom)
                 X         Y         Z
 ----------------------------------------
     1 C     0.000018 -0.000018  0.000167
     2 C     0.000155  0.000068 -0.000086
     3 F    -0.000021 -0.000064  0.000060
     4 F    -0.000034 -0.000077 -0.000051
     5 F    -0.000062 -0.000073 -0.000009
     6 C    -0.000106 -0.000075 -0.000302
     7 C    -0.000005 -0.000021  0.000154
     8 C     0.000379  0.000320 -0.000187
     9 C    -0.000323 -0.000421  0.000128
    10 C     0.000051  0.000285  0.000252
    11 C     0.000010  0.000025 -0.000221
    12 C     0.000009  0.000002  0.000102
    13 N     0.000067  0.000111  0.000045
    14 H    -0.000031 -0.000023  0.000028
    15 H    -0.000077 -0.000092 -0.000077
    16 H     0.000051 -0.000029 -0.000080
    17 H     0.000006 -0.000062  0.000073
    18 H     0.000021  0.000036  0.000049
    19 H     0.000033  0.000094 -0.000006
    20 H    -0.000069  0.000018 -0.000015
    21 H    -0.000069 -0.000003 -0.000024
 ----------------------------------------

 dE(predicted):    -0.12464E-05, dE(actual):    -0.40210E-05, Trust radius:    1.000000, all in a.u.
 
----------------------------------------------------------------------
Geometry Convergence after Step  13       (Hartree/Angstrom,Angstrom)
----------------------------------------------------------------------
current energy                               -4.57083341 Hartree
energy change                      -0.00000402     0.00021000    T
constrained gradient max            0.00045377     0.00010000    F
constrained gradient rms            0.00012825     0.00006667    F
gradient max                        0.00045379
gradient rms                        0.00012825
cart. step max                      0.00225480     0.01000000    T
cart. step rms                      0.00067748     0.00666667    T
 

--------
Geometry
--------
Formula: C9H8F3N
Atoms
  Index Symbol   x (angstrom)   y (angstrom)   z (angstrom)
      1      C    -1.35092986    -0.72525662    -0.28096177
      2      C    -1.67847113    -0.24721471    -1.66007344
      3      F    -0.79105321    -0.66263057    -2.60627796
      4      F    -2.93207082    -0.68114158    -2.04787668
      5      F    -1.71568695     1.13086028    -1.70585025
      6      C    -2.21657921    -0.40765900     0.93395333
      7      C    -3.01468135    -1.73353865     1.25324107
      8      C    -1.88927935    -2.71483390     1.72522884
      9      C    -0.58902586    -1.83192961     1.62261296
     10      C    -1.13630578    -0.44349013     2.05346436
     11      C    -0.37674516    -1.58129368     0.11773180
     12      C     0.59383700    -2.28059160    -0.64074120
     13      N     1.41793171    -2.90039399    -1.18462871
     14      H    -2.83347398     0.48816515     0.84888108
     15      H    -3.73785246    -1.53891062     2.05272030
     16      H    -3.56175283    -2.09636210     0.37958675
     17      H    -1.81798082    -3.61524769     1.10827507
     18      H    -2.03846277    -3.02736087     2.76453523
     19      H     0.28118942    -2.22771616     2.14843488
     20      H    -0.39642950     0.35771649     1.96056540
     21      H    -1.56428708    -0.44616045     3.06228898

Total System Charge              0.00000

 *** GO1_GOStep14 ***

 Energy gradients wrt nuclear displacements
 ==========================================

     Atom      Cartesian (a.u./angstrom)
                 X         Y         Z
 ----------------------------------------
     1 C     0.000048  0.000048 -0.000056
     2 C    -0.000004  0.000005 -0.000081
     3 F    -0.000044  0.000024  0.000058
     4 F     0.000064 -0.000051 -0.000020
     5 F    -0.000020 -0.000086 -0.000034
     6 C    -0.000084  0.000053  0.000024
     7 C    -0.000121 -0.000030  0.000003
     8 C     0.000172  0.000010  0.000028
     9 C    -0.000075 -0.000040  0.000078
    10 C    -0.000007  0.000066 -0.000026
    11 C     0.000066 -0.000050 -0.000006
    12 C     0.000032  0.000020  0.000117
    13 N     0.000055  0.000066  0.000021
    14 H    -0.000038 -0.000030 -0.000046
    15 H    -0.000011 -0.000051 -0.000036
    16 H     0.000044 -0.000048 -0.000049
    17 H     0.000034 -0.000032  0.000015
    18 H     0.000011  0.000015  0.000009
    19 H    -0.000002  0.000068  0.000028
    20 H    -0.000062  0.000039 -0.000010
    21 H    -0.000056  0.000003 -0.000015
 ----------------------------------------
 
----------------------------------------------------------------------
Geometry Convergence after Step  14       (Hartree/Angstrom,Angstrom)
----------------------------------------------------------------------
current energy                               -4.57083419 Hartree
energy change                      -0.00000078     0.00021000    T
constrained gradient max            0.00015370     0.00010000    F
constrained gradient rms            0.00004288     0.00006667    T
gradient max                        0.00015369
gradient rms                        0.00004288
cart. step max                      0.00058705     0.01000000    T
cart. step rms                      0.00019985     0.00666667    T
 

--------
Geometry
--------
Formula: C9H8F3N
Atoms
  Index Symbol   x (angstrom)   y (angstrom)   z (angstrom)
      1      C    -1.35107350    -0.72534114    -0.28098602
      2      C    -1.67839809    -0.24737637    -1.66014913
      3      F    -0.79082344    -0.66292855    -2.60620992
      4      F    -2.93197904    -0.68122427    -2.04811703
      5      F    -1.71551381     1.13073488    -1.70601869
      6      C    -2.21662169    -0.40767456     0.93398576
      7      C    -3.01477078    -1.73344351     1.25348554
      8      C    -1.88936115    -2.71487827     1.72507227
      9      C    -0.58900782    -1.83184968     1.62251695
     10      C    -1.13637421    -0.44353764     2.05347116
     11      C    -0.37677861    -1.58119381     0.11767529
     12      C     0.59389494    -2.28042048    -0.64078189
     13      N     1.41820685    -2.90014852    -1.18444503
     14      H    -2.83352244     0.48814514     0.84888372
     15      H    -3.73752725    -1.53863620     2.05330371
     16      H    -3.56233988    -2.09620751     0.38012890
     17      H    -1.81802117    -3.61500979     1.10773948
     18      H    -2.03840631    -3.02778068     2.76427650
     19      H     0.28116740    -2.22772264     2.14834716
     20      H    -0.39652251     0.35770641     1.96062257
     21      H    -1.56433750    -0.44620280     3.06230869

Total System Charge              0.00000

 *** GO1_GOStep15 ***

 Energy gradients wrt nuclear displacements
 ==========================================

     Atom      Cartesian (a.u./angstrom)
                 X         Y         Z
 ----------------------------------------
     1 C     0.000042 -0.000008 -0.000038
     2 C     0.000017 -0.000032 -0.000050
     3 F     0.000002 -0.000001  0.000024
     4 F     0.000045 -0.000053 -0.000020
     5 F    -0.000025 -0.000046 -0.000029
     6 C    -0.000030  0.000040  0.000062
     7 C    -0.000107 -0.000022 -0.000018
     8 C     0.000090 -0.000030  0.000050
     9 C    -0.000014  0.000060  0.000021
    10 C    -0.000056  0.000002 -0.000026
    11 C     0.000019  0.000022 -0.000023
    12 C    -0.000002  0.000033  0.000106
    13 N     0.000095  0.000046  0.000012
    14 H    -0.000044 -0.000034 -0.000050
    15 H    -0.000005 -0.000044 -0.000030
    16 H     0.000038 -0.000048 -0.000031
    17 H     0.000043 -0.000009  0.000012
    18 H     0.000008  0.000015  0.000006
    19 H    -0.000002  0.000059  0.000033
    20 H    -0.000060  0.000037 -0.000007
    21 H    -0.000055  0.000017 -0.000005
 ----------------------------------------
 
----------------------------------------------------------------------
Geometry Convergence after Step  15       (Hartree/Angstrom,Angstrom)
----------------------------------------------------------------------
current energy                               -4.57083432 Hartree
energy change                      -0.00000013     0.00021000    T
constrained gradient max            0.00010743     0.00010000    F
constrained gradient rms            0.00002816     0.00006667    T
gradient max                        0.00010745
gradient rms                        0.00002816
cart. step max                      0.00025511     0.01000000    T
cart. step rms                      0.00009394     0.00666667    T
 

--------
Geometry
--------
Formula: C9H8F3N
Atoms
  Index Symbol   x (angstrom)   y (angstrom)   z (angstrom)
      1      C    -1.35112659    -0.72540251    -0.28100460
      2      C    -1.67844943    -0.24743297    -1.66015321
      3      F    -0.79087105    -0.66307041    -2.60621904
      4      F    -2.93207017    -0.68120809    -2.04812653
      5      F    -1.71547391     1.13069932    -1.70604650
      6      C    -2.21660906    -0.40770078     0.93394536
      7      C    -3.01475632    -1.73340054     1.25354499
      8      C    -1.88941766    -2.71490711     1.72495330
      9      C    -0.58901131    -1.83187116     1.62250477
     10      C    -1.13635762    -0.44354116     2.05344143
     11      C    -0.37675498    -1.58115399     0.11769463
     12      C     0.59401358    -2.28032048    -0.64072633
     13      N     1.41842542    -2.90003103    -1.18422055
     14      H    -2.83351524     0.48812319     0.84887017
     15      H    -3.73735709    -1.53849298     2.05348931
     16      H    -3.56258073    -2.09614072     0.38033985
     17      H    -1.81806522    -3.61493252     1.10748437
     18      H    -2.03842827    -3.02796737     2.76411676
     19      H     0.28113446    -2.22779647     2.14835082
     20      H    -0.39649508     0.35769850     1.96060306
     21      H    -1.56434372    -0.44614075     3.06226793

Total System Charge              0.00000

 *** GO1_GOStep16 ***

 Energy gradients wrt nuclear displacements
 ==========================================

     Atom      Cartesian (a.u./angstrom)
                 X         Y         Z
 ----------------------------------------
     1 C     0.000010 -0.000020 -0.000032
     2 C     0.000005 -0.000033 -0.000016
     3 F     0.000032 -0.000017  0.000003
     4 F     0.000019 -0.000062 -0.000028
     5 F    -0.000025 -0.000018 -0.000027
     6 C    -0.000011  0.000011  0.000037
     7 C    -0.000045 -0.000021 -0.000027
     8 C     0.000041 -0.000036  0.000022
     9 C    -0.000005  0.000055  0.000017
    10 C    -0.000051  0.000003 -0.000035
    11 C     0.000008  0.000050  0.000016
    12 C     0.000056 -0.000005  0.000059
    13 N     0.000049  0.000079  0.000051
    14 H    -0.000048 -0.000031 -0.000045
    15 H    -0.000008 -0.000039 -0.000030
    16 H     0.000030 -0.000052 -0.000019
    17 H     0.000044 -0.000000  0.000018
    18 H     0.000010  0.000016  0.000008
    19 H     0.000001  0.000054  0.000037
    20 H    -0.000058  0.000042  0.000000
    21 H    -0.000054  0.000024 -0.000008
 ----------------------------------------
 
---------------------------------------------------------
Geometry Convergence after Step  16       ** CONVERGED **
---------------------------------------------------------
current energy                               -4.57083426 Hartree
energy change                       0.00000006     0.00021000    T
constrained gradient max            0.00005643     0.00010000    T
constrained gradient rms            0.00001611     0.00006667    T
gradient max                        0.00005641
gradient rms                        0.00001611
cart. step max                      0.00007724     0.01000000    T
cart. step rms                      0.00002882     0.00666667    T
 
Geometry optimization converged

Optimized geometry:

--------
Geometry
--------
Formula: C9H8F3N
Atoms
  Index Symbol   x (angstrom)   y (angstrom)   z (angstrom)
      1      C    -1.35112659    -0.72540251    -0.28100460
      2      C    -1.67844943    -0.24743297    -1.66015321
      3      F    -0.79087105    -0.66307041    -2.60621904
      4      F    -2.93207017    -0.68120809    -2.04812653
      5      F    -1.71547391     1.13069932    -1.70604650
      6      C    -2.21660906    -0.40770078     0.93394536
      7      C    -3.01475632    -1.73340054     1.25354499
      8      C    -1.88941766    -2.71490711     1.72495330
      9      C    -0.58901131    -1.83187116     1.62250477
     10      C    -1.13635762    -0.44354116     2.05344143
     11      C    -0.37675498    -1.58115399     0.11769463
     12      C     0.59401358    -2.28032048    -0.64072633
     13      N     1.41842542    -2.90003103    -1.18422055
     14      H    -2.83351524     0.48812319     0.84887017
     15      H    -3.73735709    -1.53849298     2.05348931
     16      H    -3.56258073    -2.09614072     0.38033985
     17      H    -1.81806522    -3.61493252     1.10748437
     18      H    -2.03842827    -3.02796737     2.76411676
     19      H     0.28113446    -2.22779647     2.14835082
     20      H    -0.39649508     0.35769850     1.96060306
     21      H    -1.56434372    -0.44614075     3.06226793

Total System Charge              0.00000

Performing a single point calculation on the final geometry ...

 *** adf ***



 ===========================
 A T T A C H E D   F I L E S
 ===========================
  
 Restart/tmp/amstmp_c5_fragB_opt_kid0.1770254499/GO1_GOStep16.rkf*** GO1_GOStep16 ***



 ===============================
 M O D E L   P A R A M E T E R S
 ===============================
  
 DENSITY FUNCTIONAL POTENTIAL (scf)
    LDA:                               Exchange only                           == Not Default ==
    Gradient Corrections:              Becke88 LYP                             == Not Default ==

 SPIN  (restricted / unrestr.)
    Molecule:                          Restricted                               
    Fragments:                         Restricted                               

 OTHER ASPECTS
    Relativistic Corrections:          scalar (ZORA,MAPA)                       

    Nuclear Charge Density Model:      Point Charge Nuclei                      
    Core Treatment:                    Frozen Orbital(s)                        

    Hyperfine or Zeeman Interaction:   ---                                      

 Settings for Grimme D3 dispersion correction

      damping                        BJ
      s6                          1.000
      s8                          2.700
      a1                          0.430
      a2                          4.236

 Other (technical) parameters

      alpha                      14.000
      version                         4
 



 ===============
 G E O M E T R Y  ***  3D  Molecule  ***
 ===============
  

 ATOMS
 =====                            X Y Z                    CHARGE
                                (Angstrom)             Nucl     +Core       At.Mass
                       --------------------------    ----------------       -------
    1  C              -1.3511   -0.7254   -0.2810      6.00      6.00       12.0000
    2  C              -1.6784   -0.2474   -1.6602      6.00      6.00       12.0000
    3  F              -0.7909   -0.6631   -2.6062      9.00      9.00       18.9984
    4  F              -2.9321   -0.6812   -2.0481      9.00      9.00       18.9984
    5  F              -1.7155    1.1307   -1.7060      9.00      9.00       18.9984
    6  C              -2.2166   -0.4077    0.9339      6.00      6.00       12.0000
    7  C              -3.0148   -1.7334    1.2535      6.00      6.00       12.0000
    8  C              -1.8894   -2.7149    1.7250      6.00      6.00       12.0000
    9  C              -0.5890   -1.8319    1.6225      6.00      6.00       12.0000
   10  C              -1.1364   -0.4435    2.0534      6.00      6.00       12.0000
   11  C              -0.3768   -1.5812    0.1177      6.00      6.00       12.0000
   12  C               0.5940   -2.2803   -0.6407      6.00      6.00       12.0000
   13  N               1.4184   -2.9000   -1.1842      7.00      7.00       14.0031
   14  H              -2.8335    0.4881    0.8489      1.00      1.00        1.0078
   15  H              -3.7374   -1.5385    2.0535      1.00      1.00        1.0078
   16  H              -3.5626   -2.0961    0.3803      1.00      1.00        1.0078
   17  H              -1.8181   -3.6149    1.1075      1.00      1.00        1.0078
   18  H              -2.0384   -3.0280    2.7641      1.00      1.00        1.0078
   19  H               0.2811   -2.2278    2.1484      1.00      1.00        1.0078
   20  H              -0.3965    0.3577    1.9606      1.00      1.00        1.0078
   21  H              -1.5643   -0.4461    3.0623      1.00      1.00        1.0078


 FRAGMENTS
 =========                                     Atoms in this Fragment     Cart. coord.s (Angstrom)
                                               -------------------------------------------------------
    1  C                                                 1  C           -1.3511   -0.7254   -0.2810
    2  C                                                 2  C           -1.6784   -0.2474   -1.6602
    3  C                                                 6  C           -2.2166   -0.4077    0.9339
    4  C                                                 7  C           -3.0148   -1.7334    1.2535
    5  C                                                 8  C           -1.8894   -2.7149    1.7250
    6  C                                                 9  C           -0.5890   -1.8319    1.6225
    7  C                                                10  C           -1.1364   -0.4435    2.0534
    8  C                                                11  C           -0.3768   -1.5812    0.1177
    9  C                                                12  C            0.5940   -2.2803   -0.6407
   10  F                                                 3  F           -0.7909   -0.6631   -2.6062
   11  F                                                 4  F           -2.9321   -0.6812   -2.0481
   12  F                                                 5  F           -1.7155    1.1307   -1.7060
   13  N                                                13  N            1.4184   -2.9000   -1.1842
   14  H                                                14  H           -2.8335    0.4881    0.8489
   15  H                                                15  H           -3.7374   -1.5385    2.0535
   16  H                                                16  H           -3.5626   -2.0961    0.3803
   17  H                                                17  H           -1.8181   -3.6149    1.1075
   18  H                                                18  H           -2.0384   -3.0280    2.7641
   19  H                                                19  H            0.2811   -2.2278    2.1484
   20  H                                                20  H           -0.3965    0.3577    1.9606
   21  H                                                21  H           -1.5643   -0.4461    3.0623



 =====================================
 S Y M M E T R Y ,   E L E C T R O N S
 =====================================
  
 Symmetry: NOSYM

 Irreducible Representations, including subspecies
 -------------------------------------------------
 A


 Configuration of Valence Electrons
 ==================================
 ( determined in the SCF procedure )

 Total:   96

 Net Charge: 0 (Nuclei minus Electrons)

 Aufbau principle for MO occupations will be applied through SCF cycle no.     100
 Thereafter, the program will assign electrons to MOs that are spatially
 similar to the occupied MOs in a "reference" cycle ("KeepOrbitals").
 The reference cycle is always the PREVIOUS cycle: it will evolve with
 the SCF procedure.
 ***************************************************************************************************



                                      ****************************************
                                      *  B U I L D : (Fragments, Functions)  *
                                      ****************************************
  



 =======
 S F O s  ***  (Symmetrized Fragment Orbitals)  ***
 =======
  
 SFOs are linear combinations of (valence) Fragment Orbitals (FOs), such that the SFOs transform as the
 irreducible representations of the (molecular) symmetry group. Each SFO is therefore characterized by
 an irrep of the molecule and by a few (or only one) generating FOs.
 The SFOs constitute a symmetry-adapted basis for the Fock matrix. The MO eigenvector coefficients in
 this basis provide a direct interpretation of the MOs in terms of Frontier Orbital Theory.

 The SFOs are combined with auxiliary Core Functions (CFs) to ensure orthogonalization on the (frozen)
 Core Orbitals (COs). The Core-orthogonalized SFOs (CSFOs) constitute the true Fock basis.

 The FOs, and hence also the (C)SFOs are combinations of the elementary basis functions (BAS). The basis
 functions that participate in the description of the SFOs depend on the irrep. The indices of the
 involved functions are printed below for each irrep.
 (The complete list of primitive basis functions is printed in another section)

 Total nr. of (C)SFOs (summation over all irreps) :   426

 NOTE: a (C)SFO that is defined as a combination of more than one FO is usually NOT normalized.



                                       === A ===
 Nr. of SFOs :  426
 Cartesian basis functions that participate in this irrep (total number =   486) :
      1     2     3     4     5     6     9    12     7    10
     13     8    11    14    15    16    17    18    19    20
     21    22    23    24    25    26    27    28    29    30
     31    32    33    34    35    36    39    42    37    40
     43    38    41    44    45    46    47    48    49    50
     51    52    53    54    55    56    57    58    59    60
     61    62    63    64    65    66    69    72    67    70
     73    68    71    74    75    76    77    78    79    80
     81    82    83    84    85    86    87    88    89    90
     91    92    93    94    95    96    99   102    97   100
    103    98   101   104   105   106   107   108   109   110
    111   112   113   114   115   116   117   118   119   120
    121   122   123   124   125   126   129   132   127   130
    133   128   131   134   135   136   137   138   139   140
    141   142   143   144   145   146   147   148   149   150
    151   152   153   154   155   156   159   162   157   160
    163   158   161   164   165   166   167   168   169   170
    171   172   173   174   175   176   177   178   179   180
    181   182   183   184   185   186   189   192   187   190
    193   188   191   194   195   196   197   198   199   200
    201   202   203   204   205   206   207   208   209   210
    211   212   213   214   215   216   219   222   217   220
    223   218   221   224   225   226   227   228   229   230
    231   232   233   234   235   236   237   238   239   240
    241   242   243   244   245   246   249   252   247   250
    253   248   251   254   255   256   257   258   259   260
    261   262   263   264   265   266   267   268   269   270
    271   272   273   274   275   276   279   282   277   280
    283   278   281   284   285   286   287   288   289   290
    291   292   293   294   295   296   297   298   299   300
    301   302   303   304   305   306   309   312   307   310
    313   308   311   314   315   316   317   318   319   320
    321   322   323   324   325   326   327   328   329   330
    331   332   333   334   335   336   339   342   337   340
    343   338   341   344   345   346   347   348   349   350
    351   352   353   354   355   356   357   358   359   360
    361   362   363   364   365   366   369   372   367   370
    373   368   371   374   375   376   377   378   379   380
    381   382   383   384   385   386   387   388   389   390
    391   392   393   394   395   396   397   398   399   400
    401   402   403   404   405   406   407   408   409   410
    411   412   413   414   415   416   417   418   419   420
    421   422   423   424   425   426   427   428   429   430
    431   432   433   434   435   436   437   438   439   440
    441   442   443   444   445   446   447   448   449   450
    451   452   453   454   455   456   457   458   459   460
    461   462   463   464   465   466   467   468   469   470
    471   472   473   474   475   476   477   478   479   480
    481   482   483   484   485   486

    SFO  (index         Fragment          Generating    Expansion in Fragment Orbitals
  indx  incl.CFs)   Occup   Orb.Energy   FragmentType  Coeff.   Orbital     on Fragment
 --------------------------------------------------------------------------------------
     1       1      2.000     -10.066 au  C             1.00      1 S               1
                        (    -273.921 eV)
     2       2      2.000      -0.501 au  C             1.00      2 S               1
                        (     -13.620 eV)
     3       3       --         0.373 au  C             1.00      3 S               1
                        (      10.158 eV)
     4       4       --         5.405 au  C             1.00      4 S               1
                        (     147.073 eV)
     5       5       --        49.848 au  C             1.00      5 S               1
                        (    1356.422 eV)
     6       6      0.667      -0.193 au  C             1.00      1 P:x             1
                        (      -5.239 eV)
     7       7       --         0.169 au  C             1.00      2 P:x             1
                        (       4.589 eV)
     8       8       --         2.013 au  C             1.00      3 P:x             1
                        (      54.789 eV)
     9       9      0.667      -0.193 au  C             1.00      1 P:y             1
                        (      -5.239 eV)
    10      10       --         0.169 au  C             1.00      2 P:y             1
                        (       4.589 eV)
    11      11       --         2.013 au  C             1.00      3 P:y             1
                        (      54.789 eV)
    12      12      0.667      -0.193 au  C             1.00      1 P:z             1
                        (      -5.239 eV)
    13      13       --         0.169 au  C             1.00      2 P:z             1
                        (       4.589 eV)
    14      14       --         2.013 au  C             1.00      3 P:z             1
                        (      54.789 eV)
    15      15       --         1.243 au  C             1.00      1 D:z2            1
                        (      33.824 eV)
    16      16       --         1.243 au  C             1.00      1 D:x2-y2         1
                        (      33.824 eV)
    17      17       --         1.243 au  C             1.00      1 D:xy            1
                        (      33.824 eV)
    18      18       --         1.243 au  C             1.00      1 D:xz            1
                        (      33.824 eV)
    19      19       --         1.243 au  C             1.00      1 D:yz            1
                        (      33.824 eV)
    20      20       --         4.016 au  C             1.00      1 F:z3            1
                        (     109.271 eV)
    21      21       --         4.016 au  C             1.00      1 F:z             1
                        (     109.271 eV)
    22      22       --         4.016 au  C             1.00      1 F:xyz           1
                        (     109.271 eV)
    23      23       --         4.016 au  C             1.00      1 F:z2x           1
                        (     109.271 eV)
    24      24       --         4.016 au  C             1.00      1 F:z2y           1
                        (     109.271 eV)
    25      25       --         4.016 au  C             1.00      1 F:x             1
                        (     109.271 eV)
    26      26       --         4.016 au  C             1.00      1 F:y             1
                        (     109.271 eV)
    27      27      2.000     -10.066 au  C             1.00      1 S               2
                        (    -273.921 eV)
    28      28      2.000      -0.501 au  C             1.00      2 S               2
                        (     -13.620 eV)
    29      29       --         0.373 au  C             1.00      3 S               2
                        (      10.158 eV)
    30      30       --         5.405 au  C             1.00      4 S               2
                        (     147.073 eV)
    31      31       --        49.848 au  C             1.00      5 S               2
                        (    1356.422 eV)
    32      32      0.667      -0.193 au  C             1.00      1 P:x             2
                        (      -5.239 eV)
    33      33       --         0.169 au  C             1.00      2 P:x             2
                        (       4.589 eV)
    34      34       --         2.013 au  C             1.00      3 P:x             2
                        (      54.789 eV)
    35      35      0.667      -0.193 au  C             1.00      1 P:y             2
                        (      -5.239 eV)
    36      36       --         0.169 au  C             1.00      2 P:y             2
                        (       4.589 eV)
    37      37       --         2.013 au  C             1.00      3 P:y             2
                        (      54.789 eV)
    38      38      0.667      -0.193 au  C             1.00      1 P:z             2
                        (      -5.239 eV)
    39      39       --         0.169 au  C             1.00      2 P:z             2
                        (       4.589 eV)
    40      40       --         2.013 au  C             1.00      3 P:z             2
                        (      54.789 eV)
    41      41       --         1.243 au  C             1.00      1 D:z2            2
                        (      33.824 eV)
    42      42       --         1.243 au  C             1.00      1 D:x2-y2         2
                        (      33.824 eV)
    43      43       --         1.243 au  C             1.00      1 D:xy            2
                        (      33.824 eV)
    44      44       --         1.243 au  C             1.00      1 D:xz            2
                        (      33.824 eV)
    45      45       --         1.243 au  C             1.00      1 D:yz            2
                        (      33.824 eV)
    46      46       --         4.016 au  C             1.00      1 F:z3            2
                        (     109.271 eV)
    47      47       --         4.016 au  C             1.00      1 F:z             2
                        (     109.271 eV)
    48      48       --         4.016 au  C             1.00      1 F:xyz           2
                        (     109.271 eV)
    49      49       --         4.016 au  C             1.00      1 F:z2x           2
                        (     109.271 eV)
    50      50       --         4.016 au  C             1.00      1 F:z2y           2
                        (     109.271 eV)
    51      51       --         4.016 au  C             1.00      1 F:x             2
                        (     109.271 eV)
    52      52       --         4.016 au  C             1.00      1 F:y             2
                        (     109.271 eV)
    53      53      2.000     -10.066 au  C             1.00      1 S               3
                        (    -273.921 eV)
    54      54      2.000      -0.501 au  C             1.00      2 S               3
                        (     -13.620 eV)
    55      55       --         0.373 au  C             1.00      3 S               3
                        (      10.158 eV)
    56      56       --         5.405 au  C             1.00      4 S               3
                        (     147.073 eV)
    57      57       --        49.848 au  C             1.00      5 S               3
                        (    1356.422 eV)
    58      58      0.667      -0.193 au  C             1.00      1 P:x             3
                        (      -5.239 eV)
    59      59       --         0.169 au  C             1.00      2 P:x             3
                        (       4.589 eV)
    60      60       --         2.013 au  C             1.00      3 P:x             3
                        (      54.789 eV)
    61      61      0.667      -0.193 au  C             1.00      1 P:y             3
                        (      -5.239 eV)
    62      62       --         0.169 au  C             1.00      2 P:y             3
                        (       4.589 eV)
    63      63       --         2.013 au  C             1.00      3 P:y             3
                        (      54.789 eV)
    64      64      0.667      -0.193 au  C             1.00      1 P:z             3
                        (      -5.239 eV)
    65      65       --         0.169 au  C             1.00      2 P:z             3
                        (       4.589 eV)
    66      66       --         2.013 au  C             1.00      3 P:z             3
                        (      54.789 eV)
[...]
                                   -4.38%     2 P:x             4.589  0.00     3 C
                                    4.13%     1 S              -6.532  1.00    18 H
                                    4.10%     1 S              -6.532  1.00    14 H
                                   -3.99%     2 P:z             4.589  0.00     1 C
                                    3.74%     1 S              -6.532  1.00    16 H
                                    3.56%     1 P:y           -11.127  1.67    12 F
                                    3.09%     2 S               2.394  0.00    14 H
                                    2.95%     2 P:x             4.589  0.00     9 C
                                    2.88%     2 P:x             4.589  0.00     8 C
                                    2.85%     1 P:z            -5.239  0.67     1 C
                                    2.80%     1 P:x            -5.239  0.67     5 C
                                   -2.78%     3 S              10.158  0.00     6 C
                                   -2.65%     2 P:z            11.654  0.00    10 F
                                    2.63%     1 P:y            -5.239  0.67     9 C
                                   -2.48%     2 S               2.394  0.00    18 H
                                   -2.42%     2 P:z             4.589  0.00     4 C
                                   -2.36%     3 S              14.073  0.00    13 N
                                   -2.33%     2 P:z             4.589  0.00     7 C
                                   -2.27%     2 P:x             4.589  0.00     6 C
                                    2.23%     2 S             -13.620  2.00     2 C
                                    2.00%     2 P:z             4.589  0.00     3 C
                                    1.85%     1 S              -6.532  1.00    21 H
                                    1.83%     1 P:x            -5.239  0.67     4 C
                                    1.83%     2 P:z             4.589  0.00     9 C
                                    1.66%     2 S             -13.620  2.00     6 C
                                    1.49%     2 P:y             4.589  0.00     8 C
                                    1.41%     2 S               2.394  0.00    16 H
                                    1.40%     1 P:z           -11.127  1.67    10 F
                                    1.40%     1 P:z            -5.239  0.67     6 C
                                    1.32%     2 S             -13.620  2.00     9 C
                                    1.31%     2 S               2.394  0.00    15 H
                                    1.28%     1 P:y            -5.239  0.67     3 C
                                    1.25%     3 S               0.624  0.00    11 F
                                    1.13%     1 P:y            -5.239  0.67     5 C
                                   -1.13%     2 S             -13.620  2.00     1 C
                                    1.10%     1 P:z            -5.239  0.67     5 C
                                   -1.07%     3 S              10.158  0.00     1 C
                                    1.04%     1 P:y           -11.127  1.67    11 F

 Energy gradients wrt nuclear displacements
 ==========================================

     Atom      Cartesian (a.u./angstrom)
                 X         Y         Z
 ----------------------------------------
     1 C     0.000010 -0.000020 -0.000032
     2 C     0.000005 -0.000033 -0.000017
     3 F     0.000032 -0.000017  0.000003
     4 F     0.000019 -0.000062 -0.000028
     5 F    -0.000025 -0.000018 -0.000027
     6 C    -0.000011  0.000011  0.000037
     7 C    -0.000045 -0.000021 -0.000027
     8 C     0.000041 -0.000036  0.000022
     9 C    -0.000005  0.000055  0.000017
    10 C    -0.000051  0.000003 -0.000035
    11 C     0.000009  0.000050  0.000016
    12 C     0.000056 -0.000005  0.000059
    13 N     0.000049  0.000079  0.000051
    14 H    -0.000048 -0.000031 -0.000045
    15 H    -0.000008 -0.000039 -0.000030
    16 H     0.000030 -0.000052 -0.000019
    17 H     0.000044 -0.000000  0.000018
    18 H     0.000010  0.000016  0.000008
    19 H     0.000001  0.000054  0.000037
    20 H    -0.000058  0.000042  0.000000
    21 H    -0.000054  0.000024 -0.000008
 ----------------------------------------



 =======================================================================
 Electrostatic potential at the Nuclei due to electrons and other nuclei
 =======================================================================
  
         Atom                  Potential
         ----                  ---------
     1)   C                  14.72990740
     2)   C                  14.51532613
     3)   F                  26.60415950
     4)   F                  26.60768792
     5)   F                  26.60824214
     6)   C                  14.73948222
     7)   C                  14.76027937
     8)   C                  14.76000910
     9)   C                  14.73868677
    10)   C                  14.75773851
    11)   C                  14.71912762
    12)   C                  14.75152770
    13)   N                  18.42664725
    14)   H                   1.08553149
    15)   H                   1.09830806
    16)   H                   1.10182431
    17)   H                   1.10069437
    18)   H                   1.09795166
    19)   H                   1.08597670
    20)   H                   1.09376023
    21)   H                   1.09112926
 Mulliken charges used for AMS results%charges...


    =====================
     CALCULATION RESULTS
    =====================

Energy (hartree)            -4.57083426

Gradients (hartree/bohr)
  Index   Atom            d/dx            d/dy            d/dz
      1      C    0.0000055311   -0.0000103612   -0.0000169831
      2      C    0.0000026969   -0.0000176133   -0.0000087634
      3      F    0.0000170168   -0.0000089556    0.0000016250
      4      F    0.0000100370   -0.0000327085   -0.0000146671
      5      F   -0.0000132063   -0.0000096686   -0.0000143248
      6      C   -0.0000060253    0.0000060251    0.0000197455
      7      C   -0.0000236959   -0.0000110558   -0.0000142877
      8      C    0.0000217563   -0.0000188171    0.0000117397
      9      C   -0.0000027960    0.0000291557    0.0000088891
     10      C   -0.0000272421    0.0000014177   -0.0000185456
     11      C    0.0000045371    0.0000264827    0.0000083663
     12      C    0.0000298651   -0.0000025456    0.0000309696
     13      N    0.0000258253    0.0000419732    0.0000269495
     14      H   -0.0000253661   -0.0000166249   -0.0000238746
     15      H   -0.0000043332   -0.0000208049   -0.0000158480
     16      H    0.0000157695   -0.0000273581   -0.0000100148
     17      H    0.0000233556   -0.0000002596    0.0000094031
     18      H    0.0000052352    0.0000082964    0.0000042927
     19      H    0.0000004196    0.0000285447    0.0000194296
     20      H   -0.0000308776    0.0000220021    0.0000000421
     21      H   -0.0000285031    0.0000128757   -0.0000041429


--------------
Atomic charges
--------------
  Index   Atom    Charge
      1      C   -0.0267
      2      C    1.1828
      3      F   -0.3911
      4      F   -0.4063
      5      F   -0.4038
      6      C    0.1724
      7      C    0.4282
      8      C    0.4298
      9      C    0.1794
     10      C    0.4378
     11      C    0.0118
     12      C    0.1295
     13      N   -0.2542
     14      H   -0.1758
     15      H   -0.1863
     16      H   -0.1877
     17      H   -0.1887
     18      H   -0.1870
     19      H   -0.1645
     20      H   -0.1927
     21      H   -0.2069


Dipole moment vector    (Debye):    -2.68152509    0.79624706    4.80420230
              magnitude (Debye):     5.55922171


-----------------------
Molecular orbitals info
-----------------------
n orbitals:              426
n spin:                    1

Note: only printing virtual orbitals with
      energy smaller than HOMO + 100. eV

HOMO (eV):              -6.9387
LUMO (eV):              -3.0363
HOMO-LUMO gap (eV):      3.9025

   Index   Energy (eV)    Occupation
     264       93.0301         0.000       
     263       92.3995         0.000       
     262       92.0754         0.000       
     261       91.6700         0.000       
     260       91.3324         0.000       
     259       91.1870         0.000       
     258       90.9661         0.000       
     257       90.6218         0.000       
     256       90.0513         0.000       
     255       89.4649         0.000       
     254       89.0963         0.000       
     253       88.7617         0.000       
     252       87.6008         0.000       
     251       86.7622         0.000       
     250       86.1478         0.000       
     249       85.7375         0.000       
     248       84.8326         0.000       
     247       84.0002         0.000       
     246       83.2051         0.000       
     245       82.8716         0.000       
     244       81.9238         0.000       
     243       81.4670         0.000       
     242       80.0587         0.000       
     241       79.4528         0.000       
     240       79.4230         0.000       
     239       78.5378         0.000       
     238       77.9696         0.000       
     237       76.9676         0.000       
     236       76.5213         0.000       
     235       76.3668         0.000       
     234       75.8998         0.000       
     233       75.5914         0.000       
     232       75.3238         0.000       
     231       74.8522         0.000       
     230       74.5576         0.000       
     229       74.0972         0.000       
     228       73.7507         0.000       
     227       73.0683         0.000       
     226       71.2929         0.000       
     225       70.8683         0.000       
     224       70.0414         0.000       
     223       68.5732         0.000       
     222       68.3638         0.000       
     221       67.7511         0.000       
     220       67.4370         0.000       
     219       66.9301         0.000       
     218       65.9149         0.000       
     217       65.6659         0.000       
     216       64.9134         0.000       
     215       64.0395         0.000       
     214       63.4554         0.000       
     213       62.9926         0.000       
     212       62.1842         0.000       
     211       61.6876         0.000       
     210       60.7483         0.000       
     209       60.2969         0.000       
     208       59.8709         0.000       
     207       59.6279         0.000       
     206       58.5070         0.000       
     205       57.9299         0.000       
     204       57.6289         0.000       
     203       57.1808         0.000       
     202       56.4281         0.000       
     201       56.0737         0.000       
     200       55.0271         0.000       
     199       54.3534         0.000       
     198       54.0547         0.000       
     197       53.4386         0.000       
     196       53.1349         0.000       
     195       52.5603         0.000       
     194       51.6701         0.000       
     193       51.2640         0.000       
     192       50.9328         0.000       
     191       50.6968         0.000       
     190       49.8141         0.000       
     189       49.0650         0.000       
     188       48.5245         0.000       
     187       48.0784         0.000       
     186       47.9145         0.000       
     185       47.1464         0.000       
     184       46.9094         0.000       
     183       46.4129         0.000       
     182       45.9520         0.000       
     181       45.0319         0.000       
     180       44.9453         0.000       
     179       44.2352         0.000       
     178       43.9177         0.000       
     177       43.7188         0.000       
     176       43.4871         0.000       
     175       43.0951         0.000       
     174       42.9075         0.000       
     173       42.3838         0.000       
     172       41.7183         0.000       
     171       41.1699         0.000       
     170       40.9405         0.000       
     169       40.3224         0.000       
     168       40.0779         0.000       
     167       39.5607         0.000       
     166       38.9822         0.000       
     165       38.5983         0.000       
     164       38.1979         0.000       
     163       37.2776         0.000       
     162       37.0234         0.000       
     161       36.5126         0.000       
     160       36.4073         0.000       
     159       36.2184         0.000       
     158       35.9304         0.000       
     157       35.6770         0.000       
     156       35.1885         0.000       
     155       34.4184         0.000       
     154       34.1179         0.000       
     153       33.7633         0.000       
     152       33.6634         0.000       
     151       33.5312         0.000       
     150       32.8945         0.000       
     149       32.6705         0.000       
     148       31.7701         0.000       
     147       31.4142         0.000       
     146       31.2300         0.000       
     145       30.8972         0.000       
     144       30.3822         0.000       
     143       29.8615         0.000       
     142       29.6619         0.000       
     141       29.1091         0.000       
     140       29.0211         0.000       
     139       28.9360         0.000       
     138       28.3788         0.000       
     137       28.0445         0.000       
     136       27.6809         0.000       
     135       27.1920         0.000       
     134       26.7562         0.000       
     133       26.0376         0.000       
     132       25.6792         0.000       
     131       25.4274         0.000       
     130       24.9176         0.000       
     129       24.3919         0.000       
     128       23.9936         0.000       
     127       23.5633         0.000       
     126       23.4352         0.000       
     125       23.1665         0.000       
     124       22.8980         0.000       
     123       22.2080         0.000       
     122       21.6746         0.000       
     121       21.4543         0.000       
     120       21.2648         0.000       
     119       20.7206         0.000       
     118       20.3635         0.000       
     117       19.7974         0.000       
     116       19.1473         0.000       
     115       18.8279         0.000       
     114       18.5955         0.000       
     113       18.2138         0.000       
     112       17.8180         0.000       
     111       17.7247         0.000       
     110       16.3973         0.000       
     109       16.0018         0.000       
     108       15.7314         0.000       
     107       15.4561         0.000       
     106       14.5765         0.000       
     105       13.3943         0.000       
     104       13.2654         0.000       
     103       12.8401         0.000       
     102       12.6552         0.000       
     101       12.2823         0.000       
     100       11.8238         0.000       
      99       11.6704         0.000       
      98       11.4595         0.000       
      97       11.0643         0.000       
      96       10.7333         0.000       
      95       10.6062         0.000       
      94       10.4274         0.000       
      93       10.0544         0.000       
      92        9.9534         0.000       
      91        9.4394         0.000       
      90        9.2529         0.000       
      89        9.0095         0.000       
      88        8.8316         0.000       
      87        8.7162         0.000       
      86        8.3779         0.000       
      85        8.0850         0.000       
      84        8.0005         0.000       
      83        7.5936         0.000       
      82        7.0905         0.000       
      81        6.6113         0.000       
      80        6.1993         0.000       
      79        6.0809         0.000       
      78        5.9842         0.000       
      77        5.5373         0.000       
      76        5.0948         0.000       
      75        4.8310         0.000       
      74        4.6660         0.000       
      73        4.5664         0.000       
      72        4.2558         0.000       
      71        3.9673         0.000       
      70        3.6725         0.000       
      69        3.3610         0.000       
      68        3.3252         0.000       
      67        3.2033         0.000       
      66        3.0485         0.000       
      65        2.7970         0.000       
      64        2.4888         0.000       
      63        2.4580         0.000       
      62        2.0129         0.000       
      61        1.7837         0.000       
      60        1.5970         0.000       
      59        1.2139         0.000       
      58        1.0651         0.000       
      57        0.9093         0.000       
      56        0.8428         0.000       
      55        0.6330         0.000       
      54        0.2706         0.000       
      53        0.1511         0.000       
      52        0.0086         0.000       
      51       -0.6523         0.000       
      50       -0.7139         0.000       
      49       -3.0363         0.000 < LUMO
      48       -6.9387         2.000 < HOMO
      47       -8.0413         2.000       
      46       -8.4916         2.000       
      45       -8.7027         2.000       
      44       -8.8469         2.000       
      43       -8.8808         2.000       
      42       -9.1956         2.000       
      41       -9.3571         2.000       
      40       -9.4894         2.000       
      39       -9.6576         2.000       
      38       -9.8490         2.000       
      37      -10.0021         2.000       
      36      -10.4142         2.000       
      35      -10.5222         2.000       
      34      -11.0501         2.000       
      33      -11.2647         2.000       
      32      -11.3323         2.000       
      31      -11.4812         2.000       
      30      -12.0592         2.000       
      29      -12.6165         2.000       
      28      -14.2368         2.000       
      27      -14.3778         2.000       
      26      -14.6196         2.000       
      25      -14.8982         2.000       
      24      -15.2139         2.000       
      23      -16.0823         2.000       
      22      -17.6147         2.000       
      21      -18.2496         2.000       
      20      -19.1446         2.000       
      19      -20.0485         2.000       
      18      -22.5587         2.000       
      17      -23.1347         2.000       
      16      -30.6163         2.000       
      15      -30.7651         2.000       
      14      -32.8232         2.000       
      13     -270.6945         2.000       
      12     -270.6999         2.000       
      11     -270.8017         2.000       
      10     -271.2516         2.000       
       9     -271.2824         2.000       
       8     -271.3527         2.000       
       7     -271.6698         2.000       
       6     -271.9073         2.000       
       5     -277.2108         2.000       
       4     -381.8556         2.000       
       3     -662.5729         2.000       
       2     -662.5900         2.000       
       1     -662.6814         2.000       

AMS application finished. Exiting.
NORMAL TERMINATION
     Total cpu time:    1741.42
  Total system time:       8.98
 Total elapsed time:    1759.16
NORMAL TERMINATION
