
 *******************************************************************************
 *                                                                             *
 *  --------------------------------                                           *
 *   Amsterdam Modeling Suite (AMS)              2026.103                      *
 *  --------------------------------                                           *
 *                                               r260501 2026-05-01 873454b5   *
 *                                                                             *
 *                                                                             *
 *                              =================                              *
 *                              |               |                              *
 *                              |     A M S     |                              *
 *                              |               |                              *
 *                              =================                              *
 *                                                                             *
 *                                                                             *
 *   Online information and documentation:  https://www.scm.com/support/       *
 *   E-mail:  support@scm.com   info@scm.com                                   *
 *                                                                             *
 *   Scientific publications using AMS results must be properly referenced     *
 *   See the User Manuals (or the web site) for recommended citations          *
 *   The terms and conditions of the End User License Agreement apply to       *
 *   the use of AMS, https://www.scm.com/license-terms/                        *
 *                                                                             *
 **********************  x86_64_linux_intel / intelmpi  ************************
 
 Licensed to: Jong-June Jeon / University of Seoul 2026-06-02 13:44:15
 SCM User ID: u30731
  
 AMS 2026.103  RunTime: Jun04-2026 09:41:24  ShM Nodes: 1  Procs: 1

 AMS jobname: c3_eda
 AMS jobid  : 1488945233

 Start   directory: /gpfs/home1/yeseo1ee/projects/eda-asm-prediction/ADF_800/adf_outputs/batch_005/qmrxn20_e2_E_A_A_D_A_B/
 Results directory: /gpfs/home1/yeseo1ee/projects/eda-asm-prediction/ADF_800/adf_outputs/batch_005/qmrxn20_e2_E_A_A_D_A_B/c3_eda.results/
 Scratch directory: /tmp/amstmp_c3_eda_kid0.1488945233/

 RNG seed: 520075113 369264829 1368477666 969082563 117871842 -2132020425 -1121975105 372330765



                      ************************************************************************
                      *  ADF 2026.103  RunTime: Jun04-2026 09:41:25  ShM Nodes: 1  Procs: 1  *
                      ************************************************************************
  

       ****************************
       * SINGLE POINT CALCULATION *
       ****************************

--------
Geometry
--------
Formula: C3H8F2N
Atoms
  Index Symbol   x (angstrom)   y (angstrom)   z (angstrom)
      1      F    -2.22887412    -2.05025083     0.68523481 adf.f=fA
      2      C    -0.01660139     0.17377297    -0.30117554 adf.f=fB
      3      C    -0.20046698     0.13456518     1.20919216 adf.f=fB
      4      F     1.37486217     0.20296807    -0.55680785 adf.f=fB
      5      H    -1.27574497     0.19002921     1.39463197 adf.f=fB
      6      H    -0.40056633     1.12450352    -0.69550782 adf.f=fB
      7      H     0.29321566     1.02043228     1.63213899 adf.f=fB
      8      N    -0.59663197    -0.89632976    -1.05074242 adf.f=fB
      9      H    -1.60518606    -0.79362446    -0.94490573 adf.f=fB
     10      H    -0.53182519    -1.74461788    -0.49022277 adf.f=fB
     11      C     0.29584919    -1.16165074     1.84487358 adf.f=fB
     12      H    -0.46088741    -1.91916862     1.61048771 adf.f=fB
     13      H     1.28604785    -1.43715911     1.46986970 adf.f=fB
     14      H     0.36411954    -1.05326984     2.93286319 adf.f=fB

Total System Charge             -1.00000


----------------
ADF Engine Input
----------------
 
   Basis
     Type TZ2P
     Core None
   End
   XC
     GGA BLYP
     Dispersion GRIMME3 BJDAMP
   End
   Symmetry NOSYM
   NumericalQuality Normal
   Unrestricted No
   SCF
     Iterations 200
     Converge 1.0e-6
   End
   fragments
     fA c1_fragA_ts.results/adf.rkf
     fB c2_fragB_ts.results/adf.rkf
   end
   etsnocv
     enocv 0.05
     ekmin 0.5
   end
   print etslowdin
   Save TAPE21
 

 Title: *** (NO TITLE) ***

 *** adf ***



 ===========================
 A T T A C H E D   F I L E S
 ===========================
  



 ===============================
 M O D E L   P A R A M E T E R S
 ===============================
  
 DENSITY FUNCTIONAL POTENTIAL (scf)
    LDA:                               Exchange only                           == Not Default ==
    Gradient Corrections:              Becke88 LYP                             == Not Default ==

 SPIN  (restricted / unrestr.)
    Molecule:                          Restricted                               
    Fragments:                         Restricted                               

 OTHER ASPECTS
    Relativistic Corrections:          scalar (ZORA,MAPA)                       

    Nuclear Charge Density Model:      Point Charge Nuclei                      
    Core Treatment:                    Frozen Orbital(s)                        

    Hyperfine or Zeeman Interaction:   ---                                      

 Settings for Grimme D3 dispersion correction

      damping                        BJ
      s6                          1.000
      s8                          2.700
      a1                          0.430
      a2                          4.236

 Other (technical) parameters

      alpha                      14.000
      version                         4
 


 Fragment File(s)
 ----------------
 fA:
         file : c1_fragA_ts.results/adf.rkf
         jobid: 564708956
         title: *** adf ***
 fB:
         file : c2_fragB_ts.results/adf.rkf
         jobid: 285546307
         title: *** adf ***



 ===============
 G E O M E T R Y  ***  3D  Molecule  ***
 ===============
  

 ATOMS
 =====                            X Y Z                    CHARGE
                                (Angstrom)             Nucl     +Core       At.Mass
                       --------------------------    ----------------       -------
    1  F              -2.2289   -2.0503    0.6852      9.00      9.00       18.9984
    2  C              -0.0166    0.1738   -0.3012      6.00      6.00       12.0000
    3  C              -0.2005    0.1346    1.2092      6.00      6.00       12.0000
    4  F               1.3749    0.2030   -0.5568      9.00      9.00       18.9984
    5  H              -1.2757    0.1900    1.3946      1.00      1.00        1.0078
    6  H              -0.4006    1.1245   -0.6955      1.00      1.00        1.0078
    7  H               0.2932    1.0204    1.6321      1.00      1.00        1.0078
    8  N              -0.5966   -0.8963   -1.0507      7.00      7.00       14.0031
    9  H              -1.6052   -0.7936   -0.9449      1.00      1.00        1.0078
   10  H              -0.5318   -1.7446   -0.4902      1.00      1.00        1.0078
   11  C               0.2958   -1.1617    1.8449      6.00      6.00       12.0000
   12  H              -0.4609   -1.9192    1.6105      1.00      1.00        1.0078
   13  H               1.2860   -1.4372    1.4699      1.00      1.00        1.0078
   14  H               0.3641   -1.0533    2.9329      1.00      1.00        1.0078


 FRAGMENTS
 =========                                     Atoms in this Fragment     Cart. coord.s (Angstrom)
                                               -------------------------------------------------------
    1  fA                                                1  F           -2.2289   -2.0503    0.6852
    2  fB                                                2  C           -0.0166    0.1738   -0.3012
                                                         3  C           -0.2005    0.1346    1.2092
                                                        11  C            0.2958   -1.1617    1.8449
                                                         4  F            1.3749    0.2030   -0.5568
                                                         5  H           -1.2757    0.1900    1.3946
                                                         6  H           -0.4006    1.1245   -0.6955
                                                         7  H            0.2932    1.0204    1.6321
                                                         9  H           -1.6052   -0.7936   -0.9449
                                                        10  H           -0.5318   -1.7446   -0.4902
                                                        12  H           -0.4609   -1.9192    1.6105
                                                        13  H            1.2860   -1.4372    1.4699
                                                        14  H            0.3641   -1.0533    2.9329
                                                         8  N           -0.5966   -0.8963   -1.0507


 Interatomic Distance Matrix (Angstrom)
 --------------------------------------

   1)     0.000
   2)     3.288   0.000
   3)     3.027   1.522   0.000
   4)     4.428   1.415   2.368   0.000
   5)     2.536   2.112   1.093   3.292   0.000
   6)     3.915   1.099   2.156   2.005   2.451   0.000
   7)     4.085   2.133   1.099   2.575   1.791   2.431   0.000
   8)     2.648   1.429   2.515   2.311   2.761   2.061   3.415   0.000
   9)     2.151   1.968   2.734   3.166   2.559   2.279   3.679   1.019   0.000
  10)     2.087   1.995   2.555   2.726   2.802   2.879   3.582   1.019   1.504   0.000
  11)     2.917   2.547   1.527   2.966   2.121   3.488   2.192   3.042   3.396   2.545
          0.000
  12)     2.000   2.869   2.109   3.546   2.271   3.819   3.035   2.854   3.018   2.109
          1.096   0.000
  13)     3.653   2.726   2.179   2.609   3.036   3.754   2.656   3.192   3.822   2.691
          1.094   1.818   0.000
  14)     3.573   3.480   2.168   3.844   2.569   4.300   2.449   4.101   4.357   3.605
          1.096   1.783   1.771   0.000

 Min. Distance =    1.0188
 Max. Distance =    4.4279



 =====================================
 S Y M M E T R Y ,   E L E C T R O N S
 =====================================
  
 Symmetry: NOSYM

 Irreducible Representations, including subspecies
 -------------------------------------------------
 A


 Configuration of Valence Electrons
 ==================================
 ( determined in the SCF procedure )

 Total:   52

 Net Charge: -1 (Nuclei minus Electrons)

 Aufbau principle for MO occupations will be applied through SCF cycle no.     100
 Thereafter, the program will assign electrons to MOs that are spatially
 similar to the occupied MOs in a "reference" cycle ("KeepOrbitals").
 The reference cycle is always the PREVIOUS cycle: it will evolve with
 the SCF procedure.
 ***************************************************************************************************



                                      ****************************************
                                      *  B U I L D : (Fragments, Functions)  *
                                      ****************************************
  

 The individual fragments are copies of the corresponding 'Master' fragments defined on the fragment files.
 However, they may have been rotated (and translated) with respect to the Master. The local coordinate axes
 of each fragment (which define for instance the spatial orientation in the current molecule of a fragment
 P:x orbital) are not necessarily those of the molecule.
 The local frame (if different from the molecular one) is printed to enable an interpretation of the expan-
 sion of an MO in Fragment Orbitals.



                                              ************************
                                              *  Fragment Type : fA  *
                                              ************************
  

 Fragment no.    1   (in the list of all fragments)
 -----------------
 The local coordinate frame is identical to the molecular frame.

 Check Atomic Coordinates:

                  Master (on file)          After Computed Tranformation               As specified on Input
           ----------------------------     ----------------------------     ---------------------------------
     1)    -2.22887  -2.05025   0.68523     -2.22887  -2.05025   0.68523       1  -2.22887  -2.05025   0.68523



                                              ************************
                                              *  Fragment Type : fB  *
                                              ************************
  

 Fragment no.    2   (in the list of all fragments)
 -----------------
 The local coordinate frame is identical to the molecular frame.

 Check Atomic Coordinates:

                  Master (on file)          After Computed Tranformation               As specified on Input
           ----------------------------     ----------------------------     ---------------------------------
     1)    -0.01660   0.17377  -0.30118     -0.01660   0.17377  -0.30118       2  -0.01660   0.17377  -0.30118
     2)    -0.20047   0.13457   1.20919     -0.20047   0.13457   1.20919       3  -0.20047   0.13457   1.20919
     3)     0.29585  -1.16165   1.84487      0.29585  -1.16165   1.84487      11   0.29585  -1.16165   1.84487
     4)     1.37486   0.20297  -0.55681      1.37486   0.20297  -0.55681       4   1.37486   0.20297  -0.55681
     5)    -1.27574   0.19003   1.39463     -1.27574   0.19003   1.39463       5  -1.27574   0.19003   1.39463
     6)    -0.40057   1.12450  -0.69551     -0.40057   1.12450  -0.69551       6  -0.40057   1.12450  -0.69551
     7)     0.29322   1.02043   1.63214      0.29322   1.02043   1.63214       7   0.29322   1.02043   1.63214
     8)    -1.60519  -0.79362  -0.94491     -1.60519  -0.79362  -0.94491       9  -1.60519  -0.79362  -0.94491
     9)    -0.53183  -1.74462  -0.49022     -0.53183  -1.74462  -0.49022      10  -0.53183  -1.74462  -0.49022
    10)    -0.46089  -1.91917   1.61049     -0.46089  -1.91917   1.61049      12  -0.46089  -1.91917   1.61049
    11)     1.28605  -1.43716   1.46987      1.28605  -1.43716   1.46987      13   1.28605  -1.43716   1.46987
    12)     0.36412  -1.05327   2.93286      0.36412  -1.05327   2.93286      14   0.36412  -1.05327   2.93286
    13)    -0.59663  -0.89633  -1.05074     -0.59663  -0.89633  -1.05074       8  -0.59663  -0.89633  -1.05074



 =======
 S F O s  ***  (Symmetrized Fragment Orbitals)  ***
 =======
  
 SFOs are linear combinations of (valence) Fragment Orbitals (FOs), such that the SFOs transform as the
 irreducible representations of the (molecular) symmetry group. Each SFO is therefore characterized by
 an irrep of the molecule and by a few (or only one) generating FOs.
 The SFOs constitute a symmetry-adapted basis for the Fock matrix. The MO eigenvector coefficients in
 this basis provide a direct interpretation of the MOs in terms of Frontier Orbital Theory.

 The SFOs are combined with auxiliary Core Functions (CFs) to ensure orthogonalization on the (frozen)
 Core Orbitals (COs). The Core-orthogonalized SFOs (CSFOs) constitute the true Fock basis.

 The FOs, and hence also the (C)SFOs are combinations of the elementary basis functions (BAS). The basis
 functions that participate in the description of the SFOs depend on the irrep. The indices of the
 involved functions are printed below for each irrep.
 (The complete list of primitive basis functions is printed in another section)

 Total nr. of (C)SFOs (summation over all irreps) :   244

 NOTE: a (C)SFO that is defined as a combination of more than one FO is usually NOT normalized.



                                       === A ===
 Nr. of SFOs :  244
 Cartesian basis functions that participate in this irrep (total number =   276) :
      1     2     3     4     5     6     9    12     7    10
     13     8    11    14    15    16    17    18    19    20
     21    22    23    24    25    26    27    28    29    30
     31    32    33    34    35    36    39    42    37    40
     43    38    41    44    45    46    47    48    49    50
     51    52    53    54    55    56    57    58    59    60
     61    62    63    64    65    66    69    72    67    70
     73    68    71    74    75    76    77    78    79    80
     81    82    83    84    85    86    87    88    89    90
     91    92    93    94    95    96    99   102    97   100
    103    98   101   104   105   106   107   108   109   110
    111   112   113   114   115   116   117   118   119   120
    121   122   123   124   125   126   129   132   127   130
    133   128   131   134   135   136   137   138   139   140
    141   142   143   144   145   146   147   148   149   150
    151   152   153   154   155   156   157   158   159   160
    161   162   163   164   165   166   167   168   169   170
    171   172   173   174   175   176   177   178   179   180
    181   182   183   184   185   186   187   188   189   190
    191   192   193   194   195   196   197   198   199   200
    201   202   203   204   205   206   207   208   209   210
    211   212   213   214   215   216   217   218   219   220
    221   222   223   224   225   226   227   228   229   230
    231   232   233   234   235   236   237   238   239   240
    241   242   243   244   245   246   247   248   249   250
    251   252   255   258   253   256   259   254   257   260
    261   262   263   264   265   266   267   268   269   270
    271   272   273   274   275   276

    SFO  (index         Fragment          Generating    Expansion in Fragment Orbitals
  indx  incl.CFs)   Occup   Orb.Energy   FragmentType  Coeff.   Orbital     on Fragment
 --------------------------------------------------------------------------------------
     1       1      2.000     -23.816 au  fA            1.00      1 A               1
                        (    -648.061 eV)
     2       2      2.000      -0.558 au  fA            1.00      2 A               1
                        (     -15.175 eV)
     3       3      2.000       0.108 au  fA            1.00      3 A               1
                        (       2.943 eV)
     4       4      2.000       0.108 au  fA            1.00      4 A               1
                        (       2.943 eV)
     5       5      2.000       0.108 au  fA            1.00      5 A               1
                        (       2.943 eV)
     6       6       --         0.286 au  fA            1.00      6 A               1
                        (       7.775 eV)
     7       7       --         0.812 au  fA            1.00      7 A               1
                        (      22.094 eV)
     8       8       --         0.812 au  fA            1.00      8 A               1
                        (      22.094 eV)
     9       9       --         0.812 au  fA            1.00      9 A               1
                        (      22.094 eV)
    10      10       --         1.565 au  fA            1.00     10 A               1
                        (      42.594 eV)
    11      11       --         1.565 au  fA            1.00     11 A               1
                        (      42.594 eV)
    12      12       --         1.565 au  fA            1.00     12 A               1
                        (      42.594 eV)
    13      13       --         1.565 au  fA            1.00     13 A               1
                        (      42.594 eV)
    14      14       --         1.565 au  fA            1.00     14 A               1
                        (      42.594 eV)
    15      15       --         2.036 au  fA            1.00     15 A               1
                        (      55.390 eV)
    16      16       --         3.895 au  fA            1.00     16 A               1
                        (     106.000 eV)
    17      17       --         3.895 au  fA            1.00     17 A               1
                        (     106.000 eV)
    18      18       --         3.895 au  fA            1.00     18 A               1
                        (     106.000 eV)
    19      19       --         3.895 au  fA            1.00     19 A               1
                        (     106.000 eV)
    20      20       --         3.895 au  fA            1.00     20 A               1
                        (     106.000 eV)
    21      21       --         3.895 au  fA            1.00     21 A               1
                        (     106.000 eV)
    22      22       --         3.895 au  fA            1.00     22 A               1
                        (     106.000 eV)
    23      23       --         5.080 au  fA            1.00     23 A               1
                        (     138.227 eV)
    24      24       --         5.080 au  fA            1.00     24 A               1
                        (     138.227 eV)
    25      25       --         5.080 au  fA            1.00     25 A               1
                        (     138.227 eV)
    26      26       --        48.370 au  fA            1.00     26 A               1
                        (    1316.209 eV)
    27      27      2.000     -24.280 au  fB            1.00      1 A               2
                        (    -660.684 eV)
    28      28      2.000     -14.020 au  fB            1.00      2 A               2
                        (    -381.493 eV)
    29      29      2.000     -10.019 au  fB            1.00      3 A               2
                        (    -272.621 eV)
    30      30      2.000      -9.926 au  fB            1.00      4 A               2
                        (    -270.107 eV)
    31      31      2.000      -9.918 au  fB            1.00      5 A               2
                        (    -269.894 eV)
    32      32      2.000      -1.077 au  fB            1.00      6 A               2
                        (     -29.297 eV)
    33      33      2.000      -0.833 au  fB            1.00      7 A               2
                        (     -22.677 eV)
    34      34      2.000      -0.707 au  fB            1.00      8 A               2
                        (     -19.228 eV)
    35      35      2.000      -0.613 au  fB            1.00      9 A               2
                        (     -16.671 eV)
    36      36      2.000      -0.536 au  fB            1.00     10 A               2
                        (     -14.595 eV)
    37      37      2.000      -0.472 au  fB            1.00     11 A               2
                        (     -12.844 eV)
    38      38      2.000      -0.444 au  fB            1.00     12 A               2
                        (     -12.069 eV)
    39      39      2.000      -0.421 au  fB            1.00     13 A               2
                        (     -11.458 eV)
    40      40      2.000      -0.407 au  fB            1.00     14 A               2
                        (     -11.089 eV)
    41      41      2.000      -0.381 au  fB            1.00     15 A               2
                        (     -10.365 eV)
    42      42      2.000      -0.346 au  fB            1.00     16 A               2
                        (      -9.410 eV)
    43      43      2.000      -0.331 au  fB            1.00     17 A               2
                        (      -8.996 eV)
    44      44      2.000      -0.320 au  fB            1.00     18 A               2
                        (      -8.712 eV)
    45      45      2.000      -0.300 au  fB            1.00     19 A               2
                        (      -8.167 eV)
    46      46      2.000      -0.287 au  fB            1.00     20 A               2
                        (      -7.808 eV)
    47      47      2.000      -0.234 au  fB            1.00     21 A               2
                        (      -6.358 eV)
    48      48       --        -0.024 au  fB            1.00     22 A               2
                        (      -0.662 eV)
    49      49       --         0.005 au  fB            1.00     23 A               2
                        (       0.138 eV)
    50      50       --         0.014 au  fB            1.00     24 A               2
                        (       0.380 eV)
    51      51       --         0.037 au  fB            1.00     25 A               2
                        (       0.998 eV)
    52      52       --         0.050 au  fB            1.00     26 A               2
                        (       1.348 eV)
    53      53       --         0.058 au  fB            1.00     27 A               2
                        (       1.571 eV)
    54      54       --         0.064 au  fB            1.00     28 A               2
                        (       1.738 eV)
    55      55       --         0.084 au  fB            1.00     29 A               2
                        (       2.292 eV)
    56      56       --         0.090 au  fB            1.00     30 A               2
                        (       2.459 eV)
    57      57       --         0.114 au  fB            1.00     31 A               2
                        (       3.108 eV)
    58      58       --         0.138 au  fB            1.00     32 A               2
                        (       3.756 eV)
    59      59       --         0.146 au  fB            1.00     33 A               2
                        (       3.986 eV)
    60      60       --         0.155 au  fB            1.00     34 A               2
                        (       4.206 eV)
    61      61       --         0.184 au  fB            1.00     35 A               2
                        (       5.007 eV)
    62      62       --         0.196 au  fB            1.00     36 A               2
                        (       5.339 eV)
    63      63       --         0.218 au  fB            1.00     37 A               2
                        (       5.938 eV)
    64      64       --         0.232 au  fB            1.00     38 A               2
                        (       6.324 eV)
    65      65       --         0.256 au  fB            1.00     39 A               2
                        (       6.958 eV)
    66      66       --         0.259 au  fB            1.00     40 A               2
                        (       7.049 eV)
    67      67       --         0.284 au  fB            1.00     41 A               2
                        (       7.734 eV)
    68      68       --         0.315 au  fB            1.00     42 A               2
                        (       8.582 eV)
    69      69       --         0.325 au  fB            1.00     43 A               2
                        (       8.842 eV)
    70      70       --         0.345 au  fB            1.00     44 A               2
                        (       9.386 eV)
    71      71       --         0.361 au  fB            1.00     45 A               2
                        (       9.827 eV)
    72      72       --         0.370 au  fB            1.00     46 A               2
                        (      10.062 eV)
    73      73       --         0.395 au  fB            1.00     47 A               2
                        (      10.760 eV)
    74      74       --         0.403 au  fB            1.00     48 A               2
                        (      10.973 eV)
    75      75       --         0.408 au  fB            1.00     49 A               2
                        (      11.097 eV)
    76      76       --         0.434 au  fB            1.00     50 A               2
                        (      11.809 eV)
    77      77       --         0.466 au  fB            1.00     51 A               2
                        (      12.685 eV)
    78      78       --         0.482 au  fB            1.00     52 A               2
                        (      13.125 eV)
    79      79       --         0.495 au  fB            1.00     53 A               2
                        (      13.470 eV)
    80      80       --         0.518 au  fB            1.00     54 A               2
                        (      14.103 eV)
    81      81       --         0.571 au  fB            1.00     55 A               2
                        (      15.547 eV)
    82      82       --         0.608 au  fB            1.00     56 A               2
                        (      16.552 eV)
    83      83       --         0.656 au  fB            1.00     57 A               2
                        (      17.837 eV)
    84      84       --         0.705 au  fB            1.00     58 A               2
                        (      19.173 eV)
    85      85       --         0.764 au  fB            1.00     59 A               2
                        (      20.789 eV)
    86      86       --         0.784 au  fB            1.00     60 A               2
                        (      21.339 eV)
    87      87       --         0.794 au  fB            1.00     61 A               2
                        (      21.614 eV)
    88      88       --         0.811 au  fB            1.00     62 A               2
                        (      22.062 eV)
    89      89       --         0.844 au  fB            1.00     63 A               2
                        (      22.954 eV)
    90      90       --         0.879 au  fB            1.00     64 A               2
                        (      23.921 eV)
    91      91       --         0.937 au  fB            1.00     65 A               2
                        (      25.485 eV)
    92      92       --         0.955 au  fB            1.00     66 A               2
                        (      25.997 eV)
    93      93       --         0.989 au  fB            1.00     67 A               2
                        (      26.911 eV)
    94      94       --         1.023 au  fB            1.00     68 A               2
                        (      27.841 eV)
    95      95       --         1.031 au  fB            1.00     69 A               2
                        (      28.068 eV)
    96      96       --         1.043 au  fB            1.00     70 A               2
                        (      28.390 eV)
    97      97       --         1.088 au  fB            1.00     71 A               2
                        (      29.598 eV)
    98      98       --         1.110 au  fB            1.00     72 A               2
                        (      30.212 eV)
    99      99       --         1.133 au  fB            1.00     73 A               2
                        (      30.834 eV)
   100     100       --         1.169 au  fB            1.00     74 A               2
                        (      31.819 eV)
   101     101       --         1.182 au  fB            1.00     75 A               2
                        (      32.166 eV)
   102     102       --         1.209 au  fB            1.00     76 A               2
                        (      32.898 eV)
   103     103       --         1.217 au  fB            1.00     77 A               2
                        (      33.116 eV)
   104     104       --         1.233 au  fB            1.00     78 A               2
                        (      33.552 eV)
   105     105       --         1.252 au  fB            1.00     79 A               2
                        (      34.079 eV)
   106     106       --         1.263 au  fB            1.00     80 A               2
                        (      34.355 eV)
   107     107       --         1.288 au  fB            1.00     81 A               2
                        (      35.037 eV)
   108     108       --         1.298 au  fB            1.00     82 A               2
                        (      35.317 eV)
   109     109       --         1.332 au  fB            1.00     83 A               2
                        (      36.252 eV)
   110     110       --         1.361 au  fB            1.00     84 A               2
                        (      37.032 eV)
   111     111       --         1.377 au  fB            1.00     85 A               2
                        (      37.461 eV)
   112     112       --         1.440 au  fB            1.00     86 A               2
                        (      39.197 eV)
   113     113       --         1.500 au  fB            1.00     87 A               2
                        (      40.824 eV)
   114     114       --         1.505 au  fB            1.00     88 A               2
                        (      40.943 eV)
   115     115       --         1.529 au  fB            1.00     89 A               2
                        (      41.608 eV)
   116     116       --         1.546 au  fB            1.00     90 A               2
                        (      42.075 eV)
   117     117       --         1.640 au  fB            1.00     91 A               2
                        (      44.622 eV)
   118     118       --         1.655 au  fB            1.00     92 A               2
                        (      45.039 eV)
   119     119       --         1.709 au  fB            1.00     93 A               2
                        (      46.497 eV)
   120     120       --         1.762 au  fB            1.00     94 A               2
                        (      47.957 eV)
   121     121       --         1.793 au  fB            1.00     95 A               2
                        (      48.795 eV)
   122     122       --         1.855 au  fB            1.00     96 A               2
                        (      50.465 eV)
   123     123       --         1.885 au  fB            1.00     97 A               2
                        (      51.302 eV)
   124     124       --         1.916 au  fB            1.00     98 A               2
                        (      52.133 eV)
   125     125       --         1.937 au  fB            1.00     99 A               2
                        (      52.701 eV)
   126     126       --         1.959 au  fB            1.00    100 A               2
                        (      53.303 eV)
   127     127       --         1.978 au  fB            1.00    101 A               2
                        (      53.826 eV)
   128     128       --         2.011 au  fB            1.00    102 A               2
                        (      54.729 eV)
   129     129       --         2.031 au  fB            1.00    103 A               2
                        (      55.256 eV)
   130     130       --         2.078 au  fB            1.00    104 A               2
                        (      56.558 eV)
   131     131       --         2.118 au  fB            1.00    105 A               2
                        (      57.647 eV)
   132     132       --         2.170 au  fB            1.00    106 A               2
                        (      59.049 eV)
   133     133       --         2.206 au  fB            1.00    107 A               2
                        (      60.034 eV)
   134     134       --         2.269 au  fB            1.00    108 A               2
                        (      61.737 eV)
   135     135       --         2.322 au  fB            1.00    109 A               2
                        (      63.189 eV)
   136     136       --         2.349 au  fB            1.00    110 A               2
                        (      63.927 eV)
   137     137       --         2.385 au  fB            1.00    111 A               2
                        (      64.897 eV)
   138     138       --         2.442 au  fB            1.00    112 A               2
                        (      66.443 eV)
   139     139       --         2.522 au  fB            1.00    113 A               2
                        (      68.640 eV)
   140     140       --         2.553 au  fB            1.00    114 A               2
                        (      69.468 eV)
   141     141       --         2.574 au  fB            1.00    115 A               2
                        (      70.042 eV)
   142     142       --         2.612 au  fB            1.00    116 A               2
                        (      71.086 eV)
   143     143       --         2.665 au  fB            1.00    117 A               2
                        (      72.512 eV)
   144     144       --         2.687 au  fB            1.00    118 A               2
                        (      73.127 eV)
   145     145       --         2.718 au  fB            1.00    119 A               2
                        (      73.968 eV)
   146     146       --         2.781 au  fB            1.00    120 A               2
                        (      75.674 eV)
   147     147       --         2.821 au  fB            1.00    121 A               2
                        (      76.774 eV)
   148     148       --         2.828 au  fB            1.00    122 A               2
                        (      76.963 eV)
   149     149       --         2.835 au  fB            1.00    123 A               2
                        (      77.157 eV)
   150     150       --         2.855 au  fB            1.00    124 A               2
                        (      77.696 eV)
   151     151       --         2.867 au  fB            1.00    125 A               2
                        (      78.013 eV)
   152     152       --         2.941 au  fB            1.00    126 A               2
                        (      80.028 eV)
   153     153       --         2.948 au  fB            1.00    127 A               2
                        (      80.214 eV)
   154     154       --         2.990 au  fB            1.00    128 A               2
                        (      81.350 eV)
   155     155       --         3.010 au  fB            1.00    129 A               2
                        (      81.897 eV)
   156     156       --         3.041 au  fB            1.00    130 A               2
                        (      82.755 eV)
   157     157       --         3.053 au  fB            1.00    131 A               2
                        (      83.068 eV)
   158     158       --         3.086 au  fB            1.00    132 A               2
                        (      83.979 eV)
   159     159       --         3.133 au  fB            1.00    133 A               2
                        (      85.263 eV)
   160     160       --         3.153 au  fB            1.00    134 A               2
                        (      85.787 eV)
   161     161       --         3.260 au  fB            1.00    135 A               2
                        (      88.705 eV)
   162     162       --         3.336 au  fB            1.00    136 A               2
                        (      90.772 eV)
   163     163       --         3.359 au  fB            1.00    137 A               2
                        (      91.400 eV)
   164     164       --         3.380 au  fB            1.00    138 A               2
                        (      91.984 eV)
   165     165       --         3.419 au  fB            1.00    139 A               2
                        (      93.025 eV)
   166     166       --         3.428 au  fB            1.00    140 A               2
                        (      93.271 eV)
   167     167       --         3.469 au  fB            1.00    141 A               2
                        (      94.384 eV)
   168     168       --         3.495 au  fB            1.00    142 A               2
                        (      95.096 eV)
   169     169       --         3.503 au  fB            1.00    143 A               2
                        (      95.330 eV)
   170     170       --         3.539 au  fB            1.00    144 A               2
                        (      96.307 eV)
   171     171       --         3.566 au  fB            1.00    145 A               2
                        (      97.035 eV)
   172     172       --         3.623 au  fB            1.00    146 A               2
                        (      98.590 eV)
   173     173       --         3.633 au  fB            1.00    147 A               2
                        (      98.868 eV)
   174     174       --         3.649 au  fB            1.00    148 A               2
                        (      99.308 eV)
   175     175       --         3.689 au  fB            1.00    149 A               2
                        (     100.387 eV)
   176     176       --         3.732 au  fB            1.00    150 A               2
                        (     101.552 eV)
   177     177       --         3.775 au  fB            1.00    151 A               2
                        (     102.713 eV)
   178     178       --         3.799 au  fB            1.00    152 A               2
                        (     103.363 eV)
   179     179       --         3.859 au  fB            1.00    153 A               2
                        (     105.017 eV)
   180     180       --         3.893 au  fB            1.00    154 A               2
                        (     105.946 eV)
   181     181       --         4.014 au  fB            1.00    155 A               2
                        (     109.238 eV)
   182     182       --         4.073 au  fB            1.00    156 A               2
                        (     110.829 eV)
   183     183       --         4.115 au  fB            1.00    157 A               2
                        (     111.984 eV)
   184     184       --         4.197 au  fB            1.00    158 A               2
                        (     114.204 eV)
   185     185       --         4.242 au  fB            1.00    159 A               2
                        (     115.435 eV)
   186     186       --         4.311 au  fB            1.00    160 A               2
                        (     117.309 eV)
   187     187       --         4.348 au  fB            1.00    161 A               2
                        (     118.307 eV)
   188     188       --         4.374 au  fB            1.00    162 A               2
                        (     119.016 eV)
   189     189       --         4.455 au  fB            1.00    163 A               2
                        (     121.231 eV)
   190     190       --         4.572 au  fB            1.00    164 A               2
                        (     124.401 eV)
   191     191       --         4.617 au  fB            1.00    165 A               2
                        (     125.641 eV)
   192     192       --         4.640 au  fB            1.00    166 A               2
                        (     126.253 eV)
   193     193       --         4.691 au  fB            1.00    167 A               2
                        (     127.661 eV)
   194     194       --         4.753 au  fB            1.00    168 A               2
                        (     129.328 eV)
   195     195       --         4.786 au  fB            1.00    169 A               2
                        (     130.225 eV)
   196     196       --         4.880 au  fB            1.00    170 A               2
                        (     132.780 eV)
   197     197       --         4.890 au  fB            1.00    171 A               2
                        (     133.061 eV)
   198     198       --         4.969 au  fB            1.00    172 A               2
                        (     135.212 eV)
   199     199       --         4.991 au  fB            1.00    173 A               2
                        (     135.825 eV)
   200     200       --         5.064 au  fB            1.00    174 A               2
                        (     137.795 eV)
   201     201       --         5.118 au  fB            1.00    175 A               2
                        (     139.259 eV)
   202     202       --         5.180 au  fB            1.00    176 A               2
                        (     140.964 eV)
   203     203       --         5.196 au  fB            1.00    177 A               2
                        (     141.386 eV)
   204     204       --         5.265 au  fB            1.00    178 A               2
                        (     143.266 eV)
   205     205       --         5.384 au  fB            1.00    179 A               2
                        (     146.518 eV)
   206     206       --         5.408 au  fB            1.00    180 A               2
                        (     147.146 eV)
   207     207       --         5.478 au  fB            1.00    181 A               2
                        (     149.077 eV)
   208     208       --         5.536 au  fB            1.00    182 A               2
                        (     150.637 eV)
   209     209       --         5.567 au  fB            1.00    183 A               2
                        (     151.486 eV)
   210     210       --         5.684 au  fB            1.00    184 A               2
                        (     154.673 eV)
   211     211       --         5.739 au  fB            1.00    185 A               2
                        (     156.166 eV)
   212     212       --         5.974 au  fB            1.00    186 A               2
                        (     162.560 eV)
   213     213       --         6.090 au  fB            1.00    187 A               2
                        (     165.724 eV)
   214     214       --         6.196 au  fB            1.00    188 A               2
                        (     168.596 eV)
   215     215       --         6.215 au  fB            1.00    189 A               2
                        (     169.110 eV)
   216     216       --         6.318 au  fB            1.00    190 A               2
                        (     171.928 eV)
   217     217       --         6.369 au  fB            1.00    191 A               2
                        (     173.297 eV)
   218     218       --         6.406 au  fB            1.00    192 A               2
                        (     174.308 eV)
   219     219       --         6.439 au  fB            1.00    193 A               2
                        (     175.201 eV)
   220     220       --         6.486 au  fB            1.00    194 A               2
                        (     176.496 eV)
   221     221       --         6.536 au  fB            1.00    195 A               2
                        (     177.858 eV)
   222     222       --         6.560 au  fB            1.00    196 A               2
                        (     178.509 eV)
   223     223       --         6.593 au  fB            1.00    197 A               2
                        (     179.414 eV)
   224     224       --         6.629 au  fB            1.00    198 A               2
                        (     180.387 eV)
   225     225       --         6.721 au  fB            1.00    199 A               2
                        (     182.876 eV)
   226     226       --         6.752 au  fB            1.00    200 A               2
                        (     183.736 eV)
   227     227       --         6.999 au  fB            1.00    201 A               2
                        (     190.454 eV)
   228     228       --         7.109 au  fB            1.00    202 A               2
                        (     193.445 eV)
   229     229       --         7.154 au  fB            1.00    203 A               2
                        (     194.674 eV)
   230     230       --         7.275 au  fB            1.00    204 A               2
                        (     197.963 eV)
   231     231       --         7.361 au  fB            1.00    205 A               2
                        (     200.301 eV)
   232     232       --         7.441 au  fB            1.00    206 A               2
                        (     202.476 eV)
   233     233       --         7.592 au  fB            1.00    207 A               2
                        (     206.579 eV)
   234     234       --         7.694 au  fB            1.00    208 A               2
                        (     209.351 eV)
   235     235       --         7.930 au  fB            1.00    209 A               2
                        (     215.787 eV)
   236     236       --         8.673 au  fB            1.00    210 A               2
                        (     236.010 eV)
   237     237       --         8.836 au  fB            1.00    211 A               2
                        (     240.437 eV)
   238     238       --         9.339 au  fB            1.00    212 A               2
                        (     254.129 eV)
   239     239       --         9.831 au  fB            1.00    213 A               2
                        (     267.515 eV)
   240     240       --        52.719 au  fB            1.00    214 A               2
                        (    1434.545 eV)
   241     241       --        54.605 au  fB            1.00    215 A               2
                        (    1485.874 eV)
   242     242       --        57.630 au  fB            1.00    216 A               2
                        (    1568.205 eV)
   243     243       --        59.360 au  fB            1.00    217 A               2
                        (    1615.274 eV)
   244     244       --        71.417 au  fB            1.00    218 A               2
                        (    1943.354 eV)



 ================================
 (Slater-type)  F U N C T I O N S  ***  (Basis and Fit)  ***
 ================================
  

 Atom Type    1  (F)
 ==============

 Valence Basis Sets:  10
 -----------------------
   1 S   10.880000
   1 S    7.700000
   2 S    3.240000
   2 S    1.940000
   2 S    0.740000
   2 P    4.540000
   2 P    2.300000
   2 P    1.240000
   3 D    2.000000
   4 F    3.000000

 Atom Type    2  (C)
 ==============

 Valence Basis Sets:  10
 -----------------------
   1 S    7.680000
   1 S    5.000000
   2 S    1.280000
   2 S    2.100000
   2 S    4.600000
   2 P    0.820000
   2 P    1.480000
   2 P    2.940000
   3 D    2.200000
   4 F    3.300000

 Atom Type    3  (F)
 ==============

 Valence Basis Sets:  10
 -----------------------
   1 S   10.880000
   1 S    7.700000
   2 S    3.240000
   2 S    1.940000
   2 S    0.740000
   2 P    4.540000
   2 P    2.300000
   2 P    1.240000
   3 D    2.000000
   4 F    3.000000

 Atom Type    4  (H)
 ==============

 Valence Basis Sets:   5
 -----------------------
   1 S    0.690000
   1 S    0.920000
   1 S    1.580000
   2 P    1.250000
   3 D    2.500000

 Atom Type    5  (N)
 ==============

 Valence Basis Sets:  10
 -----------------------
   1 S    8.740000
   1 S    5.900000
   2 S    5.150000
   2 S    2.500000
   2 S    1.500000
   2 P    3.680000
   2 P    1.880000
   2 P    1.000000
   3 D    2.200000
   4 F    3.300000


 BAS: List of all Elementary Cartesian Basis Functions
 =====================================================

 The numbering in the list below (to the right of the function characteristics) is referred
 to in print-outs of MO eigenvectors and Mulliken populations in the BAS representation
 (as contrasted to the SFO representation).

 Notes:
 1. The functions are characterized by a polynomial prefactor (powers of x,y,z and r) and
    an exponential decay factor alpha.
 2. Since the basis sets are specific for an atom TYPE, the individual functions occur on
    all atoms of that type.
 3. The word 'Core' in the left margin signals that it is a Core Function (CF) : not a
    degree of freedom in the valence set, but only used to ensure orthogonalization of
    the other valence basis functions on the frozen Core Orbitals.


 (power of) X  Y  Z  R     Alpha  on Atom
            ==========     =====     ==========

 F                                    1
                                  ---------------------------------------------------------------------------
            0  0  0  0    10.880      1
            0  0  0  0     7.700      2
            0  0  0  1     3.240      3
            0  0  0  1     1.940      4
            0  0  0  1     0.740      5
            1  0  0  0     4.540      6
            0  1  0  0     4.540      7
            0  0  1  0     4.540      8
            1  0  0  0     2.300      9
            0  1  0  0     2.300     10
            0  0  1  0     2.300     11
            1  0  0  0     1.240     12
            0  1  0  0     1.240     13
            0  0  1  0     1.240     14
            2  0  0  0     2.000     15
            1  1  0  0     2.000     16
            1  0  1  0     2.000     17
            0  2  0  0     2.000     18
            0  1  1  0     2.000     19
            0  0  2  0     2.000     20
            3  0  0  0     3.000     21
            2  1  0  0     3.000     22
            2  0  1  0     3.000     23
            1  2  0  0     3.000     24
            1  1  1  0     3.000     25
            1  0  2  0     3.000     26
            0  3  0  0     3.000     27
            0  2  1  0     3.000     28
            0  1  2  0     3.000     29
            0  0  3  0     3.000     30

 C                                    2    3    4
                                  ---------------------------------------------------------------------------
            0  0  0  0     7.680     31   61   91
            0  0  0  0     5.000     32   62   92
            0  0  0  1     1.280     33   63   93
            0  0  0  1     2.100     34   64   94
            0  0  0  1     4.600     35   65   95
            1  0  0  0     0.820     36   66   96
            0  1  0  0     0.820     37   67   97
            0  0  1  0     0.820     38   68   98
            1  0  0  0     1.480     39   69   99
            0  1  0  0     1.480     40   70  100
            0  0  1  0     1.480     41   71  101
            1  0  0  0     2.940     42   72  102
            0  1  0  0     2.940     43   73  103
            0  0  1  0     2.940     44   74  104
            2  0  0  0     2.200     45   75  105
            1  1  0  0     2.200     46   76  106
            1  0  1  0     2.200     47   77  107
            0  2  0  0     2.200     48   78  108
            0  1  1  0     2.200     49   79  109
            0  0  2  0     2.200     50   80  110
            3  0  0  0     3.300     51   81  111
            2  1  0  0     3.300     52   82  112
            2  0  1  0     3.300     53   83  113
            1  2  0  0     3.300     54   84  114
            1  1  1  0     3.300     55   85  115
            1  0  2  0     3.300     56   86  116
            0  3  0  0     3.300     57   87  117
            0  2  1  0     3.300     58   88  118
            0  1  2  0     3.300     59   89  119
            0  0  3  0     3.300     60   90  120

 F                                    5
                                  ---------------------------------------------------------------------------
            0  0  0  0    10.880    121
            0  0  0  0     7.700    122
            0  0  0  1     3.240    123
            0  0  0  1     1.940    124
            0  0  0  1     0.740    125
            1  0  0  0     4.540    126
            0  1  0  0     4.540    127
            0  0  1  0     4.540    128
            1  0  0  0     2.300    129
            0  1  0  0     2.300    130
            0  0  1  0     2.300    131
            1  0  0  0     1.240    132
            0  1  0  0     1.240    133
            0  0  1  0     1.240    134
            2  0  0  0     2.000    135
            1  1  0  0     2.000    136
            1  0  1  0     2.000    137
            0  2  0  0     2.000    138
            0  1  1  0     2.000    139
            0  0  2  0     2.000    140
            3  0  0  0     3.000    141
            2  1  0  0     3.000    142
            2  0  1  0     3.000    143
            1  2  0  0     3.000    144
            1  1  1  0     3.000    145
            1  0  2  0     3.000    146
            0  3  0  0     3.000    147
            0  2  1  0     3.000    148
            0  1  2  0     3.000    149
            0  0  3  0     3.000    150

 H                                    6    7    8    9   10   11   12   13
                                  ---------------------------------------------------------------------------
            0  0  0  0     0.690    151  163  175  187  199  211  223  235
            0  0  0  0     0.920    152  164  176  188  200  212  224  236
            0  0  0  0     1.580    153  165  177  189  201  213  225  237
            1  0  0  0     1.250    154  166  178  190  202  214  226  238
            0  1  0  0     1.250    155  167  179  191  203  215  227  239
            0  0  1  0     1.250    156  168  180  192  204  216  228  240
            2  0  0  0     2.500    157  169  181  193  205  217  229  241
            1  1  0  0     2.500    158  170  182  194  206  218  230  242
            1  0  1  0     2.500    159  171  183  195  207  219  231  243
            0  2  0  0     2.500    160  172  184  196  208  220  232  244
            0  1  1  0     2.500    161  173  185  197  209  221  233  245
            0  0  2  0     2.500    162  174  186  198  210  222  234  246

 N                                   14
                                  ---------------------------------------------------------------------------
            0  0  0  0     8.740    247
            0  0  0  0     5.900    248
            0  0  0  1     5.150    249
            0  0  0  1     2.500    250
            0  0  0  1     1.500    251
            1  0  0  0     3.680    252
            0  1  0  0     3.680    253
            0  0  1  0     3.680    254
            1  0  0  0     1.880    255
            0  1  0  0     1.880    256
            0  0  1  0     1.880    257
            1  0  0  0     1.000    258
            0  1  0  0     1.000    259
            0  0  1  0     1.000    260
            2  0  0  0     2.200    261
            1  1  0  0     2.200    262
            1  0  1  0     2.200    263
            0  2  0  0     2.200    264
            0  1  1  0     2.200    265
            0  0  2  0     2.200    266
            3  0  0  0     3.300    267
            2  1  0  0     3.300    268
            2  0  1  0     3.300    269
            1  2  0  0     3.300    270
            1  1  1  0     3.300    271
            1  0  2  0     3.300    272
            0  3  0  0     3.300    273
            0  2  1  0     3.300    274
            0  1  2  0     3.300    275
            0  0  3  0     3.300    276

 Total number of charge fitting functions (nprimf)       906
 Total number of Cartesian basis functions (naos)        276
 Total number of Cartesian core functions  (ncos)          0

 ***************************************************************************************************



                                              ***********************
                                              *  T E C H N I C A L  *
                                              ***********************
  



 =============================================================
 P A R A L L E L I Z A T I O N  and  V E C T O R I Z A T I O N
 =============================================================
  
 Nr of parallel processes:                                1
 Maximum vector length in NumInt loops:                 128



 =====================
 S C F   U P D A T E S
 =====================
  
 Max. nr. of cycles:                               200
 Convergence criterion:                              0.0000010000
   secondary criterion:                              0.0010000000

 Mix parameter (when DIIS does not apply):           0.2000000000
 Mixed ADIIS+SDIIS will be used                  
    Max number of expansion vectors:                10
    Pure ADIIS when Max([F,P]) is above              0.1000000000
    Pure SDIIS when Max([F,P]) is below              0.0010000000
 Automatic ElectronSmearing (in case of problematic SCF convergence) disabled



 =================
 P R E C I S I O N  ***  (General: NumInt, NeglectFunctionTails, ...)  ***
 =================
  

 NumInt:           Target precision:                 4.0000000000
 -------           Initial precision:                4.0000000000
                   Min. precision (optimization):    4.0000000000

 Neglect Functions:          Basis functions:        0.1000000000E-05
 ------------------          Fit functions:          0.1000000000E-05



 ===========================
 L I N E A R   S C A L I N G
 ===========================
  

 Cut-off radii density fit:                        0.1000000000E-07
 Overlap cut-off criterion AO matrix elements:     0.1000000000E-05
 Cut-offs for Coulomb potential and fitted density:0.1000000000E-07
 Cut-off criterion for Coulomb multipole terms:    0.1000000000E-07
 Progressive Convergence parameter:                 0.000000000    
 ***************************************************************************************************



                                            ***************************
                                            *  C O M P U T A T I O N  *
                                            ***************************
  

 Number of elements of the density matrix on this node (used, total):     38226     38226



 ===========================================
 Numerical Integration : Fuzzy Cells (Becke)
 ===========================================
  
 Becke grid quality: NORMAL         
  
 Lebedev angular grid order:             min:  11 max:  23
 Nr. of radial points:                   min:  46 max:  55

 Total nr. of points:      90622
 Nr. of blocks:              708
 Block length:               128
 Nr. of dummy points:          2


 Test of Precision of the Numerical Integration Grid
 ===================================================

 Integral of the Total Core Density:                   0.00000000000000



 ========================
 Density Fitting (zlmFit)
 ========================
  
 ZlmFit Fit Quality: NORMAL         
  
 Max L-expansion:                        min:   6 max:   7
 Nr. of radial interpolation points:     min:  39 max:  51



 =====
 S C F  ***  ScaSCF  ***
 =====
  
 Initial density matrix is calculated as sum of fragments

 CYCLE    1
 SCF Error: norm([F,P])=      0.476724178610, max([F,P])=      0.194156423819
 orbitals (Q,E):
 ---------------
 A :17...36          ( 2.00    -0.2012)  ( 2.00    -0.1857)  ( 2.00    -0.1782)  ( 2.00    -0.1445)
                     ( 2.00    -0.1424)  ( 2.00    -0.1245)  ( 2.00    -0.0514)  ( 2.00     0.0720)
                     ( 2.00     0.0740)  ( 2.00     0.0770)  ( 0.00     0.1198)  ( 0.00     0.1403)
                     ( 0.00     0.1599)  ( 0.00     0.1717)  ( 0.00     0.2067)  ( 0.00     0.2127)
                     ( 0.00     0.2270)  ( 0.00     0.2541)  ( 0.00     0.2604)  ( 0.00     0.2716)

 CYCLE    2
   MIX coefficients:  0.8000  0.2000
 SCF Error: norm([F,P])=      0.350319729937, max([F,P])=      0.101981095436
 orbitals (Q,E):
 ---------------
 A :17...27          ( 2.00    -0.2003)  ( 2.00    -0.1869)  ( 2.00    -0.1737)  ( 2.00    -0.1443)
                     ( 2.00    -0.1431)  ( 2.00    -0.1283)  ( 2.00    -0.0544)  ( 2.00     0.0309)
                     ( 2.00     0.0327)  ( 2.00     0.0363)  ( 0.00     0.1226)

 CYCLE    3
  SDIIS (wt  0.000): -0.1052  1.1052
 A-DIIS (wt  1.000):  0.0000  1.0000
  DIIS coefficients:  0.0000  1.0000
 SCF Error: norm([F,P])=      0.130470951628, max([F,P])=      0.023378706633
 orbitals (Q,E):
 ---------------
 A :17...27          ( 2.00    -0.2113)  ( 2.00    -0.1834)  ( 2.00    -0.1687)  ( 2.00    -0.1542)
                     ( 2.00    -0.1378)  ( 2.00    -0.1255)  ( 2.00    -0.0663)  ( 2.00    -0.0218)
                     ( 2.00    -0.0200)  ( 2.00    -0.0133)  ( 0.00     0.1286)

 CYCLE    4
  SDIIS (wt  0.000):  0.0766  0.4318  0.4916
 A-DIIS (wt  1.000):  0.0000  0.5266  0.4734
  DIIS coefficients:  0.0000  0.5266  0.4734
 SCF Error: norm([F,P])=      0.152406405486, max([F,P])=      0.024010609188
 orbitals (Q,E):
 ---------------
 A :17...27          ( 2.00    -0.2076)  ( 2.00    -0.1858)  ( 2.00    -0.1725)  ( 2.00    -0.1483)
                     ( 2.00    -0.1435)  ( 2.00    -0.1299)  ( 2.00    -0.0613)  ( 2.00     0.0012)
                     ( 2.00     0.0031)  ( 2.00     0.0078)  ( 0.00     0.1269)

 CYCLE    5
  SDIIS (wt  0.878): -0.0057  0.3164  0.2965  0.3928
 A-DIIS (wt  0.122):  0.0000  0.0000  0.0000  1.0000
  DIIS coefficients: -0.0050  0.2779  0.2603  0.4668
 SCF Error: norm([F,P])=      0.058957515107, max([F,P])=      0.013064495294
 orbitals (Q,E):
 ---------------
 A :17...27          ( 2.00    -0.2056)  ( 2.00    -0.1853)  ( 2.00    -0.1701)  ( 2.00    -0.1483)
                     ( 2.00    -0.1419)  ( 2.00    -0.1288)  ( 2.00    -0.0610)  ( 2.00    -0.0023)
                     ( 2.00    -0.0004)  ( 2.00     0.0045)  ( 0.00     0.1262)

 CYCLE    6
  SDIIS (wt  0.946):  0.0079  0.0864  0.0940  0.2934  0.5183
 A-DIIS (wt  0.054):  0.0000  0.0000  0.0000  0.2093  0.7907
  DIIS coefficients:  0.0074  0.0817  0.0889  0.2888  0.5331
 SCF Error: norm([F,P])=      0.024463749724, max([F,P])=      0.006365132197
 orbitals (Q,E):
 ---------------
 A :17...27          ( 2.00    -0.2059)  ( 2.00    -0.1858)  ( 2.00    -0.1710)  ( 2.00    -0.1484)
                     ( 2.00    -0.1427)  ( 2.00    -0.1293)  ( 2.00    -0.0607)  ( 2.00     0.0003)
                     ( 2.00     0.0022)  ( 2.00     0.0070)  ( 0.00     0.1263)

 CYCLE    7
  SDIIS (wt  1.000):  0.0037  0.0380  0.0407  0.1457  0.2949  0.4770
  DIIS coefficients:  0.0037  0.0380  0.0407  0.1457  0.2949  0.4770
 SCF Error: norm([F,P])=      0.002597163308, max([F,P])=      0.000376918256
 orbitals (Q,E):
 ---------------
 A :17...27          ( 2.00    -0.2060)  ( 2.00    -0.1856)  ( 2.00    -0.1709)  ( 2.00    -0.1483)
                     ( 2.00    -0.1426)  ( 2.00    -0.1293)  ( 2.00    -0.0608)  ( 2.00     0.0003)
                     ( 2.00     0.0022)  ( 2.00     0.0070)  ( 0.00     0.1263)

 CYCLE    8
  SDIIS (wt  1.000): -0.0001  0.0094  0.0081  0.0300  0.0658  0.2348  0.6521
  DIIS coefficients: -0.0001  0.0094  0.0081  0.0300  0.0658  0.2348  0.6521
 SCF Error: norm([F,P])=      0.000686220082, max([F,P])=      0.000116591682
 orbitals (Q,E):
 ---------------
 A :17...27          ( 2.00    -0.2060)  ( 2.00    -0.1856)  ( 2.00    -0.1709)  ( 2.00    -0.1483)
                     ( 2.00    -0.1426)  ( 2.00    -0.1293)  ( 2.00    -0.0607)  ( 2.00     0.0003)
                     ( 2.00     0.0022)  ( 2.00     0.0070)  ( 0.00     0.1263)

 CYCLE    9
  SDIIS (wt  1.000): -0.0004  0.0040  0.0027  0.0101  0.0224  0.1026  0.3434  0.5151
  DIIS coefficients: -0.0004  0.0040  0.0027  0.0101  0.0224  0.1026  0.3434  0.5151
 SCF Error: norm([F,P])=      0.000233222874, max([F,P])=      0.000055004011
 orbitals (Q,E):
 ---------------
 A :17...27          ( 2.00    -0.2060)  ( 2.00    -0.1856)  ( 2.00    -0.1709)  ( 2.00    -0.1483)
                     ( 2.00    -0.1426)  ( 2.00    -0.1293)  ( 2.00    -0.0607)  ( 2.00     0.0003)
                     ( 2.00     0.0022)  ( 2.00     0.0070)  ( 0.00     0.1263)

 CYCLE   10
  SDIIS (wt  1.000): -0.0003  0.0018  0.0010  0.0038  0.0078  0.0362  0.1293  0.3204  0.5000
  DIIS coefficients: -0.0003  0.0018  0.0010  0.0038  0.0078  0.0362  0.1293  0.3204  0.5000
 SCF Error: norm([F,P])=      0.000092297119, max([F,P])=      0.000019659296
 orbitals (Q,E):
 ---------------
 A :17...27          ( 2.00    -0.2060)  ( 2.00    -0.1856)  ( 2.00    -0.1709)  ( 2.00    -0.1483)
                     ( 2.00    -0.1426)  ( 2.00    -0.1293)  ( 2.00    -0.0607)  ( 2.00     0.0003)
                     ( 2.00     0.0022)  ( 2.00     0.0070)  ( 0.00     0.1263)

 CYCLE   11
  SDIIS (wt  1.000): -0.0001  0.0004  0.0002  0.0008  0.0016  0.0051  0.0160  0.0532  0.1367  0.7860
  DIIS coefficients: -0.0001  0.0004  0.0002  0.0008  0.0016  0.0051  0.0160  0.0532  0.1367  0.7860
 SCF Error: norm([F,P])=      0.000011104395, max([F,P])=      0.000003120353
 orbitals (Q,E):
 ---------------
 A :17...27          ( 2.00    -0.2060)  ( 2.00    -0.1856)  ( 2.00    -0.1709)  ( 2.00    -0.1483)
                     ( 2.00    -0.1426)  ( 2.00    -0.1293)  ( 2.00    -0.0607)  ( 2.00     0.0003)
                     ( 2.00     0.0022)  ( 2.00     0.0070)  ( 0.00     0.1263)

 CYCLE   12
  SDIIS (wt  1.000):  0.0000  0.0000  0.0001  0.0003 -0.0000 -0.0015 -0.0005  0.0228  0.3224  0.6564
  DIIS coefficients:  0.0000  0.0000  0.0001  0.0003 -0.0000 -0.0015 -0.0005  0.0228  0.3224  0.6564
 SCF Error: norm([F,P])=      0.000003876787, max([F,P])=      0.000000694407
 orbitals (Q,E):
 ---------------
 A :17...27          ( 2.00    -0.2060)  ( 2.00    -0.1856)  ( 2.00    -0.1709)  ( 2.00    -0.1483)
                     ( 2.00    -0.1426)  ( 2.00    -0.1293)  ( 2.00    -0.0607)  ( 2.00     0.0003)
                     ( 2.00     0.0022)  ( 2.00     0.0070)  ( 0.00     0.1263)

 SCF CONVERGED

 CYCLE   13
 ***************************************************************************************************



                                                *******************
                                                *  R E S U L T S  *
                                                *******************
  
 *** Using FIT density in Focky
  SDIIS (wt  1.000): -0.0000  0.0000  0.0001  0.0002  0.0007  0.0025  0.0121  0.1127  0.3794  0.4923
  DIIS coefficients: -0.0000  0.0000  0.0001  0.0002  0.0007  0.0025  0.0121  0.1127  0.3794  0.4923
 SCF Error: norm([F,P])=      0.000002553754, max([F,P])=      0.000000594330

 Scaled ZORA Orbital Energies, per Irrep and Spin:
 =================================================
                        Occup              E (au)              E (eV)       Diff (eV) with prev. cycle
                        -----      --------------------        ------       --------------------------
 A
              17        2.000     -0.20598244870926E+00        -5.605              -3.20E-06
              18        2.000     -0.18560923604306E+00        -5.051              -4.03E-06
              19        2.000     -0.17089396723136E+00        -4.650              -3.73E-06
              20        2.000     -0.14828077492362E+00        -4.035              -4.26E-06
              21        2.000     -0.14263579117207E+00        -3.881              -3.70E-06
              22        2.000     -0.12927527119829E+00        -3.518              -3.82E-06
              23        2.000     -0.60729172977914E-01        -1.653              -3.49E-06
              24        2.000      0.28761816049789E-03         0.008               5.33E-06
              25        2.000      0.21905037298417E-02         0.060               5.12E-06
              26        2.000      0.69607453111296E-02         0.189               4.46E-06
              27        0.000      0.12631401147655E+00         3.437
              28        0.000      0.14414872309789E+00         3.922
              29        0.000      0.16593615480816E+00         4.515
              30        0.000      0.17422754755471E+00         4.741
              31        0.000      0.19999488231672E+00         5.442
              32        0.000      0.20732474100136E+00         5.642
              33        0.000      0.22240328415957E+00         6.052
              34        0.000      0.24011181200610E+00         6.534
              35        0.000      0.25596329808300E+00         6.965
              36        0.000      0.26200688458744E+00         7.130
  
 HOMO :       26 A                 0.69607453111296E-02
 LUMO :       27 A                 0.12631401147655E+00
  


 All Electron Calculation, thus no Orbital Energies of the Core Orbitals are calculated


 Fit test: (difference of exact and fit density, squared integrated, result summed over spins)
         Sum-of-Fragments:                             0.00013983885091
         Orthogonalized Fragments:                     0.00014177961424
         SCF:                                          0.00014144086586



 ==========================
 Electron Density at Nuclei
 ==========================
  
 The electron density is calculated at points on a small sphere around the center of a nucleus.
 The printed electron density is the average electron density on these points.
 The radius of the sphere is the printed approximate finite nuclear radius.
 Note: ZORA-4 density is used, which includes small component density

         Atom        Nuclear Radius (Angstrom)             Electron Density (a.u.)
         ----        -------------------------             -----------------------
     1)   F                 0.0000361580                              450.47389
     2)   C                 0.0000320678                              127.06938
     3)   C                 0.0000320678                              127.02786
     4)   F                 0.0000361580                              450.63555
     5)   H                 0.0000181514                                0.51139
     6)   H                 0.0000181514                                0.52837
     7)   H                 0.0000181514                                0.51718
     8)   N                 0.0000333706                              206.05148
     9)   H                 0.0000181514                                0.49389
    10)   H                 0.0000181514                                0.49840
    11)   C                 0.0000320678                              126.98655
    12)   H                 0.0000181514                                0.49451
    13)   H                 0.0000181514                                0.51537
    14)   H                 0.0000181514                                0.51381



 =======================================
 M U L L I K E N   P O P U L A T I O N S
 =======================================
  
 The survey below gives for each atom:
 a) the total charge (Z minus electrons)
 b) the net spin polarization (nr of electrons spin-A minus spin-B)
 c) for each spin the atomic electron valence density (integrated) per L-value.

 Atom              Charge    Spin density          S         P         D         F
 ----              ------    ------------       ------    ------    ------    ------
 1 F              -0.7768                       4.0123    5.7619    0.0025    0.0001
 2 C               0.8045                       2.9003    2.1593    0.1277    0.0082
 3 C               0.4567                       2.9582    2.5228    0.0589    0.0033
 4 F              -0.4831                       3.9611    5.4862    0.0321    0.0037
 5 H              -0.2102                       1.1226    0.0815    0.0061    0.0000
 6 H              -0.2793                       1.2048    0.0686    0.0059    0.0000
 7 H              -0.2680                       1.1855    0.0767    0.0058    0.0000
 8 N              -0.1348                       3.3816    3.7051    0.0451    0.0029
 9 H              -0.0364                       0.9048    0.1218    0.0097    0.0000
 10 H             -0.0147                       0.8757    0.1290    0.0100    0.0000
 11 C              0.6238                       2.8384    2.4942    0.0413    0.0023
 12 H             -0.1280                       1.0142    0.1073    0.0065    0.0000
 13 H             -0.2533                       1.1620    0.0853    0.0061    0.0000
 14 H             -0.3004                       1.2080    0.0864    0.0060    0.0000

 Populations of individual BAS functions
 ----------------------------------------
 1 F            0.5911  1.3860  1.0773  0.9161  0.0419  0.3903  0.3945  0.3934  0.9006  0.8775
                0.8837  0.6137  0.6611  0.6470  0.0013  0.0001  0.0010 -0.0003  0.0003 -0.0000
                0.0006  0.0004  0.0003 -0.0002 -0.0000 -0.0004 -0.0004 -0.0003  0.0000  0.0001
 2 C            0.5065  1.4839  0.0321  0.9192 -0.0414 -0.0973 -0.2457 -0.1660  0.5103  0.8216
                0.8123  0.1366  0.1936  0.1940  0.0134  0.0246  0.0243  0.0169  0.0206  0.0278
                0.0020  0.0000 -0.0010  0.0001  0.0007  0.0002  0.0006 -0.0001  0.0020  0.0036
 3 C            0.5071  1.4818  0.1136  0.8940 -0.0383 -0.1338 -0.1601 -0.0842  0.8008  0.7905
                0.7468  0.1972  0.1836  0.1820  0.0047  0.0095  0.0061  0.0104  0.0130  0.0152
               -0.0009 -0.0011 -0.0023  0.0008  0.0003  0.0010  0.0010 -0.0005  0.0012  0.0039
 11 C           0.5070  1.4816 -0.0149  0.9041 -0.0395 -0.1357 -0.0671 -0.1972  0.7777  0.7451
                0.7864  0.2023  0.1954  0.1873  0.0057  0.0103  0.0037  0.0080  0.0066  0.0070
               -0.0003  0.0000 -0.0006  0.0016  0.0002 -0.0008  0.0013  0.0005 -0.0005  0.0009
 4 F            0.5917  1.3844  1.0859  0.8851  0.0139  0.3252  0.4152  0.4142  0.8478  0.9937
                0.9959  0.4074  0.5488  0.5380  0.0269  0.0079  0.0082 -0.0065  0.0011 -0.0054
                0.0170  0.0092  0.0095 -0.0080  0.0001 -0.0074 -0.0064 -0.0022 -0.0019 -0.0063
 5 H            0.2717  0.5238  0.3271  0.0364  0.0244  0.0206  0.0135  0.0020  0.0018 -0.0071
                0.0002 -0.0043
 6 H            0.3110  0.5816  0.3122  0.0180  0.0290  0.0217 -0.0039  0.0014  0.0005  0.0097
                0.0015 -0.0033
 7 H            0.3182  0.5472  0.3202  0.0265  0.0267  0.0235 -0.0023  0.0014  0.0006  0.0074
                0.0012 -0.0025
 9 H            0.1222  0.4428  0.3398  0.0454  0.0312  0.0452  0.0153  0.0030  0.0031 -0.0056
                0.0003 -0.0063
 10 H           0.0371  0.4960  0.3426  0.0371  0.0369  0.0550 -0.0068  0.0022  0.0014  0.0098
                0.0023  0.0011
 12 H           0.1692  0.5049  0.3401  0.0516  0.0251  0.0306  0.0028  0.0015  0.0013  0.0042
                0.0010 -0.0042
 13 H           0.2827  0.5515  0.3278  0.0318  0.0240  0.0295  0.0110  0.0017  0.0016 -0.0049
                0.0004 -0.0037
 14 H           0.3332  0.5588  0.3160  0.0267  0.0255  0.0342 -0.0065  0.0001  0.0021 -0.0058
                0.0020  0.0141
 8 N            0.5506  1.4300 -0.0336  0.9978  0.4369  0.1793  0.1707  0.2189  0.8291  0.7999
                0.8466  0.1047  0.0756  0.4804  0.0127  0.0043  0.0053  0.0145  0.0158 -0.0076
                0.0029 -0.0017  0.0003  0.0007  0.0004 -0.0027  0.0020  0.0059  0.0005 -0.0052

 Gross Charges per Atom (Z minus electrons)
 ==========================================
            -0.7768    0.8045    0.4567   -0.4831   -0.2102   -0.2793   -0.2680   -0.1348   -0.0364   -0.0147
             0.6238   -0.1280   -0.2533   -0.3004
 Net Total: -1.00000000


 Atom-Atom Population Matrix (off-diagonal elements not doubled)
 ===============================================================

     1 :     9.7082
     2 :    -0.0129    4.0693
     3 :     0.0038    0.4054    4.4077
     4 :     0.0000    0.1980   -0.0408    9.4543
     5 :     0.0268   -0.0329    0.3583    0.0050    1.0496
     6 :    -0.0007    0.3049   -0.0895   -0.0606   -0.0174    1.3001
     7 :     0.0023   -0.0319    0.3049   -0.0168   -0.0853   -0.0526    1.2277
     8 :    -0.0396    0.4129   -0.0567   -0.0457   -0.0148   -0.0714    0.0149    6.0879
     9 :     0.0350   -0.0399   -0.0055    0.0030    0.0004   -0.0459    0.0048    0.4217    0.7193
    10 :     0.0362   -0.0450   -0.0194   -0.0054   -0.0140    0.0083   -0.0029    0.4380   -0.0475    0.6602
    11 :    -0.0365   -0.0095    0.3737   -0.0062   -0.0236    0.0095   -0.0651   -0.0025    0.0036   -0.0019
             4.1023
    12 :     0.0532   -0.0053   -0.0359   -0.0019   -0.0521   -0.0017    0.0150   -0.0081   -0.0114    0.0176
             0.3544    0.9220
    13 :     0.0012   -0.0218   -0.0490   -0.0042    0.0265    0.0042   -0.0090   -0.0029   -0.0030   -0.0092
             0.3561   -0.0618    1.1267
    14 :    -0.0001    0.0043   -0.0138    0.0043   -0.0162   -0.0079   -0.0380    0.0009    0.0016   -0.0005
             0.3218   -0.0563   -0.1003    1.2007


[...]
                                    7.17%    33 A               3.986  0.00     2 fB
                                    6.06%     8 A              22.094  0.00     1 fA
                                    5.41%    21 A              -6.358  2.00     2 fB
                                    5.15%     4 A               2.943  2.00     1 fA
                                    4.12%    20 A              -7.808  2.00     2 fB
                                    3.46%    42 A               8.582  0.00     2 fB
                                    3.37%     7 A              22.094  0.00     1 fA
                                    2.78%    37 A               5.938  0.00     2 fB
                                    2.43%    25 A               0.998  0.00     2 fB
                                    2.32%    40 A               7.049  0.00     2 fB
                                    2.00%    26 A               1.348  0.00     2 fB
                                    1.21%    17 A              -8.996  2.00     2 fB
                                    1.08%    44 A               9.386  0.00     2 fB
                                    1.01%    36 A               5.339  0.00     2 fB
       0.05770       240 A         25.70%    18 A              -8.712  2.00     2 fB
                                    9.21%    35 A               5.007  0.00     2 fB
                                    7.46%    33 A               3.986  0.00     2 fB
                                    6.50%    15 A             -10.365  2.00     2 fB
                                    6.46%    21 A              -6.358  2.00     2 fB
                                    3.96%    42 A               8.582  0.00     2 fB
                                    3.82%    20 A              -7.808  2.00     2 fB
                                    3.34%     8 A              22.094  0.00     1 fA
                                    3.25%    25 A               0.998  0.00     2 fB
                                    2.96%    37 A               5.938  0.00     2 fB
                                    2.86%    40 A               7.049  0.00     2 fB
                                    2.06%     4 A               2.943  2.00     1 fA
                                    1.86%     7 A              22.094  0.00     1 fA
                                    1.78%    28 A               1.738  0.00     2 fB
                                    1.75%    26 A               1.348  0.00     2 fB
                                    1.53%    17 A              -8.996  2.00     2 fB
                                    1.38%    36 A               5.339  0.00     2 fB
                                    1.25%    44 A               9.386  0.00     2 fB
      -0.05735         6 A         25.39%     6 A               7.775  0.00     1 fA
                                   11.39%    16 A              -9.410  2.00     2 fB
                                    8.53%    26 A               1.348  0.00     2 fB
                                    7.98%    24 A               0.380  0.00     2 fB
                                   -7.27%    22 A              -0.662  0.00     2 fB
                                    6.78%     3 A               2.943  2.00     1 fA
                                    6.72%     9 A              22.094  0.00     1 fA
                                    6.37%    20 A              -7.808  2.00     2 fB
                                    5.14%    19 A              -8.167  2.00     2 fB
                                    4.94%    28 A               1.738  0.00     2 fB
                                    4.40%    13 A             -11.458  2.00     2 fB
                                    3.19%    21 A              -6.358  2.00     2 fB
                                    2.69%    39 A               6.958  0.00     2 fB
                                    2.69%    14 A             -11.089  2.00     2 fB
                                    1.88%    38 A               6.324  0.00     2 fB
                                   -1.52%    23 A               0.138  0.00     2 fB
                                    1.48%    41 A               7.734  0.00     2 fB
                                    1.42%     5 A               2.943  2.00     1 fA
                                    1.05%     7 A              22.094  0.00     1 fA
                                    1.03%    31 A               3.108  0.00     2 fB
       0.05735       239 A         20.45%    14 A             -11.089  2.00     2 fB
                                   11.43%    13 A             -11.458  2.00     2 fB
                                   10.97%     6 A               7.775  0.00     1 fA
                                   10.33%    16 A              -9.410  2.00     2 fB
                                    8.89%    26 A               1.348  0.00     2 fB
                                    7.86%    24 A               0.380  0.00     2 fB
                                   -7.07%    22 A              -0.662  0.00     2 fB
                                    6.44%    28 A               1.738  0.00     2 fB
                                    6.24%    20 A              -7.808  2.00     2 fB
                                    5.57%    19 A              -8.167  2.00     2 fB
                                    2.98%    39 A               6.958  0.00     2 fB
                                    2.03%    38 A               6.324  0.00     2 fB
                                    1.44%     9 A              22.094  0.00     1 fA
                                   -1.38%    23 A               0.138  0.00     2 fB
                                    1.32%    31 A               3.108  0.00     2 fB
                                    1.19%    41 A               7.734  0.00     2 fB
                                    1.13%    15 A             -10.365  2.00     2 fB
                                    1.05%     3 A               2.943  2.00     1 fA
      -0.05516         7 A         16.63%    16 A              -9.410  2.00     2 fB
                                   10.66%    27 A               1.571  0.00     2 fB
                                   10.01%    19 A              -8.167  2.00     2 fB
                                    7.78%    17 A              -8.996  2.00     2 fB
                                    7.12%    25 A               0.998  0.00     2 fB
                                    6.76%    29 A               2.292  0.00     2 fB
                                    6.01%    31 A               3.108  0.00     2 fB
                                    4.78%    14 A             -11.089  2.00     2 fB
                                    4.74%    18 A              -8.712  2.00     2 fB
                                    3.29%    28 A               1.738  0.00     2 fB
                                    3.05%    15 A             -10.365  2.00     2 fB
                                    2.86%    35 A               5.007  0.00     2 fB
                                    2.47%    38 A               6.324  0.00     2 fB
                                    1.73%    26 A               1.348  0.00     2 fB
                                    1.26%     7 A              22.094  0.00     1 fA
                                    1.04%     5 A               2.943  2.00     1 fA
                                    1.04%    41 A               7.734  0.00     2 fB
       0.05516       238 A         15.79%    16 A              -9.410  2.00     2 fB
                                   10.88%    27 A               1.571  0.00     2 fB
                                    9.69%    19 A              -8.167  2.00     2 fB
                                    7.53%    25 A               0.998  0.00     2 fB
                                    7.01%    29 A               2.292  0.00     2 fB
                                    6.82%    17 A              -8.996  2.00     2 fB
                                    6.56%    31 A               3.108  0.00     2 fB
                                    5.35%    18 A              -8.712  2.00     2 fB
                                    4.72%    14 A             -11.089  2.00     2 fB
                                    4.33%    28 A               1.738  0.00     2 fB
                                    3.34%    15 A             -10.365  2.00     2 fB
                                    2.89%    35 A               5.007  0.00     2 fB
                                    2.78%    38 A               6.324  0.00     2 fB
                                    1.77%    26 A               1.348  0.00     2 fB
                                    1.02%    41 A               7.734  0.00     2 fB
      -0.05060         8 A         26.91%    15 A             -10.365  2.00     2 fB
                                   10.62%    29 A               2.292  0.00     2 fB
                                    8.27%    37 A               5.938  0.00     2 fB
                                    6.22%    24 A               0.380  0.00     2 fB
                                    5.35%    17 A              -8.996  2.00     2 fB
                                    5.21%     7 A              22.094  0.00     1 fA
                                    5.11%     5 A               2.943  2.00     1 fA
                                    3.76%    18 A              -8.712  2.00     2 fB
                                    3.06%    25 A               0.998  0.00     2 fB
                                    2.54%    28 A               1.738  0.00     2 fB
                                    2.35%    19 A              -8.167  2.00     2 fB
                                    2.22%    20 A              -7.808  2.00     2 fB
                                    2.04%     9 A              22.094  0.00     1 fA
                                    1.96%    34 A               4.206  0.00     2 fB
                                    1.34%    30 A               2.459  0.00     2 fB
                                    1.26%    41 A               7.734  0.00     2 fB
                                    1.25%    14 A             -11.089  2.00     2 fB
                                    1.10%     3 A               2.943  2.00     1 fA
                                    1.04%    31 A               3.108  0.00     2 fB
       0.05060       237 A         28.78%    15 A             -10.365  2.00     2 fB
                                   11.61%    29 A               2.292  0.00     2 fB
                                    8.56%    37 A               5.938  0.00     2 fB
                                    7.21%    24 A               0.380  0.00     2 fB
                                    6.55%    17 A              -8.996  2.00     2 fB
                                    4.86%    18 A              -8.712  2.00     2 fB
                                    4.26%    28 A               1.738  0.00     2 fB
                                    3.52%    25 A               0.998  0.00     2 fB
                                    2.27%     5 A               2.943  2.00     1 fA
                                    2.18%    19 A              -8.167  2.00     2 fB
                                    2.03%    20 A              -7.808  2.00     2 fB
                                    2.01%    34 A               4.206  0.00     2 fB
                                    1.86%     7 A              22.094  0.00     1 fA
                                    1.51%    30 A               2.459  0.00     2 fB
                                    1.40%    41 A               7.734  0.00     2 fB
                                    1.22%    31 A               3.108  0.00     2 fB
                                    1.02%    13 A             -11.458  2.00     2 fB
 Mulliken charges used for AMS results%charges...


    =====================
     CALCULATION RESULTS
    =====================

Energy (hartree)            -0.05254674


--------------
Atomic charges
--------------
  Index   Atom    Charge
      1      F   -0.7768
      2      C    0.8045
      3      C    0.4567
      4      F   -0.4831
      5      H   -0.2102
      6      H   -0.2793
      7      H   -0.2680
      8      N   -0.1348
      9      H   -0.0364
     10      H   -0.0147
     11      C    0.6238
     12      H   -0.1280
     13      H   -0.2533
     14      H   -0.3004


Dipole moment vector    (Debye):     5.30601439    7.52722556   -1.03096430
              magnitude (Debye):     9.26691970


-----------------------
Molecular orbitals info
-----------------------
n orbitals:              244
n spin:                    1

Note: only printing virtual orbitals with
      energy smaller than HOMO + 100. eV

HOMO (eV):               0.1894
LUMO (eV):               3.4372
HOMO-LUMO gap (eV):      3.2478

   Index   Energy (eV)    Occupation
     158      100.0250         0.000       
     157       99.4394         0.000       
     156       98.4634         0.000       
     155       98.0090         0.000       
     154       97.8126         0.000       
     153       96.5749         0.000       
     152       96.0096         0.000       
     151       95.2060         0.000       
     150       93.4837         0.000       
     149       90.6362         0.000       
     148       90.3164         0.000       
     147       90.0590         0.000       
     146       88.7108         0.000       
     145       87.5249         0.000       
     144       87.5032         0.000       
     143       86.2820         0.000       
     142       85.0280         0.000       
     141       84.8130         0.000       
     140       83.4077         0.000       
     139       82.2300         0.000       
     138       81.9434         0.000       
     137       81.8024         0.000       
     136       81.3550         0.000       
     135       80.4618         0.000       
     134       78.9048         0.000       
     133       78.5631         0.000       
     132       78.1409         0.000       
     131       76.2727         0.000       
     130       75.0091         0.000       
     129       74.9266         0.000       
     128       73.9932         0.000       
     127       73.1677         0.000       
     126       70.6760         0.000       
     125       70.4128         0.000       
     124       69.4206         0.000       
     123       68.2742         0.000       
     122       66.7814         0.000       
     121       66.1887         0.000       
     120       63.8105         0.000       
     119       63.0544         0.000       
     118       62.0496         0.000       
     117       60.9215         0.000       
     116       59.8441         0.000       
     115       58.4924         0.000       
     114       58.0055         0.000       
     113       57.4713         0.000       
     112       57.2752         0.000       
     111       56.8357         0.000       
     110       56.5312         0.000       
     109       55.2789         0.000       
     108       53.5507         0.000       
     107       52.9888         0.000       
     106       50.1996         0.000       
     105       49.5910         0.000       
     104       49.3043         0.000       
     103       48.6928         0.000       
     102       47.7187         0.000       
     101       46.9449         0.000       
     100       46.0703         0.000       
      99       45.3995         0.000       
      98       43.7326         0.000       
      97       43.3317         0.000       
      96       42.2518         0.000       
      95       41.9655         0.000       
      94       41.6302         0.000       
      93       40.7530         0.000       
      92       40.5486         0.000       
      91       39.9390         0.000       
      90       39.6266         0.000       
      89       39.2700         0.000       
      88       38.5445         0.000       
      87       38.0959         0.000       
      86       37.6312         0.000       
      85       37.3828         0.000       
      84       36.3460         0.000       
      83       35.9237         0.000       
      82       35.6293         0.000       
      81       34.8809         0.000       
      80       34.4480         0.000       
      79       33.3175         0.000       
      78       33.1768         0.000       
      77       32.1730         0.000       
      76       31.7126         0.000       
      75       31.0515         0.000       
      74       30.8742         0.000       
      73       29.8359         0.000       
      72       28.3797         0.000       
      71       28.0558         0.000       
      70       27.0698         0.000       
      69       26.0617         0.000       
      68       25.7373         0.000       
      67       25.5584         0.000       
      66       24.6889         0.000       
      65       24.2252         0.000       
      64       22.9630         0.000       
      63       22.1600         0.000       
      62       21.0531         0.000       
      61       20.2017         0.000       
      60       18.6832         0.000       
      59       18.3591         0.000       
      58       18.0628         0.000       
      57       17.3046         0.000       
      56       16.7975         0.000       
      55       15.8264         0.000       
      54       15.4903         0.000       
      53       15.1785         0.000       
      52       14.6748         0.000       
      51       14.3228         0.000       
      50       13.7846         0.000       
      49       13.2124         0.000       
      48       12.9164         0.000       
      47       12.3574         0.000       
      46       12.2600         0.000       
      45       11.3446         0.000       
      44       10.7281         0.000       
      43       10.1732         0.000       
      42        9.8846         0.000       
      41        9.5153         0.000       
      40        9.0721         0.000       
      39        8.4711         0.000       
      38        8.2848         0.000       
      37        8.1618         0.000       
      36        7.1296         0.000       
      35        6.9651         0.000       
      34        6.5338         0.000       
      33        6.0519         0.000       
      32        5.6416         0.000       
      31        5.4421         0.000       
      30        4.7410         0.000       
      29        4.5154         0.000       
      28        3.9225         0.000       
      27        3.4372         0.000 < LUMO
      26        0.1894         2.000 < HOMO
      25        0.0596         2.000       
      24        0.0078         2.000       
      23       -1.6525         2.000       
      22       -3.5178         2.000       
      21       -3.8813         2.000       
      20       -4.0349         2.000       
      19       -4.6503         2.000       
      18       -5.0507         2.000       
      17       -5.6051         2.000       
      16       -6.3801         2.000       
      15       -7.0714         2.000       
      14       -7.4753         2.000       
      13       -8.3863         2.000       
      12      -10.0879         2.000       
      11      -12.1080         2.000       
      10      -14.5882         2.000       
       9      -17.5593         2.000       
       8      -18.3195         2.000       
       7      -25.2856         2.000       
       6     -265.1094         2.000       
       5     -265.6033         2.000       
       4     -268.2415         2.000       
       3     -376.2757         2.000       
       2     -651.0955         2.000       
       1     -656.6641         2.000       

AMS application finished. Exiting.
NORMAL TERMINATION
     Total cpu time:      66.24
  Total system time:       0.33
 Total elapsed time:      66.76
NORMAL TERMINATION
