
 *******************************************************************************
 *                                                                             *
 *  --------------------------------                                           *
 *   Amsterdam Modeling Suite (AMS)              2026.103                      *
 *  --------------------------------                                           *
 *                                               r260501 2026-05-01 873454b5   *
 *                                                                             *
 *                                                                             *
 *                              =================                              *
 *                              |               |                              *
 *                              |     A M S     |                              *
 *                              |               |                              *
 *                              =================                              *
 *                                                                             *
 *                                                                             *
 *   Online information and documentation:  https://www.scm.com/support/       *
 *   E-mail:  support@scm.com   info@scm.com                                   *
 *                                                                             *
 *   Scientific publications using AMS results must be properly referenced     *
 *   See the User Manuals (or the web site) for recommended citations          *
 *   The terms and conditions of the End User License Agreement apply to       *
 *   the use of AMS, https://www.scm.com/license-terms/                        *
 *                                                                             *
 **********************  x86_64_linux_intel / intelmpi  ************************
 
 Licensed to: Jong-June Jeon / University of Seoul 2026-05-13 16:10:32
 SCM User ID: u30731
  
 AMS 2026.103  RunTime: May31-2026 06:22:53  ShM Nodes: 1  Procs: 1

 AMS jobname: c4_fragA_opt
 AMS jobid  : 1006470796

 Start   directory: /gpfs/home1/yeseo1ee/projects/eda-asm-prediction/adf_outputs/batch_001/dipolar_002315/
 Results directory: /gpfs/home1/yeseo1ee/projects/eda-asm-prediction/adf_outputs/batch_001/dipolar_002315/c4_fragA_opt.results/
 Scratch directory: /tmp/amstmp_c4_fragA_opt_kid0.1006470796/

 RNG seed: -1515881881 -986403788 350462903 1619116459 -1617477435 1231723466 -892538500 1321733758



                      ************************************************************************
                      *  ADF 2026.103  RunTime: May31-2026 06:22:53  ShM Nodes: 1  Procs: 1  *
                      ************************************************************************
  

       ***************************
       *  GEOMETRY OPTIMIZATION  *
       ***************************

Optimization Method                    Quasi Newton
Optimization Coordinates               Delocalized Coordinates
Optimize lattice                       F
 
 ------------------------------------------------------
 Convergence criteria (Hartree,Angstrom)
 ------------------------------------------------------
 Maximum gradient               0.000100000000
 Maximum rms gradient           0.000066666667
 Maximum step allowed           0.010000000000
 Maximum rms step allowed       0.006666666667
 Maximum energy change allowe   0.000170000000
 Maximum stress energy allowe   0.000500000000
 
Initial model Hessian                  Automatic Hessian
 
------------------------------------
Quasi-Newton Optimizer Parameters
------------------------------------
Hessian Update Method                  BFGS
Maximum number of steps                  200
First GDIIS cycle                          0
Maximum GDIIS vectors                      0
Trust radius (bohr)                        0.200000
Trust radius varies                        T
Constraints converged at all steps         T
Use projector                              T
 
 Rigid motions settings for: old optimizer
 Atomic rotations (x,y,z):     T T T
 Atomic translations (x,y,z):  T T T
 Tolerance:                  1.000000000000000E-006

--------
Geometry
--------
Formula: C8H6N2O
Atoms
  Index Symbol   x (angstrom)   y (angstrom)   z (angstrom)
      1      N     1.30295000    -1.14803000     4.82115000
      2      C     0.93505000    -1.17924000     3.70835000
      3      N     0.37385000    -1.16464000     2.50567000
      4      O     1.17951000    -1.87670000     1.62953000
      5      C     0.69620000    -2.07102000     0.43819000
      6      C    -0.67199000    -2.31227000     0.03637000
      7      C    -1.83092000    -1.90935000     0.73934000
      8      C    -3.08733000    -2.23592000     0.24020000
      9      C    -3.21518000    -2.95129000    -0.95738000
     10      C    -2.07519000    -3.34905000    -1.66307000
     11      C    -0.81321000    -3.02631000    -1.17621000
     12      H     1.49013000    -2.43358000    -0.21716000
     13      H    -1.73916000    -1.33553000     1.65659000
     14      H    -3.97941000    -1.92010000     0.78505000
     15      H    -4.20805000    -3.19316000    -1.34355000
     16      H    -2.17200000    -3.90333000    -2.59861000
     17      H     0.07861000    -3.32192000    -1.73183000

Total System Charge              0.00000


----------------
ADF Engine Input
----------------
 
   Basis
     Type TZ2P
     Core None
   End
   XC
     GGA BLYP
     Dispersion GRIMME3 BJDAMP
   End
   Symmetry NOSYM
   NumericalQuality Normal
   Unrestricted No
   SCF
     Iterations 200
     Converge 1.0e-6
   End
   Save TAPE21
 

 Title: *** (NO TITLE) ***

Challenging geometry: could not add a dihedral for atom    1
 Using automatic Hessian for delocalized coordinates.
 *** GO1_GOStep1 ***

 Energy gradients wrt nuclear displacements
 ==========================================

     Atom      Cartesian (a.u./angstrom)
                 X         Y         Z
 ----------------------------------------
     1 N    -0.006234 -0.004858 -0.017777
     2 C     0.001742  0.008488  0.009030
     3 N     0.030969 -0.012873 -0.037057
     4 O    -0.025489 -0.027013  0.023798
     5 C     0.006987  0.062402  0.015838
     6 C    -0.023436 -0.027124 -0.003694
     7 C     0.006122 -0.007586 -0.011357
     8 C     0.007434  0.002669 -0.001209
     9 C     0.012764  0.000480 -0.001055
    10 C    -0.006539  0.004398  0.007328
    11 C     0.002048  0.002228  0.016272
    12 H     0.002557 -0.001250 -0.000042
    13 H    -0.003250  0.001840  0.004835
    14 H    -0.003974  0.001644  0.002680
    15 H    -0.004661 -0.001343 -0.001269
    16 H    -0.000430 -0.001983 -0.004239
    17 H     0.003392 -0.000119 -0.002082
 ----------------------------------------
 
----------------------------------------------------------------------
Geometry Convergence after Step   1       (Hartree/Angstrom,Angstrom)
----------------------------------------------------------------------
current energy                               -3.97606252 Hartree
energy change                      -3.97606252     0.00017000    F
constrained gradient max            0.06237111     0.00010000    F
constrained gradient rms            0.01498174     0.00006667    F
gradient max                        0.06237111
gradient rms                        0.01498174
cart. step max                      0.12599115     0.01000000    F
cart. step rms                      0.02994801     0.00666667    F
 

--------
Geometry
--------
Formula: C8H6N2O
Atoms
  Index Symbol   x (angstrom)   y (angstrom)   z (angstrom)
      1      N     1.42894115    -1.09337507     4.85233902
      2      C     0.98598860    -1.18439708     3.76261481
      3      N     0.34025957    -1.20612411     2.59845017
      4      O     1.15976424    -1.83648818     1.64120867
      5      C     0.67949668    -2.08449725     0.44695171
      6      C    -0.67858572    -2.31850283     0.02685135
      7      C    -1.84439949    -1.90802829     0.72182137
      8      C    -3.10102465    -2.23718053     0.21693350
      9      C    -3.22640753    -2.95524090    -0.97997421
     10      C    -2.08115820    -3.35517415    -1.68241053
     11      C    -0.82024157    -3.03426503    -1.19186166
     12      H     1.48535587    -2.42098082    -0.20592932
     13      H    -1.75034331    -1.33351018     1.63572695
     14      H    -3.99329601    -1.91997486     0.75583704
     15      H    -4.21578424    -3.19622199    -1.36897864
     16      H    -2.17508528    -3.91088178    -2.61480070
     17      H     0.07037989    -3.33659693    -1.74214952

Total System Charge              0.00000

 *** GO1_GOStep2 ***

 Energy gradients wrt nuclear displacements
 ==========================================

     Atom      Cartesian (a.u./angstrom)
                 X         Y         Z
 ----------------------------------------
     1 N     0.003450 -0.000845  0.007171
     2 C    -0.007505  0.002978 -0.002724
     3 N     0.024425 -0.001145 -0.017896
     4 O    -0.016627 -0.018972  0.025114
     5 C     0.006034  0.039374 -0.010527
     6 C    -0.013711 -0.019899 -0.001673
     7 C     0.003658 -0.002242 -0.005654
     8 C     0.002070  0.000858  0.000130
     9 C     0.005325 -0.000132 -0.001628
    10 C    -0.004410  0.001306  0.002687
    11 C     0.002264 -0.000207  0.008222
    12 H     0.000268 -0.001679 -0.001661
    13 H    -0.002342  0.001042  0.000989
    14 H    -0.001739  0.000662  0.001087
    15 H    -0.002235 -0.000363 -0.000655
    16 H    -0.000142 -0.000901 -0.001874
    17 H     0.001218  0.000163 -0.001107
 ----------------------------------------

 dE(predicted):    -0.51152E-02, dE(actual):    -0.46122E-02, Trust radius:    0.400000, all in a.u.
 
----------------------------------------------------------------------
Geometry Convergence after Step   2       (Hartree/Angstrom,Angstrom)
----------------------------------------------------------------------
current energy                               -3.98067470 Hartree
energy change                      -0.00461219     0.00017000    F
constrained gradient max            0.03937499     0.00010000    F
constrained gradient rms            0.00972588     0.00006667    F
gradient max                        0.03937499
gradient rms                        0.00972588
cart. step max                      0.21151697     0.01000000    F
cart. step rms                      0.05325768     0.00666667    F
 

--------
Geometry
--------
Formula: C8H6N2O
Atoms
  Index Symbol   x (angstrom)   y (angstrom)   z (angstrom)
      1      N     1.42100500    -0.88185811     4.77983733
      2      C     0.94452352    -1.14562576     3.73741525
      3      N     0.23133280    -1.37825163     2.63836212
      4      O     1.14968168    -1.82677503     1.64397133
      5      C     0.69114045    -2.16461476     0.46804157
      6      C    -0.65738959    -2.36303869     0.03134699
      7      C    -1.81349053    -1.95367631     0.74813073
      8      C    -3.07899888    -2.24525866     0.23917179
      9      C    -3.22349836    -2.92121604    -0.97993475
     10      C    -2.08749119    -3.31503426    -1.70619429
     11      C    -0.81881447    -3.03349406    -1.21525016
     12      H     1.51610883    -2.43947588    -0.18749229
     13      H    -1.69617960    -1.41944712     1.68221970
     14      H    -3.96145592    -1.93433099     0.79387558
     15      H    -4.21700660    -3.13471649    -1.36883338
     16      H    -2.19737340    -3.83783824    -2.65365364
     17      H     0.06176626    -3.33678796    -1.77838387

Total System Charge              0.00000

 *** GO1_GOStep3 ***

 Energy gradients wrt nuclear displacements
 ==========================================

     Atom      Cartesian (a.u./angstrom)
                 X         Y         Z
 ----------------------------------------
     1 N    -0.002846 -0.000509 -0.004949
     2 C     0.002011 -0.001062  0.000354
     3 N     0.002373 -0.000964 -0.011549
     4 O    -0.003006 -0.007558  0.019040
     5 C     0.000803  0.016483 -0.005820
     6 C    -0.006677 -0.008223 -0.000090
     7 C     0.006343  0.001198 -0.002272
     8 C    -0.000493 -0.000221  0.003332
     9 C     0.000471 -0.000834 -0.001939
    10 C    -0.001996 -0.000518  0.000506
    11 C     0.002093 -0.000730  0.001781
    12 H     0.000077  0.000055 -0.000471
    13 H     0.000623  0.002499  0.002251
    14 H     0.000176 -0.000225 -0.000015
    15 H     0.000006  0.000605 -0.000010
    16 H     0.000373 -0.000150  0.000132
    17 H    -0.000331  0.000154 -0.000282
 ----------------------------------------

 dE(predicted):    -0.51530E-02, dE(actual):    -0.40559E-02, Trust radius:    0.800000, all in a.u.
 
----------------------------------------------------------------------
Geometry Convergence after Step   3       (Hartree/Angstrom,Angstrom)
----------------------------------------------------------------------
current energy                               -3.98473060 Hartree
energy change                      -0.00405589     0.00017000    F
constrained gradient max            0.01904527     0.00010000    F
constrained gradient rms            0.00467246     0.00006667    F
gradient max                        0.01904527
gradient rms                        0.00467246
cart. step max                      0.21529595     0.01000000    F
cart. step rms                      0.07456522     0.00666667    F
 

--------
Geometry
--------
Formula: C8H6N2O
Atoms
  Index Symbol   x (angstrom)   y (angstrom)   z (angstrom)
      1      N     1.58634805    -0.66656216     4.70384766
      2      C     1.03751130    -1.01911280     3.72521414
      3      N     0.25159109    -1.37407103     2.71005651
      4      O     1.13453141    -1.83999207     1.67200017
      5      C     0.65673507    -2.27168209     0.53760578
      6      C    -0.68462724    -2.44247997     0.08274561
      7      C    -1.85940158    -2.06662257     0.79415991
      8      C    -3.11289877    -2.28332118     0.21996574
      9      C    -3.23292116    -2.87819886    -1.04222455
     10      C    -2.08137052    -3.25098741    -1.75735413
     11      C    -0.82505146    -3.03219080    -1.20971205
     12      H     1.48250679    -2.52848018    -0.12277047
     13      H    -1.76062643    -1.61470778     1.77054434
     14      H    -4.00588393    -1.99189956     0.76665575
     15      H    -4.21662512    -3.05149714    -1.47123425
     16      H    -2.17186708    -3.70669533    -2.73985280
     17      H     0.06590960    -3.31293909    -1.76701735

Total System Charge              0.00000

 *** GO1_GOStep4 ***

 Energy gradients wrt nuclear displacements
 ==========================================

     Atom      Cartesian (a.u./angstrom)
                 X         Y         Z
 ----------------------------------------
     1 N    -0.002917 -0.002141 -0.004613
     2 C     0.004330  0.001745  0.002392
     3 N     0.002388  0.001366 -0.000489
     4 O    -0.000936 -0.001576  0.008517
     5 C    -0.002683 -0.000921 -0.006585
     6 C     0.002397 -0.002032  0.001730
     7 C    -0.000366  0.001567  0.002258
     8 C    -0.002753  0.001283 -0.000797
     9 C    -0.002755 -0.000194  0.000118
    10 C     0.000636 -0.000857 -0.001206
    11 C     0.001449 -0.001275 -0.001308
    12 H    -0.000061  0.003410  0.000897
    13 H    -0.000274 -0.000762 -0.001698
    14 H     0.000994 -0.000481 -0.000820
    15 H     0.001147 -0.000161  0.000729
    16 H     0.000333  0.000529  0.000832
    17 H    -0.000930  0.000500  0.000044
 ----------------------------------------

 dE(predicted):    -0.21037E-02, dE(actual):    -0.12018E-02, Trust radius:    0.800000, all in a.u.
 
----------------------------------------------------------------------
Geometry Convergence after Step   4       (Hartree/Angstrom,Angstrom)
----------------------------------------------------------------------
current energy                               -3.98593241 Hartree
energy change                      -0.00120181     0.00017000    F
constrained gradient max            0.00854111     0.00010000    F
constrained gradient rms            0.00227952     0.00006667    F
gradient max                        0.00854111
gradient rms                        0.00227952
cart. step max                      0.08097689     0.01000000    F
cart. step rms                      0.02425061     0.00666667    F
 

--------
Geometry
--------
Formula: C8H6N2O
Atoms
  Index Symbol   x (angstrom)   y (angstrom)   z (angstrom)
      1      N     1.54886468    -0.61127681     4.69199412
      2      C     1.01052765    -0.98529415     3.71187233
      3      N     0.24674327    -1.36599766     2.68785430
      4      O     1.14320381    -1.82261195     1.65100981
      5      C     0.66528582    -2.29814063     0.53817610
      6      C    -0.67776306    -2.45932221     0.08613407
      7      C    -1.84875798    -2.09795689     0.81034951
      8      C    -3.10378658    -2.29993939     0.23689156
      9      C    -3.22948700    -2.85688034    -1.04166074
     10      C    -2.08265861    -3.22341465    -1.76634507
     11      C    -0.82485531    -3.03040245    -1.21344051
     12      H     1.48652782    -2.60945706    -0.10531390
     13      H    -1.74541429    -1.67345331     1.79904341
     14      H    -3.99438169    -2.01801472     0.79388172
     15      H    -4.21551706    -3.01012657    -1.47473190
     16      H    -2.17893123    -3.65787610    -2.75846506
     17      H     0.06425976    -3.31127509    -1.77461974

Total System Charge              0.00000

 *** GO1_GOStep5 ***

 Energy gradients wrt nuclear displacements
 ==========================================

     Atom      Cartesian (a.u./angstrom)
                 X         Y         Z
 ----------------------------------------
     1 N     0.002990  0.001799  0.003412
     2 C    -0.002656 -0.001518  0.001036
     3 N     0.001825 -0.001144 -0.002953
     4 O    -0.002179  0.002006 -0.002271
     5 C    -0.001172 -0.000681 -0.002073
     6 C     0.002095  0.000848  0.001320
     7 C    -0.000190  0.000615  0.000719
     8 C    -0.000674 -0.000470  0.000038
     9 C    -0.000802  0.000611  0.000123
    10 C     0.000442  0.000122 -0.000510
    11 C     0.000065 -0.001090 -0.000548
    12 H    -0.000086 -0.000434  0.001655
    13 H    -0.000049 -0.000841 -0.000324
    14 H     0.000316  0.000093 -0.000343
    15 H     0.000407 -0.000207  0.000270
    16 H     0.000041  0.000171  0.000359
    17 H    -0.000373  0.000119  0.000089
 ----------------------------------------

 dE(predicted):    -0.28341E-03, dE(actual):    -0.19621E-03, Trust radius:    0.800000, all in a.u.
 
----------------------------------------------------------------------
Geometry Convergence after Step   5       (Hartree/Angstrom,Angstrom)
----------------------------------------------------------------------
current energy                               -3.98612862 Hartree
energy change                      -0.00019621     0.00017000    F
constrained gradient max            0.00343530     0.00010000    F
constrained gradient rms            0.00128070     0.00006667    F
gradient max                        0.00343530
gradient rms                        0.00128070
cart. step max                      0.06353294     0.01000000    F
cart. step rms                      0.01627999     0.00666667    F
 

--------
Geometry
--------
Formula: C8H6N2O
Atoms
  Index Symbol   x (angstrom)   y (angstrom)   z (angstrom)
      1      N     1.53312452    -0.54774387     4.66836268
      2      C     1.00725051    -0.96009390     3.69754321
      3      N     0.24378276    -1.38603708     2.69254971
      4      O     1.14422477    -1.86299688     1.66691287
      5      C     0.66792236    -2.32742109     0.54820746
      6      C    -0.67558259    -2.47063889     0.08895700
      7      C    -1.84493508    -2.11323032     0.81724342
      8      C    -3.10070343    -2.30817450     0.24363340
      9      C    -3.22861298    -2.84963857    -1.04146418
     10      C    -2.08317472    -3.20572800    -1.77314577
     11      C    -0.82445265    -3.02013248    -1.21944017
     12      H     1.48792200    -2.63378081    -0.10012463
     13      H    -1.73968266    -1.69521692     1.80885141
     14      H    -3.99047810    -2.03443427     0.80651054
     15      H    -4.21553975    -2.99327141    -1.47649230
     16      H    -2.18124785    -3.62632153    -2.77129208
     17      H     0.06404290    -3.29657949    -1.78418258

Total System Charge              0.00000

 *** GO1_GOStep6 ***

 Energy gradients wrt nuclear displacements
 ==========================================

     Atom      Cartesian (a.u./angstrom)
                 X         Y         Z
 ----------------------------------------
     1 N     0.001221  0.000879  0.002304
     2 C    -0.000636  0.000271 -0.001235
     3 N     0.000390 -0.001081 -0.001065
     4 O    -0.001235 -0.000073  0.000707
     5 C    -0.000541 -0.001127 -0.001469
     6 C     0.000985  0.000255  0.001143
     7 C     0.000113  0.000505  0.000055
     8 C    -0.000037 -0.000442  0.000192
     9 C    -0.000282 -0.000105  0.000270
    10 C     0.000188 -0.000197 -0.000156
    11 C    -0.000241  0.000434 -0.000996
    12 H     0.000005  0.000550  0.000104
    13 H     0.000119  0.000058 -0.000082
    14 H     0.000069 -0.000153  0.000051
    15 H     0.000103  0.000242 -0.000070
    16 H    -0.000052 -0.000014  0.000186
    17 H    -0.000167 -0.000001  0.000059
 ----------------------------------------

 dE(predicted):    -0.73343E-04, dE(actual):    -0.72965E-04, Trust radius:    0.800000, all in a.u.
 
----------------------------------------------------------------------
Geometry Convergence after Step   6       (Hartree/Angstrom,Angstrom)
----------------------------------------------------------------------
current energy                               -3.98620159 Hartree
energy change                      -0.00007296     0.00017000    T
constrained gradient max            0.00233332     0.00010000    F
constrained gradient rms            0.00066514     0.00006667    F
gradient max                        0.00233332
gradient rms                        0.00066514
cart. step max                      0.04078598     0.01000000    F
cart. step rms                      0.00938660     0.00666667    F
 

--------
Geometry
--------
Formula: C8H6N2O
Atoms
  Index Symbol   x (angstrom)   y (angstrom)   z (angstrom)
      1      N     1.53559778    -0.58852986     4.68139838
      2      C     1.00989463    -0.97400232     3.70112727
      3      N     0.24465350    -1.36644828     2.68507944
      4      O     1.14523521    -1.84803267     1.66225442
      5      C     0.66767168    -2.31432790     0.54487446
      6      C    -0.67650904    -2.46219306     0.08678604
      7      C    -1.84647179    -2.10276468     0.81297152
      8      C    -3.10187812    -2.30273951     0.24035070
      9      C    -3.22885924    -2.85601434    -1.03985366
     10      C    -2.08277016    -3.21491773    -1.76894267
     11      C    -0.82427546    -3.02260162    -1.21669879
     12      H     1.48678895    -2.62442572    -0.10308240
     13      H    -1.74217852    -1.67685764     1.80142271
     14      H    -3.99218185    -2.02701676     0.80155518
     15      H    -4.21579958    -3.00821933    -1.47213703
     16      H    -2.17995414    -3.64258779    -2.76427432
     17      H     0.06489615    -3.29976080    -1.78020123

Total System Charge              0.00000

 *** GO1_GOStep7 ***

 Energy gradients wrt nuclear displacements
 ==========================================

     Atom      Cartesian (a.u./angstrom)
                 X         Y         Z
 ----------------------------------------
     1 N    -0.001274 -0.000732 -0.001808
     2 C     0.001622  0.000114  0.000901
     3 N     0.000231 -0.000053 -0.000466
     4 O    -0.000118  0.000917  0.001787
     5 C    -0.000485 -0.000570 -0.000697
     6 C     0.000183  0.000259  0.000179
     7 C     0.000023 -0.000370  0.000090
     8 C     0.000027  0.000366 -0.000171
     9 C    -0.000132 -0.000072  0.000180
    10 C     0.000053 -0.000003 -0.000027
    11 C    -0.000141 -0.000033 -0.000208
    12 H     0.000061  0.000212  0.000020
    13 H     0.000055  0.000028  0.000068
    14 H     0.000001 -0.000168  0.000119
    15 H    -0.000009 -0.000073  0.000063
    16 H    -0.000057  0.000085 -0.000006
    17 H    -0.000040  0.000092 -0.000024
 ----------------------------------------

 dE(predicted):    -0.18953E-04, dE(actual):    -0.11624E-05, Trust radius:    0.020000, all in a.u.
 
----------------------------------------------------------------------
Geometry Convergence after Step   7       (Hartree/Angstrom,Angstrom)
----------------------------------------------------------------------
current energy                               -3.98620275 Hartree
energy change                      -0.00000116     0.00017000    T
constrained gradient max            0.00182720     0.00010000    F
constrained gradient rms            0.00054000     0.00006667    F
gradient max                        0.00182720
gradient rms                        0.00054000
cart. step max                      0.00616534     0.01000000    T
cart. step rms                      0.00177453     0.00666667    T
 

--------
Geometry
--------
Formula: C8H6N2O
Atoms
  Index Symbol   x (angstrom)   y (angstrom)   z (angstrom)
      1      N     1.54080285    -0.58236451     4.67849633
      2      C     1.00969898    -0.97156740     3.70188645
      3      N     0.24467196    -1.37055289     2.68800063
      4      O     1.14503530    -1.84917619     1.66262925
      5      C     0.66703671    -2.31472321     0.54551348
      6      C    -0.67715531    -2.46311498     0.08753035
      7      C    -1.84746917    -2.10419221     0.81349002
      8      C    -3.10262613    -2.30458635     0.24045159
      9      C    -3.22887464    -2.85512822    -1.04102074
     10      C    -2.08244367    -3.21368877    -1.76971212
     11      C    -0.82426197    -3.02283936    -1.21625066
     12      H     1.48578530    -2.62600766    -0.10236876
     13      H    -1.74368944    -1.67989383     1.80265124
     14      H    -3.99316579    -2.02813456     0.80090347
     15      H    -4.21558082    -3.00603455    -1.47428070
     16      H    -2.17908806    -3.64001055    -2.76567247
     17      H     0.06518389    -3.29942475    -1.77961735

Total System Charge              0.00000

 *** GO1_GOStep8 ***

 Energy gradients wrt nuclear displacements
 ==========================================

     Atom      Cartesian (a.u./angstrom)
                 X         Y         Z
 ----------------------------------------
     1 N     0.000059 -0.000128 -0.000178
     2 C     0.000003  0.000076  0.000231
     3 N     0.000651 -0.000390 -0.000578
     4 O    -0.000382  0.000469  0.000746
     5 C    -0.000286 -0.000156 -0.000565
     6 C     0.000215  0.000210  0.000113
     7 C    -0.000043  0.000028  0.000023
     8 C    -0.000044 -0.000210  0.000068
     9 C    -0.000122  0.000111  0.000083
    10 C     0.000079  0.000052 -0.000027
    11 C    -0.000093 -0.000184 -0.000086
    12 H     0.000021  0.000053  0.000087
    13 H     0.000011 -0.000063  0.000016
    14 H     0.000017 -0.000013  0.000047
    15 H    -0.000009 -0.000053  0.000067
    16 H    -0.000048  0.000079 -0.000001
    17 H    -0.000029  0.000119 -0.000045
 ----------------------------------------

 dE(predicted):    -0.39502E-05, dE(actual):    -0.35276E-05, Trust radius:    0.020000, all in a.u.
 
----------------------------------------------------------------------
Geometry Convergence after Step   8       (Hartree/Angstrom,Angstrom)
----------------------------------------------------------------------
current energy                               -3.98620628 Hartree
energy change                      -0.00000353     0.00017000    T
constrained gradient max            0.00078605     0.00010000    F
constrained gradient rms            0.00022578     0.00006667    F
gradient max                        0.00078605
gradient rms                        0.00022578
cart. step max                      0.00376762     0.01000000    T
cart. step rms                      0.00129139     0.00666667    T
 

--------
Geometry
--------
Formula: C8H6N2O
Atoms
  Index Symbol   x (angstrom)   y (angstrom)   z (angstrom)
      1      N     1.53939941    -0.57859689     4.67762143
      2      C     1.00902089    -0.96943638     3.70102193
      3      N     0.24418439    -1.36917578     2.68726784
      4      O     1.14517547    -1.85075047     1.66273819
      5      C     0.66729852    -2.31712131     0.54616682
      6      C    -0.67690618    -2.46478793     0.08794113
      7      C    -1.84700489    -2.10621871     0.81441452
      8      C    -3.10222680    -2.30488842     0.24093749
      9      C    -3.22873791    -2.85409740    -1.04111426
     10      C    -2.08251268    -3.21227318    -1.77028190
     11      C    -0.82420957    -3.02216552    -1.21679765
     12      H     1.48581489    -2.62845200    -0.10205872
     13      H    -1.74293183    -1.68356788     1.80424850
     14      H    -3.99266551    -2.02945034     0.80203778
     15      H    -4.21552679    -3.00375156    -1.47461618
     16      H    -2.17938605    -3.63773929    -2.76658211
     17      H     0.06507465    -3.29896693    -1.78031481

Total System Charge              0.00000

 *** GO1_GOStep9 ***

 Energy gradients wrt nuclear displacements
 ==========================================

     Atom      Cartesian (a.u./angstrom)
                 X         Y         Z
 ----------------------------------------
     1 N     0.000344  0.000148  0.000393
     2 C    -0.000220 -0.000175 -0.000195
     3 N     0.000352 -0.000203 -0.000487
     4 O    -0.000329  0.000229  0.000302
     5 C    -0.000149 -0.000183 -0.000294
     6 C     0.000204  0.000017  0.000189
     7 C     0.000005  0.000023  0.000083
     8 C    -0.000027  0.000017  0.000009
     9 C    -0.000104 -0.000023  0.000081
    10 C     0.000049 -0.000005 -0.000014
    11 C    -0.000073  0.000110 -0.000220
    12 H    -0.000006  0.000115 -0.000008
    13 H     0.000034 -0.000081  0.000037
    14 H     0.000020 -0.000090  0.000081
    15 H    -0.000009 -0.000007  0.000053
    16 H    -0.000050  0.000049  0.000018
    17 H    -0.000040  0.000060 -0.000027
 ----------------------------------------

 dE(predicted):    -0.70654E-06, dE(actual):     0.13668E-05, Trust radius:    0.020000, all in a.u.
 
----------------------------------------------------------------------
Geometry Convergence after Step   9       (Hartree/Angstrom,Angstrom)
----------------------------------------------------------------------
current energy                               -3.98620491 Hartree
energy change                       0.00000137     0.00017000    T
constrained gradient max            0.00048026     0.00010000    F
constrained gradient rms            0.00016321     0.00006667    F
gradient max                        0.00048026
gradient rms                        0.00016321
cart. step max                      0.00097158     0.01000000    T
cart. step rms                      0.00028794     0.00666667    T
 

--------
Geometry
--------
Formula: C8H6N2O
Atoms
  Index Symbol   x (angstrom)   y (angstrom)   z (angstrom)
      1      N     1.53975331    -0.57906149     4.67782200
      2      C     1.00971223    -0.96962021     3.70105876
      3      N     0.24419145    -1.36940105     2.68795817
      4      O     1.14536945    -1.85077240     1.66265208
      5      C     0.66723610    -2.31660414     0.54615345
      6      C    -0.67707573    -2.46439805     0.08790009
      7      C    -1.84724552    -2.10594750     0.81428856
      8      C    -3.10239924    -2.30507210     0.24085827
      9      C    -3.22873432    -2.85434743    -1.04119907
     10      C    -2.08245162    -3.21245376    -1.77022722
     11      C    -0.82420812    -3.02227738    -1.21656137
     12      H     1.48542751    -2.62832030    -0.10238640
     13      H    -1.74326130    -1.68259630     1.80383863
     14      H    -3.99292546    -2.02959718     0.80181764
     15      H    -4.21549799    -3.00400351    -1.47478755
     16      H    -2.17917854    -3.63794051    -2.76654459
     17      H     0.06514782    -3.29902669    -1.78001144

Total System Charge              0.00000

 *** GO1_GOStep10 ***

 Energy gradients wrt nuclear displacements
 ==========================================

     Atom      Cartesian (a.u./angstrom)
                 X         Y         Z
 ----------------------------------------
     1 N     0.000069 -0.000030  0.000065
     2 C     0.000086 -0.000028 -0.000088
     3 N     0.000155 -0.000118 -0.000137
     4 O    -0.000148  0.000088  0.000097
     5 C    -0.000044 -0.000012 -0.000094
     6 C     0.000103  0.000041  0.000043
     7 C    -0.000025 -0.000043  0.000074
     8 C    -0.000012 -0.000032  0.000028
     9 C    -0.000051 -0.000024  0.000053
    10 C     0.000005  0.000028 -0.000005
    11 C    -0.000057  0.000064 -0.000093
    12 H    -0.000014  0.000064 -0.000052
    13 H     0.000028 -0.000038  0.000015
    14 H     0.000011 -0.000080  0.000083
    15 H    -0.000024  0.000002  0.000049
    16 H    -0.000053  0.000052  0.000001
    17 H    -0.000031  0.000066 -0.000039
 ----------------------------------------
 
----------------------------------------------------------------------
Geometry Convergence after Step  10       (Hartree/Angstrom,Angstrom)
----------------------------------------------------------------------
current energy                               -3.98620518 Hartree
energy change                      -0.00000027     0.00017000    T
constrained gradient max            0.00016809     0.00010000    F
constrained gradient rms            0.00005305     0.00006667    T
gradient max                        0.00016809
gradient rms                        0.00005305
cart. step max                      0.00250941     0.01000000    T
cart. step rms                      0.00068390     0.00666667    T
 

--------
Geometry
--------
Formula: C8H6N2O
Atoms
  Index Symbol   x (angstrom)   y (angstrom)   z (angstrom)
      1      N     1.54015682    -0.58157090     4.67849204
      2      C     1.00943803    -0.97075391     3.70160009
      3      N     0.24385742    -1.36892040     2.68797701
      4      O     1.14544063    -1.85024536     1.66243953
      5      C     0.66729765    -2.31563332     0.54585137
      6      C    -0.67708828    -2.46367492     0.08761285
      7      C    -1.84723542    -2.10481352     0.81379586
      8      C    -3.10239950    -2.30460324     0.24064082
      9      C    -3.22871560    -2.85485364    -1.04101004
     10      C    -2.08244088    -3.21319492    -1.76988863
     11      C    -0.82417274    -3.02243594    -1.21641688
     12      H     1.48539445    -2.62711042    -0.10297483
     13      H    -1.74326031    -1.68093189     1.80312650
     14      H    -3.99294619    -2.02882584     0.80142441
     15      H    -4.21551215    -3.00530303    -1.47426109
     16      H    -2.17913981    -3.63932827    -2.76593659
     17      H     0.06518590    -3.29924046    -1.77984240

Total System Charge              0.00000

 *** GO1_GOStep11 ***

 Energy gradients wrt nuclear displacements
 ==========================================

     Atom      Cartesian (a.u./angstrom)
                 X         Y         Z
 ----------------------------------------
     1 N     0.000015 -0.000094 -0.000111
     2 C     0.000088 -0.000003  0.000067
     3 N     0.000066 -0.000034 -0.000031
     4 O    -0.000017  0.000003 -0.000038
     5 C     0.000037  0.000049  0.000016
     6 C    -0.000006  0.000010 -0.000043
     7 C    -0.000000 -0.000012  0.000022
     8 C    -0.000009 -0.000045  0.000052
     9 C    -0.000020 -0.000002  0.000025
    10 C    -0.000036  0.000041  0.000005
    11 C    -0.000026  0.000030  0.000002
    12 H    -0.000012  0.000063 -0.000087
    13 H     0.000023 -0.000052  0.000037
    14 H     0.000006 -0.000069  0.000078
    15 H    -0.000030 -0.000022  0.000065
    16 H    -0.000050  0.000057 -0.000008
    17 H    -0.000028  0.000080 -0.000051
 ----------------------------------------
 
---------------------------------------------------------
Geometry Convergence after Step  11       ** CONVERGED **
---------------------------------------------------------
current energy                               -3.98620470 Hartree
energy change                       0.00000049     0.00017000    T
constrained gradient max            0.00009241     0.00010000    T
constrained gradient rms            0.00002549     0.00006667    T
gradient max                        0.00009241
gradient rms                        0.00002549
cart. step max                      0.00031641     0.01000000    T
cart. step rms                      0.00009337     0.00666667    T
 
Geometry optimization converged

Optimized geometry:

--------
Geometry
--------
Formula: C8H6N2O
Atoms
  Index Symbol   x (angstrom)   y (angstrom)   z (angstrom)
      1      N     1.54015682    -0.58157090     4.67849204
      2      C     1.00943803    -0.97075391     3.70160009
      3      N     0.24385742    -1.36892040     2.68797701
      4      O     1.14544063    -1.85024536     1.66243953
      5      C     0.66729765    -2.31563332     0.54585137
      6      C    -0.67708828    -2.46367492     0.08761285
      7      C    -1.84723542    -2.10481352     0.81379586
      8      C    -3.10239950    -2.30460324     0.24064082
      9      C    -3.22871560    -2.85485364    -1.04101004
     10      C    -2.08244088    -3.21319492    -1.76988863
     11      C    -0.82417274    -3.02243594    -1.21641688
     12      H     1.48539445    -2.62711042    -0.10297483
     13      H    -1.74326031    -1.68093189     1.80312650
     14      H    -3.99294619    -2.02882584     0.80142441
     15      H    -4.21551215    -3.00530303    -1.47426109
     16      H    -2.17913981    -3.63932827    -2.76593659
     17      H     0.06518590    -3.29924046    -1.77984240

Total System Charge              0.00000

Performing a single point calculation on the final geometry ...

 *** adf ***



 ===========================
 A T T A C H E D   F I L E S
 ===========================
  
 Restart/tmp/amstmp_c4_fragA_opt_kid0.1006470796/GO1_GOStep11.rkf*** GO1_GOStep11 ***



 ===============================
 M O D E L   P A R A M E T E R S
 ===============================
  
 DENSITY FUNCTIONAL POTENTIAL (scf)
    LDA:                               Exchange only                           == Not Default ==
    Gradient Corrections:              Becke88 LYP                             == Not Default ==

 SPIN  (restricted / unrestr.)
    Molecule:                          Restricted                               
    Fragments:                         Restricted                               

 OTHER ASPECTS
    Relativistic Corrections:          scalar (ZORA,MAPA)                       

    Nuclear Charge Density Model:      Point Charge Nuclei                      
    Core Treatment:                    Frozen Orbital(s)                        

    Hyperfine or Zeeman Interaction:   ---                                      

 Settings for Grimme D3 dispersion correction

      damping                        BJ
      s6                          1.000
      s8                          2.700
      a1                          0.430
      a2                          4.236

 Other (technical) parameters

      alpha                      14.000
      version                         4
 



 ===============
 G E O M E T R Y  ***  3D  Molecule  ***
 ===============
  

 ATOMS
 =====                            X Y Z                    CHARGE
                                (Angstrom)             Nucl     +Core       At.Mass
                       --------------------------    ----------------       -------
    1  N               1.5402   -0.5816    4.6785      7.00      7.00       14.0031
    2  C               1.0094   -0.9708    3.7016      6.00      6.00       12.0000
    3  N               0.2439   -1.3689    2.6880      7.00      7.00       14.0031
    4  O               1.1454   -1.8502    1.6624      8.00      8.00       15.9949
    5  C               0.6673   -2.3156    0.5459      6.00      6.00       12.0000
    6  C              -0.6771   -2.4637    0.0876      6.00      6.00       12.0000
    7  C              -1.8472   -2.1048    0.8138      6.00      6.00       12.0000
    8  C              -3.1024   -2.3046    0.2406      6.00      6.00       12.0000
    9  C              -3.2287   -2.8549   -1.0410      6.00      6.00       12.0000
   10  C              -2.0824   -3.2132   -1.7699      6.00      6.00       12.0000
   11  C              -0.8242   -3.0224   -1.2164      6.00      6.00       12.0000
   12  H               1.4854   -2.6271   -0.1030      1.00      1.00        1.0078
   13  H              -1.7433   -1.6809    1.8031      1.00      1.00        1.0078
   14  H              -3.9929   -2.0288    0.8014      1.00      1.00        1.0078
   15  H              -4.2155   -3.0053   -1.4743      1.00      1.00        1.0078
   16  H              -2.1791   -3.6393   -2.7659      1.00      1.00        1.0078
   17  H               0.0652   -3.2992   -1.7798      1.00      1.00        1.0078


 FRAGMENTS
 =========                                     Atoms in this Fragment     Cart. coord.s (Angstrom)
                                               -------------------------------------------------------
    1  N                                                 1  N            1.5402   -0.5816    4.6785
    2  N                                                 3  N            0.2439   -1.3689    2.6880
    3  C                                                 2  C            1.0094   -0.9708    3.7016
    4  C                                                 5  C            0.6673   -2.3156    0.5459
    5  C                                                 6  C           -0.6771   -2.4637    0.0876
    6  C                                                 7  C           -1.8472   -2.1048    0.8138
    7  C                                                 8  C           -3.1024   -2.3046    0.2406
    8  C                                                 9  C           -3.2287   -2.8549   -1.0410
    9  C                                                10  C           -2.0824   -3.2132   -1.7699
   10  C                                                11  C           -0.8242   -3.0224   -1.2164
   11  O                                                 4  O            1.1454   -1.8502    1.6624
   12  H                                                12  H            1.4854   -2.6271   -0.1030
   13  H                                                13  H           -1.7433   -1.6809    1.8031
   14  H                                                14  H           -3.9929   -2.0288    0.8014
   15  H                                                15  H           -4.2155   -3.0053   -1.4743
   16  H                                                16  H           -2.1791   -3.6393   -2.7659
   17  H                                                17  H            0.0652   -3.2992   -1.7798


 Interatomic Distance Matrix (Angstrom)
 --------------------------------------

   1)     0.000
   2)     1.178   0.000
   3)     2.502   1.331   0.000
   4)     3.296   2.225   1.448   0.000
   5)     4.566   3.447   2.380   1.301   0.000
   6)     5.435   4.258   2.968   2.486   1.428   0.000
   7)     5.360   4.217   2.903   3.121   2.538   1.423   0.000
   8)     6.650   5.538   4.250   4.502   3.782   2.435   1.394   0.000
   9)     7.786   6.634   5.308   5.239   4.241   2.817   2.431   1.400   0.000
  10)     7.850   6.673   5.356   4.905   3.705   2.447   2.821   2.431   1.405   0.000
  11)     6.804   5.635   4.373   3.680   2.414   1.426   2.452   2.798   2.417   1.388
          0.000
  12)     5.201   4.177   3.304   1.959   1.090   2.177   3.496   4.612   4.812   3.981
          2.594   0.000
  13)     4.501   3.418   2.197   2.897   2.792   2.166   1.081   2.163   3.417   3.902
          3.430   3.867   0.000
  14)     6.910   5.878   4.685   5.213   4.676   3.420   2.147   1.088   2.159   3.415
          3.886   5.585   2.487   0.000
  15)     8.767   7.631   6.316   6.318   5.329   3.906   3.414   2.161   1.088   2.163
          3.401   5.876   4.314   2.486   0.000
  16)     8.866   7.689   6.385   5.819   4.563   3.432   3.909   3.417   2.166   1.088
          2.149   4.642   4.990   4.314   2.493   0.000
  17)     7.160   6.030   4.870   3.888   2.596   2.176   3.437   3.887   3.405   2.149
          1.089   2.298   4.327   4.974   4.302   2.475   0.000

 Min. Distance =    1.0813
 Max. Distance =    8.8658



 =====================================
 S Y M M E T R Y ,   E L E C T R O N S
 =====================================
  
 Symmetry: NOSYM

 Irreducible Representations, including subspecies
 -------------------------------------------------
 A


 Configuration of Valence Electrons
 ==================================
 ( determined in the SCF procedure )

 Total:   76

 Net Charge: 0 (Nuclei minus Electrons)

 Aufbau principle for MO occupations will be applied through SCF cycle no.     100
 Thereafter, the program will assign electrons to MOs that are spatially
 similar to the occupied MOs in a "reference" cycle ("KeepOrbitals").
 The reference cycle is always the PREVIOUS cycle: it will evolve with
 the SCF procedure.
 ***************************************************************************************************



                                      ****************************************
                                      *  B U I L D : (Fragments, Functions)  *
                                      ****************************************
  



 =======
 S F O s  ***  (Symmetrized Fragment Orbitals)  ***
 =======
  
 SFOs are linear combinations of (valence) Fragment Orbitals (FOs), such that the SFOs transform as the
 irreducible representations of the (molecular) symmetry group. Each SFO is therefore characterized by
 an irrep of the molecule and by a few (or only one) generating FOs.
 The SFOs constitute a symmetry-adapted basis for the Fock matrix. The MO eigenvector coefficients in
 this basis provide a direct interpretation of the MOs in terms of Frontier Orbital Theory.

 The SFOs are combined with auxiliary Core Functions (CFs) to ensure orthogonalization on the (frozen)
 Core Orbitals (COs). The Core-orthogonalized SFOs (CSFOs) constitute the true Fock basis.

 The FOs, and hence also the (C)SFOs are combinations of the elementary basis functions (BAS). The basis
 functions that participate in the description of the SFOs depend on the irrep. The indices of the
 involved functions are printed below for each irrep.
 (The complete list of primitive basis functions is printed in another section)

 Total nr. of (C)SFOs (summation over all irreps) :   352

 NOTE: a (C)SFO that is defined as a combination of more than one FO is usually NOT normalized.



                                       === A ===
 Nr. of SFOs :  352
 Cartesian basis functions that participate in this irrep (total number =   402) :
      1     2     3     4     5     6     9    12     7    10
     13     8    11    14    15    16    17    18    19    20
     21    22    23    24    25    26    27    28    29    30
     31    32    33    34    35    36    39    42    37    40
     43    38    41    44    45    46    47    48    49    50
     51    52    53    54    55    56    57    58    59    60
     61    62    63    64    65    66    69    72    67    70
     73    68    71    74    75    76    77    78    79    80
     81    82    83    84    85    86    87    88    89    90
     91    92    93    94    95    96    99   102    97   100
    103    98   101   104   105   106   107   108   109   110
    111   112   113   114   115   116   117   118   119   120
    121   122   123   124   125   126   129   132   127   130
    133   128   131   134   135   136   137   138   139   140
    141   142   143   144   145   146   147   148   149   150
    151   152   153   154   155   156   159   162   157   160
    163   158   161   164   165   166   167   168   169   170
    171   172   173   174   175   176   177   178   179   180
    181   182   183   184   185   186   189   192   187   190
    193   188   191   194   195   196   197   198   199   200
    201   202   203   204   205   206   207   208   209   210
    211   212   213   214   215   216   219   222   217   220
    223   218   221   224   225   226   227   228   229   230
    231   232   233   234   235   236   237   238   239   240
    241   242   243   244   245   246   249   252   247   250
    253   248   251   254   255   256   257   258   259   260
    261   262   263   264   265   266   267   268   269   270
    271   272   273   274   275   276   279   282   277   280
    283   278   281   284   285   286   287   288   289   290
    291   292   293   294   295   296   297   298   299   300
    301   302   303   304   305   306   309   312   307   310
    313   308   311   314   315   316   317   318   319   320
    321   322   323   324   325   326   327   328   329   330
    331   332   333   334   335   336   337   338   339   340
    341   342   343   344   345   346   347   348   349   350
    351   352   353   354   355   356   357   358   359   360
    361   362   363   364   365   366   367   368   369   370
    371   372   373   374   375   376   377   378   379   380
    381   382   383   384   385   386   387   388   389   390
    391   392   393   394   395   396   397   398   399   400
    401   402

    SFO  (index         Fragment          Generating    Expansion in Fragment Orbitals
  indx  incl.CFs)   Occup   Orb.Energy   FragmentType  Coeff.   Orbital     on Fragment
 --------------------------------------------------------------------------------------
     1       1      2.000     -14.160 au  N             1.00      1 S               1
                        (    -385.319 eV)
     2       2      2.000      -0.678 au  N             1.00      2 S               1
                        (     -18.450 eV)
     3       3       --         0.517 au  N             1.00      3 S               1
                        (      14.073 eV)
     4       4       --         6.872 au  N             1.00      4 S               1
                        (     186.990 eV)
     5       5       --        63.432 au  N             1.00      5 S               1
                        (    1726.082 eV)
     6       6      1.000      -0.260 au  N             1.00      1 P:x             1
                        (      -7.062 eV)
     7       7       --         0.281 au  N             1.00      2 P:x             1
                        (       7.649 eV)
     8       8       --         3.275 au  N             1.00      3 P:x             1
                        (      89.105 eV)
     9       9      1.000      -0.260 au  N             1.00      1 P:y             1
                        (      -7.062 eV)
    10      10       --         0.281 au  N             1.00      2 P:y             1
                        (       7.649 eV)
    11      11       --         3.275 au  N             1.00      3 P:y             1
                        (      89.105 eV)
    12      12      1.000      -0.260 au  N             1.00      1 P:z             1
                        (      -7.062 eV)
    13      13       --         0.281 au  N             1.00      2 P:z             1
                        (       7.649 eV)
    14      14       --         3.275 au  N             1.00      3 P:z             1
                        (      89.105 eV)
    15      15       --         1.250 au  N             1.00      1 D:z2            1
                        (      34.005 eV)
    16      16       --         1.250 au  N             1.00      1 D:x2-y2         1
                        (      34.005 eV)
    17      17       --         1.250 au  N             1.00      1 D:xy            1
                        (      34.005 eV)
    18      18       --         1.250 au  N             1.00      1 D:xz            1
                        (      34.005 eV)
    19      19       --         1.250 au  N             1.00      1 D:yz            1
                        (      34.005 eV)
    20      20       --         4.013 au  N             1.00      1 F:z3            1
                        (     109.190 eV)
    21      21       --         4.013 au  N             1.00      1 F:z             1
                        (     109.190 eV)
    22      22       --         4.013 au  N             1.00      1 F:xyz           1
                        (     109.190 eV)
    23      23       --         4.013 au  N             1.00      1 F:z2x           1
                        (     109.190 eV)
    24      24       --         4.013 au  N             1.00      1 F:z2y           1
                        (     109.190 eV)
    25      25       --         4.013 au  N             1.00      1 F:x             1
                        (     109.190 eV)
    26      26       --         4.013 au  N             1.00      1 F:y             1
                        (     109.190 eV)
    27      27      2.000     -14.160 au  N             1.00      1 S               2
                        (    -385.319 eV)
    28      28      2.000      -0.678 au  N             1.00      2 S               2
                        (     -18.450 eV)
    29      29       --         0.517 au  N             1.00      3 S               2
                        (      14.073 eV)
    30      30       --         6.872 au  N             1.00      4 S               2
                        (     186.990 eV)
    31      31       --        63.432 au  N             1.00      5 S               2
                        (    1726.082 eV)
    32      32      1.000      -0.260 au  N             1.00      1 P:x             2
                        (      -7.062 eV)
    33      33       --         0.281 au  N             1.00      2 P:x             2
                        (       7.649 eV)
    34      34       --         3.275 au  N             1.00      3 P:x             2
                        (      89.105 eV)
    35      35      1.000      -0.260 au  N             1.00      1 P:y             2
                        (      -7.062 eV)
    36      36       --         0.281 au  N             1.00      2 P:y             2
                        (       7.649 eV)
    37      37       --         3.275 au  N             1.00      3 P:y             2
                        (      89.105 eV)
    38      38      1.000      -0.260 au  N             1.00      1 P:z             2
                        (      -7.062 eV)
    39      39       --         0.281 au  N             1.00      2 P:z             2
                        (       7.649 eV)
    40      40       --         3.275 au  N             1.00      3 P:z             2
                        (      89.105 eV)
    41      41       --         1.250 au  N             1.00      1 D:z2            2
                        (      34.005 eV)
    42      42       --         1.250 au  N             1.00      1 D:x2-y2         2
                        (      34.005 eV)
    43      43       --         1.250 au  N             1.00      1 D:xy            2
                        (      34.005 eV)
    44      44       --         1.250 au  N             1.00      1 D:xz            2
                        (      34.005 eV)
    45      45       --         1.250 au  N             1.00      1 D:yz            2
                        (      34.005 eV)
    46      46       --         4.013 au  N             1.00      1 F:z3            2
                        (     109.190 eV)
    47      47       --         4.013 au  N             1.00      1 F:z             2
                        (     109.190 eV)
    48      48       --         4.013 au  N             1.00      1 F:xyz           2
                        (     109.190 eV)
    49      49       --         4.013 au  N             1.00      1 F:z2x           2
                        (     109.190 eV)
    50      50       --         4.013 au  N             1.00      1 F:z2y           2
                        (     109.190 eV)
    51      51       --         4.013 au  N             1.00      1 F:x             2
                        (     109.190 eV)
    52      52       --         4.013 au  N             1.00      1 F:y             2
                        (     109.190 eV)
    53      53      2.000     -10.066 au  C             1.00      1 S               3
                        (    -273.921 eV)
    54      54      2.000      -0.501 au  C             1.00      2 S               3
                        (     -13.620 eV)
    55      55       --         0.373 au  C             1.00      3 S               3
                        (      10.158 eV)
    56      56       --         5.405 au  C             1.00      4 S               3
                        (     147.073 eV)
    57      57       --        49.848 au  C             1.00      5 S               3
                        (    1356.422 eV)
    58      58      0.667      -0.193 au  C             1.00      1 P:x             3
                        (      -5.239 eV)
    59      59       --         0.169 au  C             1.00      2 P:x             3
                        (       4.589 eV)
    60      60       --         2.013 au  C             1.00      3 P:x             3
                        (      54.789 eV)
    61      61      0.667      -0.193 au  C             1.00      1 P:y             3
                        (      -5.239 eV)
    62      62       --         0.169 au  C             1.00      2 P:y             3
                        (       4.589 eV)
    63      63       --         2.013 au  C             1.00      3 P:y             3
                        (      54.789 eV)
    64      64      0.667      -0.193 au  C             1.00      1 P:z             3
                        (      -5.239 eV)
    65      65       --         0.169 au  C             1.00      2 P:z             3
                        (       4.589 eV)
    66      66       --         2.013 au  C             1.00      3 P:z             3
                        (      54.789 eV)
    67      67       --         1.243 au  C             1.00      1 D:z2            3
                        (      33.824 eV)
    68      68       --         1.243 au  C             1.00      1 D:x2-y2         3
                        (      33.824 eV)
    69      69       --         1.243 au  C             1.00      1 D:xy            3
                        (      33.824 eV)
    70      70       --         1.243 au  C             1.00      1 D:xz            3
                        (      33.824 eV)
    71      71       --         1.243 au  C             1.00      1 D:yz            3
                        (      33.824 eV)
    72      72       --         4.016 au  C             1.00      1 F:z3            3
                        (     109.271 eV)
    73      73       --         4.016 au  C             1.00      1 F:z             3
                        (     109.271 eV)
    74      74       --         4.016 au  C             1.00      1 F:xyz           3
                        (     109.271 eV)
    75      75       --         4.016 au  C             1.00      1 F:z2x           3
                        (     109.271 eV)
    76      76       --         4.016 au  C             1.00      1 F:z2y           3
                        (     109.271 eV)
    77      77       --         4.016 au  C             1.00      1 F:x             3
                        (     109.271 eV)
    78      78       --         4.016 au  C             1.00      1 F:y             3
                        (     109.271 eV)
    79      79      2.000     -10.066 au  C             1.00      1 S               4
                        (    -273.921 eV)
    80      80      2.000      -0.501 au  C             1.00      2 S               4
                        (     -13.620 eV)
    81      81       --         0.373 au  C             1.00      3 S               4
                        (      10.158 eV)
    82      82       --         5.405 au  C             1.00      4 S               4
                        (     147.073 eV)
    83      83       --        49.848 au  C             1.00      5 S               4
                        (    1356.422 eV)
    84      84      0.667      -0.193 au  C             1.00      1 P:x             4
                        (      -5.239 eV)
    85      85       --         0.169 au  C             1.00      2 P:x             4
                        (       4.589 eV)
    86      86       --         2.013 au  C             1.00      3 P:x             4
                        (      54.789 eV)
    87      87      0.667      -0.193 au  C             1.00      1 P:y             4
                        (      -5.239 eV)
    88      88       --         0.169 au  C             1.00      2 P:y             4
                        (       4.589 eV)
    89      89       --         2.013 au  C             1.00      3 P:y             4
                        (      54.789 eV)
    90      90      0.667      -0.193 au  C             1.00      1 P:z             4
                        (      -5.239 eV)
    91      91       --         0.169 au  C             1.00      2 P:z             4
                        (       4.589 eV)
    92      92       --         2.013 au  C             1.00      3 P:z             4
                        (      54.789 eV)
    93      93       --         1.243 au  C             1.00      1 D:z2            4
                        (      33.824 eV)
    94      94       --         1.243 au  C             1.00      1 D:x2-y2         4
                        (      33.824 eV)
    95      95       --         1.243 au  C             1.00      1 D:xy            4
                        (      33.824 eV)
    96      96       --         1.243 au  C             1.00      1 D:xz            4
                        (      33.824 eV)
    97      97       --         1.243 au  C             1.00      1 D:yz            4
                        (      33.824 eV)
    98      98       --         4.016 au  C             1.00      1 F:z3            4
                        (     109.271 eV)
    99      99       --         4.016 au  C             1.00      1 F:z             4
                        (     109.271 eV)
   100     100       --         4.016 au  C             1.00      1 F:xyz           4
                        (     109.271 eV)
   101     101       --         4.016 au  C             1.00      1 F:z2x           4
                        (     109.271 eV)
   102     102       --         4.016 au  C             1.00      1 F:z2y           4
                        (     109.271 eV)
   103     103       --         4.016 au  C             1.00      1 F:x             4
                        (     109.271 eV)
   104     104       --         4.016 au  C             1.00      1 F:y             4
                        (     109.271 eV)
   105     105      2.000     -10.066 au  C             1.00      1 S               5
                        (    -273.921 eV)
   106     106      2.000      -0.501 au  C             1.00      2 S               5
                        (     -13.620 eV)
   107     107       --         0.373 au  C             1.00      3 S               5
                        (      10.158 eV)
   108     108       --         5.405 au  C             1.00      4 S               5
                        (     147.073 eV)
   109     109       --        49.848 au  C             1.00      5 S               5
                        (    1356.422 eV)
   110     110      0.667      -0.193 au  C             1.00      1 P:x             5
                        (      -5.239 eV)
   111     111       --         0.169 au  C             1.00      2 P:x             5
                        (       4.589 eV)
   112     112       --         2.013 au  C             1.00      3 P:x             5
                        (      54.789 eV)
   113     113      0.667      -0.193 au  C             1.00      1 P:y             5
                        (      -5.239 eV)
   114     114       --         0.169 au  C             1.00      2 P:y             5
                        (       4.589 eV)
   115     115       --         2.013 au  C             1.00      3 P:y             5
                        (      54.789 eV)
   116     116      0.667      -0.193 au  C             1.00      1 P:z             5
                        (      -5.239 eV)
   117     117       --         0.169 au  C             1.00      2 P:z             5
                        (       4.589 eV)
   118     118       --         2.013 au  C             1.00      3 P:z             5
                        (      54.789 eV)
   119     119       --         1.243 au  C             1.00      1 D:z2            5
                        (      33.824 eV)
   120     120       --         1.243 au  C             1.00      1 D:x2-y2         5
                        (      33.824 eV)
   121     121       --         1.243 au  C             1.00      1 D:xy            5
                        (      33.824 eV)
   122     122       --         1.243 au  C             1.00      1 D:xz            5
                        (      33.824 eV)
   123     123       --         1.243 au  C             1.00      1 D:yz            5
                        (      33.824 eV)
   124     124       --         4.016 au  C             1.00      1 F:z3            5
                        (     109.271 eV)
   125     125       --         4.016 au  C             1.00      1 F:z             5
                        (     109.271 eV)
   126     126       --         4.016 au  C             1.00      1 F:xyz           5
                        (     109.271 eV)
   127     127       --         4.016 au  C             1.00      1 F:z2x           5
                        (     109.271 eV)
   128     128       --         4.016 au  C             1.00      1 F:z2y           5
                        (     109.271 eV)
   129     129       --         4.016 au  C             1.00      1 F:x             5
                        (     109.271 eV)
   130     130       --         4.016 au  C             1.00      1 F:y             5
                        (     109.271 eV)
   131     131      2.000     -10.066 au  C             1.00      1 S               6
                        (    -273.921 eV)
   132     132      2.000      -0.501 au  C             1.00      2 S               6
                        (     -13.620 eV)
   133     133       --         0.373 au  C             1.00      3 S               6
                        (      10.158 eV)
   134     134       --         5.405 au  C             1.00      4 S               6
                        (     147.073 eV)
   135     135       --        49.848 au  C             1.00      5 S               6
                        (    1356.422 eV)
   136     136      0.667      -0.193 au  C             1.00      1 P:x             6
                        (      -5.239 eV)
   137     137       --         0.169 au  C             1.00      2 P:x             6
                        (       4.589 eV)
   138     138       --         2.013 au  C             1.00      3 P:x             6
                        (      54.789 eV)
   139     139      0.667      -0.193 au  C             1.00      1 P:y             6
                        (      -5.239 eV)
   140     140       --         0.169 au  C             1.00      2 P:y             6
                        (       4.589 eV)
   141     141       --         2.013 au  C             1.00      3 P:y             6
                        (      54.789 eV)
   142     142      0.667      -0.193 au  C             1.00      1 P:z             6
                        (      -5.239 eV)
   143     143       --         0.169 au  C             1.00      2 P:z             6
                        (       4.589 eV)
   144     144       --         2.013 au  C             1.00      3 P:z             6
                        (      54.789 eV)
   145     145       --         1.243 au  C             1.00      1 D:z2            6
                        (      33.824 eV)
   146     146       --         1.243 au  C             1.00      1 D:x2-y2         6
                        (      33.824 eV)
   147     147       --         1.243 au  C             1.00      1 D:xy            6
                        (      33.824 eV)
   148     148       --         1.243 au  C             1.00      1 D:xz            6
                        (      33.824 eV)
   149     149       --         1.243 au  C             1.00      1 D:yz            6
                        (      33.824 eV)
   150     150       --         4.016 au  C             1.00      1 F:z3            6
                        (     109.271 eV)
   151     151       --         4.016 au  C             1.00      1 F:z             6
                        (     109.271 eV)
   152     152       --         4.016 au  C             1.00      1 F:xyz           6
                        (     109.271 eV)
   153     153       --         4.016 au  C             1.00      1 F:z2x           6
                        (     109.271 eV)
   154     154       --         4.016 au  C             1.00      1 F:z2y           6
                        (     109.271 eV)
   155     155       --         4.016 au  C             1.00      1 F:x             6
                        (     109.271 eV)
   156     156       --         4.016 au  C             1.00      1 F:y             6
                        (     109.271 eV)
   157     157      2.000     -10.066 au  C             1.00      1 S               7
                        (    -273.921 eV)
   158     158      2.000      -0.501 au  C             1.00      2 S               7
                        (     -13.620 eV)
   159     159       --         0.373 au  C             1.00      3 S               7
                        (      10.158 eV)
   160     160       --         5.405 au  C             1.00      4 S               7
                        (     147.073 eV)
   161     161       --        49.848 au  C             1.00      5 S               7
                        (    1356.422 eV)
   162     162      0.667      -0.193 au  C             1.00      1 P:x             7
                        (      -5.239 eV)
   163     163       --         0.169 au  C             1.00      2 P:x             7
                        (       4.589 eV)
   164     164       --         2.013 au  C             1.00      3 P:x             7
                        (      54.789 eV)
   165     165      0.667      -0.193 au  C             1.00      1 P:y             7
                        (      -5.239 eV)
   166     166       --         0.169 au  C             1.00      2 P:y             7
                        (       4.589 eV)
   167     167       --         2.013 au  C             1.00      3 P:y             7
                        (      54.789 eV)
   168     168      0.667      -0.193 au  C             1.00      1 P:z             7
                        (      -5.239 eV)
   169     169       --         0.169 au  C             1.00      2 P:z             7
                        (       4.589 eV)
   170     170       --         2.013 au  C             1.00      3 P:z             7
                        (      54.789 eV)
   171     171       --         1.243 au  C             1.00      1 D:z2            7
                        (      33.824 eV)
   172     172       --         1.243 au  C             1.00      1 D:x2-y2         7
                        (      33.824 eV)
   173     173       --         1.243 au  C             1.00      1 D:xy            7
                        (      33.824 eV)
   174     174       --         1.243 au  C             1.00      1 D:xz            7
                        (      33.824 eV)
   175     175       --         1.243 au  C             1.00      1 D:yz            7
                        (      33.824 eV)
   176     176       --         4.016 au  C             1.00      1 F:z3            7
                        (     109.271 eV)
   177     177       --         4.016 au  C             1.00      1 F:z             7
                        (     109.271 eV)
   178     178       --         4.016 au  C             1.00      1 F:xyz           7
                        (     109.271 eV)
   179     179       --         4.016 au  C             1.00      1 F:z2x           7
                        (     109.271 eV)
   180     180       --         4.016 au  C             1.00      1 F:z2y           7
                        (     109.271 eV)
   181     181       --         4.016 au  C             1.00      1 F:x             7
                        (     109.271 eV)
   182     182       --         4.016 au  C             1.00      1 F:y             7
                        (     109.271 eV)
   183     183      2.000     -10.066 au  C             1.00      1 S               8
                        (    -273.921 eV)
   184     184      2.000      -0.501 au  C             1.00      2 S               8
                        (     -13.620 eV)
   185     185       --         0.373 au  C             1.00      3 S               8
                        (      10.158 eV)
   186     186       --         5.405 au  C             1.00      4 S               8
                        (     147.073 eV)
   187     187       --        49.848 au  C             1.00      5 S               8
                        (    1356.422 eV)
   188     188      0.667      -0.193 au  C             1.00      1 P:x             8
                        (      -5.239 eV)
   189     189       --         0.169 au  C             1.00      2 P:x             8
                        (       4.589 eV)
   190     190       --         2.013 au  C             1.00      3 P:x             8
                        (      54.789 eV)
   191     191      0.667      -0.193 au  C             1.00      1 P:y             8
                        (      -5.239 eV)
   192     192       --         0.169 au  C             1.00      2 P:y             8
                        (       4.589 eV)
   193     193       --         2.013 au  C             1.00      3 P:y             8
                        (      54.789 eV)
   194     194      0.667      -0.193 au  C             1.00      1 P:z             8
                        (      -5.239 eV)
   195     195       --         0.169 au  C             1.00      2 P:z             8
                        (       4.589 eV)
   196     196       --         2.013 au  C             1.00      3 P:z             8
                        (      54.789 eV)
   197     197       --         1.243 au  C             1.00      1 D:z2            8
                        (      33.824 eV)
   198     198       --         1.243 au  C             1.00      1 D:x2-y2         8
                        (      33.824 eV)
   199     199       --         1.243 au  C             1.00      1 D:xy            8
                        (      33.824 eV)
   200     200       --         1.243 au  C             1.00      1 D:xz            8
                        (      33.824 eV)
   201     201       --         1.243 au  C             1.00      1 D:yz            8
                        (      33.824 eV)
   202     202       --         4.016 au  C             1.00      1 F:z3            8
                        (     109.271 eV)
   203     203       --         4.016 au  C             1.00      1 F:z             8
                        (     109.271 eV)
   204     204       --         4.016 au  C             1.00      1 F:xyz           8
                        (     109.271 eV)
   205     205       --         4.016 au  C             1.00      1 F:z2x           8
                        (     109.271 eV)
   206     206       --         4.016 au  C             1.00      1 F:z2y           8
                        (     109.271 eV)
   207     207       --         4.016 au  C             1.00      1 F:x             8
                        (     109.271 eV)
   208     208       --         4.016 au  C             1.00      1 F:y             8
                        (     109.271 eV)
   209     209      2.000     -10.066 au  C             1.00      1 S               9
                        (    -273.921 eV)
   210     210      2.000      -0.501 au  C             1.00      2 S               9
                        (     -13.620 eV)
   211     211       --         0.373 au  C             1.00      3 S               9
                        (      10.158 eV)
   212     212       --         5.405 au  C             1.00      4 S               9
                        (     147.073 eV)
   213     213       --        49.848 au  C             1.00      5 S               9
                        (    1356.422 eV)
   214     214      0.667      -0.193 au  C             1.00      1 P:x             9
                        (      -5.239 eV)
   215     215       --         0.169 au  C             1.00      2 P:x             9
                        (       4.589 eV)
   216     216       --         2.013 au  C             1.00      3 P:x             9
                        (      54.789 eV)
   217     217      0.667      -0.193 au  C             1.00      1 P:y             9
                        (      -5.239 eV)
   218     218       --         0.169 au  C             1.00      2 P:y             9
                        (       4.589 eV)
   219     219       --         2.013 au  C             1.00      3 P:y             9
                        (      54.789 eV)
   220     220      0.667      -0.193 au  C             1.00      1 P:z             9
                        (      -5.239 eV)
   221     221       --         0.169 au  C             1.00      2 P:z             9
                        (       4.589 eV)
   222     222       --         2.013 au  C             1.00      3 P:z             9
                        (      54.789 eV)
   223     223       --         1.243 au  C             1.00      1 D:z2            9
                        (      33.824 eV)
   224     224       --         1.243 au  C             1.00      1 D:x2-y2         9
                        (      33.824 eV)
   225     225       --         1.243 au  C             1.00      1 D:xy            9
                        (      33.824 eV)
   226     226       --         1.243 au  C             1.00      1 D:xz            9
                        (      33.824 eV)
   227     227       --         1.243 au  C             1.00      1 D:yz            9
                        (      33.824 eV)
   228     228       --         4.016 au  C             1.00      1 F:z3            9
                        (     109.271 eV)
   229     229       --         4.016 au  C             1.00      1 F:z             9
                        (     109.271 eV)
   230     230       --         4.016 au  C             1.00      1 F:xyz           9
                        (     109.271 eV)
   231     231       --         4.016 au  C             1.00      1 F:z2x           9
                        (     109.271 eV)
   232     232       --         4.016 au  C             1.00      1 F:z2y           9
                        (     109.271 eV)
[...]
                                   -3.84%     2 P:z             4.589  0.00     8 C
                                    3.41%     1 S              -6.532  1.00    14 H
                                   -3.20%     2 P:x             4.589  0.00     5 C
                                    3.20%     2 S               2.394  0.00    16 H
                                    3.20%     1 S              -6.532  1.00    16 H
                                   -2.79%     2 P:z             4.589  0.00     7 C
                                   -2.76%     3 S              10.158  0.00     8 C
                                    2.65%     2 S             -13.620  2.00     8 C
                                    2.39%     1 P:x            -5.239  0.67    10 C
                                   -2.32%     1 P:x            -5.239  0.67     5 C
                                   -2.25%     2 P:x             4.589  0.00    10 C
                                    2.23%     2 S               2.394  0.00    14 H
                                   -2.03%     3 S              10.158  0.00    10 C
                                    1.96%     3 S              40.869  0.00    15 H
                                    1.91%     2 P:x             4.589  0.00     7 C
                                   -1.67%     2 P:z             4.589  0.00     9 C
                                   -1.54%     1 P:x            -5.239  0.67     8 C
                                   -1.47%     1 P:x            -5.239  0.67     4 C
                                   -1.30%     2 P:y             4.589  0.00     6 C
                                   -1.08%     2 P:x             7.649  0.00     2 N
       1.037  0.00    47 A         19.01%     2 S               2.394  0.00    13 H
                                   15.00%     1 S              -6.532  1.00    17 H
                                   14.81%     1 S              -6.532  1.00    13 H
                                   12.61%     2 P:z             4.589  0.00     4 C
                                  -12.43%     2 P:z             4.589  0.00     6 C
                                   12.04%     1 S              -6.532  1.00    14 H
                                   10.99%     2 S               2.394  0.00    14 H
                                   10.88%     2 S               2.394  0.00    17 H
                                   10.68%     1 S              -6.532  1.00    16 H
                                    8.08%     2 S               2.394  0.00    16 H
                                   -6.42%     2 P:z             4.589  0.00     9 C
                                   -6.25%     2 P:x             4.589  0.00     7 C
                                    6.09%     1 P:z            -5.239  0.67     4 C
                                   -5.72%     2 P:x             4.589  0.00    10 C
                                    4.17%     1 P:z            -9.020  1.33    11 O
                                   -3.50%     2 P:z             4.589  0.00     5 C
                                    3.25%     2 P:x             4.589  0.00     6 C
                                   -3.00%     3 S              14.073  0.00     1 N
                                    2.36%     2 P:x             4.589  0.00     5 C
                                    2.26%     2 P:y             4.589  0.00     4 C
                                   -2.21%     2 P:y             4.589  0.00     6 C
                                    2.10%     2 S             -13.620  2.00    10 C
                                   -2.04%     2 P:z             4.589  0.00    10 C
                                   -1.95%     1 P:x            -5.239  0.67     5 C
                                   -1.85%     3 S              14.073  0.00     2 N
                                    1.84%     1 P:x            -5.239  0.67     6 C
                                    1.80%     2 S             -13.620  2.00     3 C
                                    1.69%     2 S             -18.450  2.00     2 N
                                   -1.60%     3 S              10.158  0.00     7 C
                                    1.51%     2 P:z             7.649  0.00     2 N
                                   -1.50%     3 S              10.158  0.00    10 C
                                    1.48%     1 P:x            -7.062  1.00     2 N
                                    1.46%     1 P:z            -7.062  1.00     2 N
                                    1.44%     2 S             -13.620  2.00     9 C
                                   -1.40%     2 P:x             4.589  0.00     3 C
                                    1.39%     3 S              40.869  0.00    17 H
                                   -1.27%     1 P:z            -5.239  0.67     5 C
                                    1.27%     2 S             -13.620  2.00     7 C
                                    1.26%     1 P:z            -5.239  0.67     7 C
                                    1.21%     1 P:x            -9.020  1.33    11 O
                                   -1.17%     2 P:z             4.589  0.00     7 C
                                   -1.16%     1 P:x            -5.239  0.67     7 C
                                   -1.14%     2 P:y             4.589  0.00     9 C
                                   -1.13%     1 P:z            -5.239  0.67     3 C
                                    1.07%     3 S              40.869  0.00    14 H
                                    1.06%     1 P:y            -5.239  0.67     4 C
                                    1.03%     3 S              40.869  0.00    16 H
                                   -1.03%     3 S              21.524  0.00    11 O
                                   -1.02%     3 S              10.158  0.00     9 C

 Energy gradients wrt nuclear displacements
 ==========================================

     Atom      Cartesian (a.u./angstrom)
                 X         Y         Z
 ----------------------------------------
     1 N     0.000015 -0.000094 -0.000111
     2 C     0.000088 -0.000003  0.000067
     3 N     0.000066 -0.000034 -0.000031
     4 O    -0.000018  0.000003 -0.000037
     5 C     0.000037  0.000049  0.000016
     6 C    -0.000006  0.000010 -0.000043
     7 C    -0.000000 -0.000012  0.000022
     8 C    -0.000009 -0.000045  0.000052
     9 C    -0.000020 -0.000002  0.000025
    10 C    -0.000036  0.000041  0.000004
    11 C    -0.000026  0.000030  0.000002
    12 H    -0.000012  0.000063 -0.000087
    13 H     0.000023 -0.000052  0.000037
    14 H     0.000006 -0.000069  0.000078
    15 H    -0.000030 -0.000022  0.000065
    16 H    -0.000050  0.000057 -0.000008
    17 H    -0.000028  0.000080 -0.000051
 ----------------------------------------



 =======================================================================
 Electrostatic potential at the Nuclei due to electrons and other nuclei
 =======================================================================
  
         Atom                  Potential
         ----                  ---------
     1)   N                  18.45953039
     2)   C                  14.76406367
     3)   N                  18.37003276
     4)   O                  22.26466991
     5)   C                  14.67204512
     6)   C                  14.72973228
     7)   C                  14.75318705
     8)   C                  14.75437003
     9)   C                  14.74761546
    10)   C                  14.75101206
    11)   C                  14.74250747
    12)   H                   1.04023534
    13)   H                   1.08472803
    14)   H                   1.07848685
    15)   H                   1.07321432
    16)   H                   1.07295281
    17)   H                   1.06482535
 Mulliken charges used for AMS results%charges...


    =====================
     CALCULATION RESULTS
    =====================

Energy (hartree)            -3.98620469

Gradients (hartree/bohr)
  Index   Atom            d/dx            d/dy            d/dz
      1      N    0.0000078925   -0.0000496581   -0.0000587084
      2      C    0.0000467736   -0.0000014017    0.0000356698
      3      N    0.0000350868   -0.0000180566   -0.0000163233
      4      O   -0.0000093107    0.0000014209   -0.0000198070
      5      C    0.0000193569    0.0000260280    0.0000082736
      6      C   -0.0000030656    0.0000052259   -0.0000229116
      7      C   -0.0000001599   -0.0000064270    0.0000115907
      8      C   -0.0000045817   -0.0000239213    0.0000273950
      9      C   -0.0000103889   -0.0000009136    0.0000134700
     10      C   -0.0000189462    0.0000219193    0.0000023465
     11      C   -0.0000139314    0.0000161375    0.0000011750
     12      H   -0.0000066071    0.0000334112   -0.0000459470
     13      H    0.0000122740   -0.0000276270    0.0000196964
     14      H    0.0000032215   -0.0000365745    0.0000413811
     15      H   -0.0000158496   -0.0000118949    0.0000343265
     16      H   -0.0000267158    0.0000300416   -0.0000044534
     17      H   -0.0000150482    0.0000422903   -0.0000271739


--------------
Atomic charges
--------------
  Index   Atom    Charge
      1      N   -0.3135
      2      C    0.2162
      3      N   -0.1727
      4      O   -0.2958
      5      C    0.5795
      6      C   -0.0585
      7      C    0.2415
      8      C    0.2313
      9      C    0.2375
     10      C    0.2173
     11      C    0.2645
     12      H   -0.1922
     13      H   -0.1396
     14      H   -0.2082
     15      H   -0.1976
     16      H   -0.2047
     17      H   -0.2051


Dipole moment vector    (Debye):    -3.27700983   -3.08096816   -7.46607158
              magnitude (Debye):     8.71627117


-----------------------
Molecular orbitals info
-----------------------
n orbitals:              352
n spin:                    1

Note: only printing virtual orbitals with
      energy smaller than HOMO + 100. eV

HOMO (eV):              -5.5046
LUMO (eV):              -3.9818
HOMO-LUMO gap (eV):      1.5228

   Index   Energy (eV)    Occupation
     220       93.8351         0.000       
     219       93.2619         0.000       
     218       92.0538         0.000       
     217       91.9582         0.000       
     216       91.6457         0.000       
     215       91.2851         0.000       
     214       90.1819         0.000       
     213       89.2153         0.000       
     212       87.9481         0.000       
     211       87.5392         0.000       
     210       86.6387         0.000       
     209       86.3180         0.000       
     208       85.8478         0.000       
     207       85.6411         0.000       
     206       85.1038         0.000       
     205       84.5879         0.000       
     204       83.9610         0.000       
     203       82.2323         0.000       
     202       81.3333         0.000       
     201       80.6761         0.000       
     200       79.9086         0.000       
     199       79.4671         0.000       
     198       79.3095         0.000       
     197       79.1465         0.000       
     196       77.2734         0.000       
     195       76.8478         0.000       
     194       76.5805         0.000       
     193       74.8175         0.000       
     192       74.3835         0.000       
     191       72.9698         0.000       
     190       72.6693         0.000       
     189       72.3806         0.000       
     188       72.3098         0.000       
     187       70.2930         0.000       
     186       69.7003         0.000       
     185       69.2408         0.000       
     184       68.6295         0.000       
     183       68.5576         0.000       
     182       67.1822         0.000       
     181       66.5026         0.000       
     180       65.9715         0.000       
     179       65.0647         0.000       
     178       64.7109         0.000       
     177       64.2350         0.000       
     176       63.0993         0.000       
     175       62.6719         0.000       
     174       62.4971         0.000       
     173       61.0560         0.000       
     172       60.7057         0.000       
     171       60.6029         0.000       
     170       60.3099         0.000       
     169       59.9005         0.000       
     168       59.8300         0.000       
     167       58.0266         0.000       
     166       56.7821         0.000       
     165       55.2756         0.000       
     164       54.9481         0.000       
     163       54.7212         0.000       
     162       53.6113         0.000       
     161       53.1336         0.000       
     160       52.3711         0.000       
     159       52.0613         0.000       
     158       51.1470         0.000       
     157       50.3475         0.000       
     156       50.2740         0.000       
     155       49.5322         0.000       
     154       49.3328         0.000       
     153       48.7438         0.000       
     152       48.5392         0.000       
     151       48.0384         0.000       
     150       47.0737         0.000       
     149       46.5054         0.000       
     148       46.2434         0.000       
     147       44.9897         0.000       
     146       44.7495         0.000       
     145       43.7913         0.000       
     144       42.6299         0.000       
     143       42.5863         0.000       
     142       41.7079         0.000       
     141       40.9007         0.000       
     140       39.7099         0.000       
     139       39.6099         0.000       
     138       38.7749         0.000       
     137       38.1640         0.000       
     136       37.6088         0.000       
     135       37.1889         0.000       
     134       36.4958         0.000       
     133       35.7676         0.000       
     132       35.2136         0.000       
     131       35.1091         0.000       
     130       34.6733         0.000       
     129       34.1242         0.000       
     128       33.9649         0.000       
     127       33.7803         0.000       
     126       32.7711         0.000       
     125       32.5816         0.000       
     124       31.3383         0.000       
     123       30.8657         0.000       
     122       30.4994         0.000       
     121       30.2598         0.000       
     120       29.0381         0.000       
     119       28.9965         0.000       
     118       28.4784         0.000       
     117       27.7082         0.000       
     116       27.2746         0.000       
     115       27.2307         0.000       
     114       26.9585         0.000       
     113       26.5822         0.000       
     112       25.8429         0.000       
     111       25.2720         0.000       
     110       24.7573         0.000       
     109       24.0792         0.000       
     108       23.8219         0.000       
     107       23.7923         0.000       
     106       22.9138         0.000       
     105       22.5452         0.000       
     104       21.9413         0.000       
     103       21.3983         0.000       
     102       20.5164         0.000       
     101       19.7500         0.000       
     100       19.6626         0.000       
      99       19.4283         0.000       
      98       18.6775         0.000       
      97       18.5764         0.000       
      96       18.3667         0.000       
      95       17.5708         0.000       
      94       16.9949         0.000       
      93       16.5879         0.000       
      92       16.2117         0.000       
      91       15.6071         0.000       
      90       15.4055         0.000       
      89       15.0093         0.000       
      88       13.7710         0.000       
      87       13.3528         0.000       
      86       13.0202         0.000       
      85       12.7248         0.000       
      84       12.3685         0.000       
      83       12.1876         0.000       
      82       11.5288         0.000       
      81       11.0734         0.000       
      80       10.6557         0.000       
      79       10.1691         0.000       
      78        9.6750         0.000       
      77        9.3483         0.000       
      76        9.2741         0.000       
      75        8.5093         0.000       
      74        8.3948         0.000       
      73        8.0858         0.000       
      72        8.0314         0.000       
      71        7.9566         0.000       
      70        7.6096         0.000       
      69        7.1842         0.000       
      68        6.9004         0.000       
      67        6.8920         0.000       
      66        6.5798         0.000       
      65        6.0102         0.000       
      64        5.6552         0.000       
      63        5.4966         0.000       
      62        5.0277         0.000       
      61        4.6917         0.000       
      60        4.6777         0.000       
      59        4.5181         0.000       
      58        4.1711         0.000       
      57        4.1557         0.000       
      56        4.1006         0.000       
      55        3.6992         0.000       
      54        3.1206         0.000       
      53        2.9210         0.000       
      52        2.8982         0.000       
      51        2.1794         0.000       
      50        1.7849         0.000       
      49        1.7212         0.000       
      48        1.6391         0.000       
      47        1.0370         0.000       
      46        0.7094         0.000       
      45        0.2023         0.000       
      44       -0.2734         0.000       
      43       -0.7118         0.000       
      42       -1.2213         0.000       
      41       -1.3420         0.000       
      40       -2.0787         0.000       
      39       -3.9818         0.000 < LUMO
      38       -5.5046         2.000 < HOMO
      37       -6.9919         2.000       
      36       -7.2248         2.000       
      35       -7.6201         2.000       
      34       -8.0359         2.000       
      33       -8.5520         2.000       
      32       -8.7350         2.000       
      31       -9.2125         2.000       
      30       -9.7136         2.000       
      29      -10.0128         2.000       
      28      -10.7505         2.000       
      27      -11.1656         2.000       
      26      -11.6040         2.000       
      25      -11.9688         2.000       
      24      -12.0803         2.000       
      23      -12.8866         2.000       
      22      -13.3125         2.000       
      21      -14.3501         2.000       
      20      -15.7191         2.000       
      19      -15.9137         2.000       
      18      -17.2564         2.000       
      17      -19.3447         2.000       
      16      -19.9158         2.000       
      15      -21.1856         2.000       
      14      -22.1751         2.000       
      13      -22.7998         2.000       
      12      -29.0762         2.000       
      11     -270.9768         2.000       
      10     -270.9798         2.000       
       9     -271.0319         2.000       
       8     -271.0668         2.000       
       7     -271.1761         2.000       
       6     -271.3097         2.000       
       5     -271.6069         2.000       
       4     -273.2185         2.000       
       3     -380.9330         2.000       
       2     -383.2098         2.000       
       1     -515.2077         2.000       

AMS application finished. Exiting.
NORMAL TERMINATION
     Total cpu time:     709.24
  Total system time:       4.77
 Total elapsed time:     717.94
NORMAL TERMINATION
