srun: Step created for StepId=662413.9

 *******************************************************************************
 *                                                                             *
 *  --------------------------------                                           *
 *   Amsterdam Modeling Suite (AMS)              2026.103                      *
 *  --------------------------------                                           *
 *                                               r260501 2026-05-01 873454b5   *
 *                                                                             *
 *                                                                             *
 *                              =================                              *
 *                              |               |                              *
 *                              |     A M S     |                              *
 *                              |               |                              *
 *                              =================                              *
 *                                                                             *
 *                                                                             *
 *   Online information and documentation:  https://www.scm.com/support/       *
 *   E-mail:  support@scm.com   info@scm.com                                   *
 *                                                                             *
 *   Scientific publications using AMS results must be properly referenced     *
 *   See the User Manuals (or the web site) for recommended citations          *
 *   The terms and conditions of the End User License Agreement apply to       *
 *   the use of AMS, https://www.scm.com/license-terms/                        *
 *                                                                             *
 **********************  x86_64_linux_intel / intelmpi  ************************
 
 Licensed to: Jong-June Jeon / University of Seoul 2026-06-02 13:44:15
 SCM User ID: u30731
  
 AMS 2026.103  RunTime: Jun03-2026 10:47:56  ShM Nodes: 1  Procs: 1

 AMS jobname: c5_fragB_opt
 AMS jobid  : 1953236129

 Start   directory: /gpfs/home1/yeseo1ee/projects/eda-asm-prediction/ADF_800/adf_outputs/batch_002/qmrxn20_e2_A_A_A_E_B_B/
 Results directory: /gpfs/home1/yeseo1ee/projects/eda-asm-prediction/ADF_800/adf_outputs/batch_002/qmrxn20_e2_A_A_A_E_B_B/c5_fragB_opt.results/
 Scratch directory: /tmp/amstmp_c5_fragB_opt_kid0.1953236129/

 RNG seed: 1543338876 765745050 -2033017209 -1716102831 -1814850877 -940492372 -387053509 -1300790974



                      ************************************************************************
                      *  ADF 2026.103  RunTime: Jun03-2026 10:47:56  ShM Nodes: 1  Procs: 1  *
                      ************************************************************************
  

       ***************************
       *  GEOMETRY OPTIMIZATION  *
       ***************************

Optimization Method                    Quasi Newton
Optimization Coordinates               Delocalized Coordinates
Optimize lattice                       F
 
 ------------------------------------------------------
 Convergence criteria (Hartree,Angstrom)
 ------------------------------------------------------
 Maximum gradient               0.000100000000
 Maximum rms gradient           0.000066666667
 Maximum step allowed           0.010000000000
 Maximum rms step allowed       0.006666666667
 Maximum energy change allowe   0.000090000000
 Maximum stress energy allowe   0.000500000000
 
Initial model Hessian                  Automatic Hessian
 
------------------------------------
Quasi-Newton Optimizer Parameters
------------------------------------
Hessian Update Method                  BFGS
Maximum number of steps                  200
First GDIIS cycle                          0
Maximum GDIIS vectors                      0
Trust radius (bohr)                        0.200000
Trust radius varies                        T
Constraints converged at all steps         T
Use projector                              T
 
 Rigid motions settings for: old optimizer
 Atomic rotations (x,y,z):     T T T
 Atomic translations (x,y,z):  T T T
 Tolerance:                  1.000000000000000E-006

--------
Geometry
--------
Formula: C2H5ClN
Atoms
  Index Symbol   x (angstrom)   y (angstrom)   z (angstrom)
      1      C    -0.22616535     0.00975463    -0.24964970
      2      C    -0.08497290     0.11671505     1.17702129
      3     Cl     1.46497575    -0.30753552    -1.29115409
      4      H    -0.78576692    -0.86962291    -0.56033042
      5      H    -0.58375296     0.91513866    -0.73797754
      6      N     0.41195022    -1.05989159     1.88610803
      7      H     1.11787371    -1.52836400     1.32500438
      8      H    -0.37516807    -1.69006498     1.99315194
      9      H     0.41206770     1.03496993     1.50307989

Total System Charge              0.00000


----------------
ADF Engine Input
----------------
 
   Basis
     Type TZ2P
     Core None
   End
   XC
     GGA BLYP
     Dispersion GRIMME3 BJDAMP
   End
   Symmetry NOSYM
   NumericalQuality Normal
   Unrestricted No
   SCF
     Iterations 200
     Converge 1.0e-6
   End
   Save TAPE21
 

 Title: *** (NO TITLE) ***

 Using automatic Hessian for delocalized coordinates.
 *** GO1_GOStep1 ***

 Integrated fractional orbital density (NFOD):         1.000

 Energy gradients wrt nuclear displacements
 ==========================================

     Atom      Cartesian (a.u./angstrom)
                 X         Y         Z
 ----------------------------------------
     1 C     0.041480 -0.005816  0.019408
     2 C    -0.106999  0.026286  0.020866
     3 Cl    0.003622 -0.002019 -0.017431
     4 H     0.001024  0.004460  0.005829
     5 H     0.000068 -0.002013  0.001900
     6 N     0.036947 -0.041139 -0.020123
     7 H    -0.005905  0.009122  0.015102
     8 H     0.004693  0.022243 -0.007885
     9 H     0.025069 -0.011123 -0.017665
 ----------------------------------------
 
----------------------------------------------------------------------
Geometry Convergence after Step   1       (Hartree/Angstrom,Angstrom)
----------------------------------------------------------------------
current energy                               -1.56749725 Hartree
energy change                      -1.56749725     0.00009000    F
constrained gradient max            0.10699968     0.00010000    F
constrained gradient rms            0.02758253     0.00006667    F
gradient max                        0.10699968
gradient rms                        0.02758253
cart. step max                      0.04675028     0.01000000    F
cart. step rms                      0.02069736     0.00666667    F
 

--------
Geometry
--------
Formula: C2H5ClN
Atoms
  Index Symbol   x (angstrom)   y (angstrom)   z (angstrom)
      1      C    -0.24647622     0.01535114    -0.27537887
      2      C    -0.04604058     0.10091364     1.15162314
      3     Cl     1.47153012    -0.28169455    -1.26523949
      4      H    -0.80429036    -0.86279392    -0.60160117
      5      H    -0.60597551     0.92904841    -0.74925850
      6      N     0.41342012    -1.05779464     1.90179672
      7      H     1.11725015    -1.55214491     1.34687680
      8      H    -0.37038473    -1.69899149     2.03990222
      9      H     0.42200820     1.02920559     1.49653293

Total System Charge              0.00000

 *** GO1_GOStep2 ***

 Integrated fractional orbital density (NFOD):         1.000

 Energy gradients wrt nuclear displacements
 ==========================================

     Atom      Cartesian (a.u./angstrom)
                 X         Y         Z
 ----------------------------------------
     1 C     0.028730  0.001451  0.003492
     2 C    -0.076788  0.016177  0.014316
     3 Cl    0.001795 -0.001016 -0.009711
     4 H    -0.000691  0.001784  0.002361
     5 H    -0.001438 -0.000954 -0.000948
     6 N     0.028848 -0.026580 -0.002599
     7 H    -0.001086  0.006257  0.006581
     8 H    -0.000817  0.009191 -0.003022
     9 H     0.021446 -0.006309 -0.010469
 ----------------------------------------

 dE(predicted):    -0.60457E-02, dE(actual):    -0.60253E-02, Trust radius:    0.400000, all in a.u.
 
----------------------------------------------------------------------
Geometry Convergence after Step   2       (Hartree/Angstrom,Angstrom)
----------------------------------------------------------------------
current energy                               -1.57352251 Hartree
energy change                      -0.00602526     0.00009000    F
constrained gradient max            0.07680013     0.00010000    F
constrained gradient rms            0.01890226     0.00006667    F
gradient max                        0.07680013
gradient rms                        0.01890226
cart. step max                      0.08043410     0.01000000    F
cart. step rms                      0.02259443     0.00666667    F
 

--------
Geometry
--------
Formula: C2H5ClN
Atoms
  Index Symbol   x (angstrom)   y (angstrom)   z (angstrom)
      1      C    -0.26024592     0.00800068    -0.28794575
      2      C     0.03439351     0.09372619     1.11985488
      3     Cl     1.47702652    -0.25353031    -1.23903540
      4      H    -0.81115086    -0.87771721    -0.60994854
      5      H    -0.63333673     0.92710234    -0.73939791
      6      N     0.41498014    -1.05071622     1.89837974
      7      H     1.10263623    -1.59353497     1.35630560
      8      H    -0.38217651    -1.68024673     2.04460428
      9      H     0.40891480     1.04801550     1.50243688

Total System Charge              0.00000

 *** GO1_GOStep3 ***

 Integrated fractional orbital density (NFOD):         1.000

 Energy gradients wrt nuclear displacements
 ==========================================

     Atom      Cartesian (a.u./angstrom)
                 X         Y         Z
 ----------------------------------------
     1 C     0.013303 -0.002283 -0.009918
     2 C    -0.027249  0.005853  0.007867
     3 Cl   -0.003925  0.001169  0.002894
     4 H    -0.002166 -0.000146 -0.000425
     5 H    -0.001531 -0.000063  0.000722
     6 N     0.008286 -0.006720  0.003792
     7 H     0.001205  0.002266 -0.000822
     8 H    -0.000358  0.000278 -0.001369
     9 H     0.012435 -0.000355 -0.002742
 ----------------------------------------

 dE(predicted):    -0.47007E-02, dE(actual):    -0.53109E-02, Trust radius:    0.800000, all in a.u.
 
----------------------------------------------------------------------
Geometry Convergence after Step   3       (Hartree/Angstrom,Angstrom)
----------------------------------------------------------------------
current energy                               -1.57883344 Hartree
energy change                      -0.00531093     0.00009000    F
constrained gradient max            0.02729025     0.00010000    F
constrained gradient rms            0.00733261     0.00006667    F
gradient max                        0.02729025
gradient rms                        0.00733261
cart. step max                      0.05818784     0.01000000    F
cart. step rms                      0.02513551     0.00666667    F
 

--------
Geometry
--------
Formula: C2H5ClN
Atoms
  Index Symbol   x (angstrom)   y (angstrom)   z (angstrom)
      1      C    -0.24290035     0.00689202    -0.28774648
      2      C     0.09118118     0.08877098     1.10466049
      3     Cl     1.46900846    -0.23321284    -1.29722324
      4      H    -0.78478189    -0.88727208    -0.59685928
      5      H    -0.63739305     0.92360740    -0.72436501
      6      N     0.41934318    -1.05129187     1.89552481
      7      H     1.08394085    -1.64086366     1.37318945
      8      H    -0.40113277    -1.64624058     2.05306021
      9      H     0.35377556     1.06070990     1.52501283

Total System Charge              0.00000

 *** GO1_GOStep4 ***

 Integrated fractional orbital density (NFOD):         1.000

 Energy gradients wrt nuclear displacements
 ==========================================

     Atom      Cartesian (a.u./angstrom)
                 X         Y         Z
 ----------------------------------------
     1 C     0.006349 -0.003412 -0.009130
     2 C    -0.005235  0.001768  0.005743
     3 Cl   -0.006731  0.001761  0.005423
     4 H    -0.001043  0.000586  0.000439
     5 H    -0.001195  0.000030  0.000991
     6 N    -0.002431 -0.000956  0.003931
     7 H     0.002515  0.000673  0.000569
     8 H     0.001535 -0.000579 -0.005088
     9 H     0.006236  0.000128 -0.002880
 ----------------------------------------

 dE(predicted):    -0.12473E-02, dE(actual):    -0.17518E-02, Trust radius:    0.800000, all in a.u.
 
----------------------------------------------------------------------
Geometry Convergence after Step   4       (Hartree/Angstrom,Angstrom)
----------------------------------------------------------------------
current energy                               -1.58058524 Hartree
energy change                      -0.00175179     0.00009000    F
constrained gradient max            0.00917974     0.00010000    F
constrained gradient rms            0.00377936     0.00006667    F
gradient max                        0.00917974
gradient rms                        0.00377936
cart. step max                      0.14979140     0.01000000    F
cart. step rms                      0.06916682     0.00666667    F
 

--------
Geometry
--------
Formula: C2H5ClN
Atoms
  Index Symbol   x (angstrom)   y (angstrom)   z (angstrom)
      1      C    -0.19855136     0.00509254    -0.28934966
      2      C     0.16902811     0.08113192     1.08255800
      3     Cl     1.48221965    -0.16699501    -1.38933718
      4      H    -0.69882306    -0.91265700    -0.59292366
      5      H    -0.63847147     0.90964746    -0.70510891
      6      N     0.45911798    -1.05633332     1.86731725
      7      H     0.94823208    -1.76291428     1.29976773
      8      H    -0.38795943    -1.52695881     2.20285161
      9      H     0.21624869     1.05108577     1.56947860

Total System Charge              0.00000

 *** GO1_GOStep5 ***

 Integrated fractional orbital density (NFOD):         1.000

 Energy gradients wrt nuclear displacements
 ==========================================

     Atom      Cartesian (a.u./angstrom)
                 X         Y         Z
 ----------------------------------------
     1 C    -0.007495 -0.002992  0.000322
     2 C     0.020164  0.000276 -0.006072
     3 Cl   -0.009478  0.001899  0.009260
     4 H     0.001208  0.000911  0.002007
     5 H    -0.000523  0.000244  0.000647
     6 N    -0.009369  0.010231  0.016542
     7 H     0.004260 -0.003242  0.001457
     8 H    -0.000588 -0.006467 -0.018696
     9 H     0.001821 -0.000860 -0.005466
 ----------------------------------------

 dE(predicted):    -0.18276E-02, dE(actual):    -0.44804E-02, Trust radius:    1.000000, all in a.u.
 
----------------------------------------------------------------------
Geometry Convergence after Step   5       (Hartree/Angstrom,Angstrom)
----------------------------------------------------------------------
current energy                               -1.58506567 Hartree
energy change                      -0.00448043     0.00009000    F
constrained gradient max            0.02013594     0.00010000    F
constrained gradient rms            0.00773937     0.00006667    F
gradient max                        0.02013594
gradient rms                        0.00773937
cart. step max                      0.22220307     0.01000000    F
cart. step rms                      0.07234042     0.00666667    F
 

--------
Geometry
--------
Formula: C2H5ClN
Atoms
  Index Symbol   x (angstrom)   y (angstrom)   z (angstrom)
      1      C    -0.17143916     0.00578385    -0.31429405
      2      C     0.16310901     0.06133091     1.06767459
      3     Cl     1.51668357    -0.09423619    -1.43346959
      4      H    -0.63819334    -0.91793923    -0.65088526
      5      H    -0.63138067     0.90696239    -0.71399736
      6      N     0.48134253    -1.07283244     1.83569195
      7      H     0.77697211    -1.85016224     1.23244781
      8      H    -0.27978869    -1.42689730     2.42505468
      9      H     0.13373582     1.00908951     1.59703101

Total System Charge              0.00000

 *** GO1_GOStep6 ***

 Integrated fractional orbital density (NFOD):         1.000

 Energy gradients wrt nuclear displacements
 ==========================================

     Atom      Cartesian (a.u./angstrom)
                 X         Y         Z
 ----------------------------------------
     1 C    -0.008381 -0.001479 -0.004833
     2 C     0.022199  0.006594 -0.014832
     3 Cl   -0.010817  0.001190  0.009325
     4 H     0.001450  0.000666  0.001423
     5 H    -0.000701  0.000575 -0.000073
     6 N     0.001625  0.008592  0.030649
     7 H     0.002127 -0.003547 -0.002530
     8 H    -0.008152 -0.011539 -0.015996
     9 H     0.000650 -0.001053 -0.003134
 ----------------------------------------

 dE(predicted):    -0.71885E-02, dE(actual):    -0.79726E-02, Trust radius:    1.000000, all in a.u.
 
----------------------------------------------------------------------
Geometry Convergence after Step   6       (Hartree/Angstrom,Angstrom)
----------------------------------------------------------------------
current energy                               -1.59303823 Hartree
energy change                      -0.00797256     0.00009000    F
constrained gradient max            0.03069267     0.00010000    F
constrained gradient rms            0.00975408     0.00006667    F
gradient max                        0.03069267
gradient rms                        0.00975408
cart. step max                      0.20807166     0.01000000    F
cart. step rms                      0.07981681     0.00666667    F
 

--------
Geometry
--------
Formula: C2H5ClN
Atoms
  Index Symbol   x (angstrom)   y (angstrom)   z (angstrom)
      1      C    -0.14807442     0.00938879    -0.34401964
      2      C     0.13240001     0.03383597     1.05260646
      3     Cl     1.55961947    -0.02741260    -1.46622022
      4      H    -0.58601116    -0.91139490    -0.72546979
      5      H    -0.61423658     0.91274875    -0.72938290
      6      N     0.47838723    -1.09641571     1.79885579
      7      H     0.56890046    -1.92744659     1.20822450
      8      H    -0.08434743    -1.32498238     2.62517057
      9      H     0.04440361     0.95277793     1.62548900

Total System Charge              0.00000

 *** GO1_GOStep7 ***

 Integrated fractional orbital density (NFOD):         1.000

 Energy gradients wrt nuclear displacements
 ==========================================

     Atom      Cartesian (a.u./angstrom)
                 X         Y         Z
 ----------------------------------------
     1 C    -0.002634  0.000581 -0.013535
     2 C     0.020782  0.009066 -0.020105
     3 Cl   -0.012676  0.000169  0.007868
     4 H     0.000910  0.000556  0.000778
     5 H    -0.000564  0.001049 -0.000628
     6 N     0.011027  0.005671  0.031516
     7 H    -0.002838 -0.000485 -0.004935
     8 H    -0.010752 -0.014301 -0.002773
     9 H    -0.003255 -0.002305  0.001814
 ----------------------------------------

 dE(predicted):    -0.11959E-01, dE(actual):    -0.75070E-02, Trust radius:    1.000000, all in a.u.
 
----------------------------------------------------------------------
Geometry Convergence after Step   7       (Hartree/Angstrom,Angstrom)
----------------------------------------------------------------------
current energy                               -1.60054526 Hartree
energy change                      -0.00750703     0.00009000    F
constrained gradient max            0.03156932     0.00010000    F
constrained gradient rms            0.01029463     0.00006667    F
gradient max                        0.03156932
gradient rms                        0.01029463
cart. step max                      0.20621968     0.01000000    F
cart. step rms                      0.06200558     0.00666667    F
 

--------
Geometry
--------
Formula: C2H5ClN
Atoms
  Index Symbol   x (angstrom)   y (angstrom)   z (angstrom)
      1      C    -0.15318619     0.01324637    -0.37126395
      2      C     0.03110068     0.00029527     1.04972575
      3     Cl     1.61120135    -0.00663370    -1.45455379
      4      H    -0.58301090    -0.88586558    -0.81611379
      5      H    -0.58752197     0.93236761    -0.75448779
      6      N     0.43509945    -1.11434117     1.78097347
      7      H     0.46323648    -1.96500185     1.22353170
      8      H     0.12187226    -1.26838011     2.74333370
      9      H     0.01225002     0.91541243     1.64410848

Total System Charge              0.00000

 *** GO1_GOStep8 ***

 Integrated fractional orbital density (NFOD):         1.000

 Energy gradients wrt nuclear displacements
 ==========================================

     Atom      Cartesian (a.u./angstrom)
                 X         Y         Z
 ----------------------------------------
     1 C     0.008100  0.004522 -0.024923
     2 C    -0.001734  0.003144 -0.018687
     3 Cl   -0.011225  0.000060  0.002386
     4 H    -0.001933 -0.001025 -0.002503
     5 H    -0.000002  0.000713 -0.001689
     6 N     0.013363 -0.000806  0.032941
     7 H    -0.003072  0.007069 -0.006556
     8 H    -0.005280 -0.012859  0.009699
     9 H     0.001784 -0.000817  0.009331
 ----------------------------------------

 dE(predicted):    -0.65534E-02, dE(actual):    -0.41900E-02, Trust radius:    1.000000, all in a.u.
 
----------------------------------------------------------------------
Geometry Convergence after Step   8       (Hartree/Angstrom,Angstrom)
----------------------------------------------------------------------
current energy                               -1.60473530 Hartree
energy change                      -0.00419004     0.00009000    F
constrained gradient max            0.03294410     0.00010000    F
constrained gradient rms            0.01047107     0.00006667    F
gradient max                        0.03294410
gradient rms                        0.01047107
cart. step max                      0.21345652     0.01000000    F
cart. step rms                      0.06262087     0.00666667    F
 

--------
Geometry
--------
Formula: C2H5ClN
Atoms
  Index Symbol   x (angstrom)   y (angstrom)   z (angstrom)
      1      C    -0.14213202     0.01253047    -0.37679862
      2      C     0.02988549    -0.01395602     1.03722409
      3     Cl     1.64721883     0.06316402    -1.44264494
      4      H    -0.52572125    -0.89606423    -0.84078178
      5      H    -0.59867908     0.92288791    -0.75411482
      6      N     0.42018210    -1.13956452     1.75145157
      7      H     0.24977996    -2.02004756     1.26780027
      8      H     0.30701079    -1.19864534     2.76370553
      9      H    -0.03650365     0.89079454     1.63941245

Total System Charge              0.00000

 *** GO1_GOStep9 ***

 Integrated fractional orbital density (NFOD):         1.000

 Energy gradients wrt nuclear displacements
 ==========================================

     Atom      Cartesian (a.u./angstrom)
                 X         Y         Z
 ----------------------------------------
     1 C     0.011163  0.005244 -0.019055
     2 C    -0.001423  0.005422 -0.020806
     3 Cl   -0.011594 -0.001205  0.002639
     4 H    -0.000893 -0.000265 -0.000724
     5 H     0.000475  0.001323 -0.000820
     6 N     0.016594 -0.001913  0.026763
     7 H    -0.008725  0.003977 -0.004883
     8 H     0.000022 -0.010506  0.009731
     9 H    -0.005618 -0.002077  0.007155
 ----------------------------------------

 dE(predicted):    -0.25880E-02, dE(actual):    -0.14069E-02, Trust radius:    1.000000, all in a.u.
 
----------------------------------------------------------------------
Geometry Convergence after Step   9       (Hartree/Angstrom,Angstrom)
----------------------------------------------------------------------
current energy                               -1.60614217 Hartree
energy change                      -0.00140687     0.00009000    F
constrained gradient max            0.02677876     0.00010000    F
constrained gradient rms            0.00967914     0.00006667    F
gradient max                        0.02677876
gradient rms                        0.00967914
cart. step max                      0.06358491     0.01000000    F
cart. step rms                      0.02538140     0.00666667    F
 

--------
Geometry
--------
Formula: C2H5ClN
Atoms
  Index Symbol   x (angstrom)   y (angstrom)   z (angstrom)
      1      C    -0.15964827     0.00769414    -0.37720671
      2      C    -0.00683022    -0.02131899     1.03698161
      3     Cl     1.67333382     0.09632735    -1.40007031
      4      H    -0.51356718    -0.90357351    -0.86018326
      5      H    -0.62065615     0.91295635    -0.76127490
      6      N     0.39007667    -1.14971360     1.74251712
      7      H     0.20558554    -2.04023283     1.28324377
      8      H     0.37059570    -1.17892633     2.75894957
      9      H     0.01215127     0.89788669     1.62229689

Total System Charge              0.00000

 *** GO1_GOStep10 ***

 Integrated fractional orbital density (NFOD):         1.000

 Energy gradients wrt nuclear displacements
 ==========================================

     Atom      Cartesian (a.u./angstrom)
                 X         Y         Z
 ----------------------------------------
     1 C     0.013859  0.005631 -0.016695
     2 C    -0.013077  0.007502 -0.016916
     3 Cl   -0.009716 -0.001514  0.001984
     4 H    -0.000849 -0.000976 -0.002131
     5 H    -0.000648  0.000938 -0.000154
     6 N     0.017445 -0.006246  0.026449
     7 H    -0.007631  0.001381 -0.005324
     8 H     0.001668 -0.007347  0.006959
     9 H    -0.001051  0.000632  0.005828
 ----------------------------------------

 dE(predicted):    -0.77348E-03, dE(actual):    -0.11787E-02, Trust radius:    1.000000, all in a.u.
 
----------------------------------------------------------------------
Geometry Convergence after Step  10       (Hartree/Angstrom,Angstrom)
----------------------------------------------------------------------
current energy                               -1.60732084 Hartree
energy change                      -0.00117867     0.00009000    F
constrained gradient max            0.02646124     0.00010000    F
constrained gradient rms            0.00942036     0.00006667    F
gradient max                        0.02646124
gradient rms                        0.00942036
cart. step max                      0.08199370     0.01000000    F
cart. step rms                      0.03062156     0.00666667    F
 

--------
Geometry
--------
Formula: C2H5ClN
Atoms
  Index Symbol   x (angstrom)   y (angstrom)   z (angstrom)
      1      C    -0.18393988    -0.00233357    -0.37116702
      2      C    -0.01937067    -0.02607888     1.03347526
      3     Cl     1.69852758     0.15580522    -1.35020981
      4      H    -0.49421212    -0.92332044    -0.86309755
      5      H    -0.65902917     0.89084132    -0.76597319
      6      N     0.35228135    -1.15941231     1.72835782
      7      H     0.15517792    -2.06187894     1.30037978
      8      H     0.40746120    -1.15297528     2.74028026
      9      H     0.09414497     0.90045216     1.59320823

Total System Charge              0.00000

 *** GO1_GOStep11 ***

 Integrated fractional orbital density (NFOD):         1.000

 Energy gradients wrt nuclear displacements
 ==========================================

     Atom      Cartesian (a.u./angstrom)
                 X         Y         Z
 ----------------------------------------
     1 C     0.014317  0.002959 -0.009813
     2 C    -0.016355  0.007741 -0.009189
     3 Cl   -0.008285 -0.001398  0.003325
     4 H     0.000126 -0.000472 -0.002168
     5 H    -0.002498  0.000453  0.000606
     6 N     0.013969 -0.004861  0.016607
     7 H    -0.005415 -0.001573 -0.003650
     8 H     0.000747 -0.002957  0.002289
     9 H     0.003394  0.000108  0.001994
 ----------------------------------------

 dE(predicted):    -0.87378E-03, dE(actual):    -0.11909E-02, Trust radius:    1.000000, all in a.u.
 
----------------------------------------------------------------------
Geometry Convergence after Step  11       (Hartree/Angstrom,Angstrom)
----------------------------------------------------------------------
current energy                               -1.60851171 Hartree
energy change                      -0.00119086     0.00009000    F
constrained gradient max            0.01662284     0.00010000    F
constrained gradient rms            0.00716202     0.00006667    F
gradient max                        0.01662284
gradient rms                        0.00716202
cart. step max                      0.02904839     0.01000000    F
cart. step rms                      0.01136074     0.00666667    F
 

--------
Geometry
--------
Formula: C2H5ClN
Atoms
  Index Symbol   x (angstrom)   y (angstrom)   z (angstrom)
      1      C    -0.20062140    -0.00636304    -0.36261707
      2      C    -0.01405634    -0.02718241     1.03200236
      3     Cl     1.71239950     0.17340566    -1.33385969
      4      H    -0.49808253    -0.93122153    -0.85243063
      5      H    -0.66787407     0.88570548    -0.76728467
      6      N     0.33021306    -1.16164949     1.71885988
      7      H     0.16055059    -2.07192361     1.30104331
      8      H     0.40531901    -1.13995022     2.72751969
      9      H     0.12319336     0.90027842     1.58202060

Total System Charge              0.00000

 *** GO1_GOStep12 ***

 Integrated fractional orbital density (NFOD):         1.000

 Energy gradients wrt nuclear displacements
 ==========================================

     Atom      Cartesian (a.u./angstrom)
                 X         Y         Z
 ----------------------------------------
     1 C     0.013417  0.000573 -0.004995
     2 C    -0.011215  0.004107 -0.001176
     3 Cl   -0.008044 -0.000802  0.004376
     4 H     0.000226  0.000118 -0.000901
     5 H    -0.002602  0.000132  0.000504
     6 N     0.008211 -0.001937  0.003569
     7 H    -0.002920 -0.001673 -0.000423
     8 H    -0.000973 -0.000101 -0.000313
     9 H     0.003899 -0.000418 -0.000641
 ----------------------------------------

 dE(predicted):    -0.48248E-03, dE(actual):    -0.73794E-03, Trust radius:    1.000000, all in a.u.
 
----------------------------------------------------------------------
Geometry Convergence after Step  12       (Hartree/Angstrom,Angstrom)
----------------------------------------------------------------------
current energy                               -1.60924965 Hartree
energy change                      -0.00073794     0.00009000    F
constrained gradient max            0.01343205     0.00010000    F
constrained gradient rms            0.00452965     0.00006667    F
gradient max                        0.01343205
gradient rms                        0.00452965
cart. step max                      0.05141263     0.01000000    F
cart. step rms                      0.01644905     0.00666667    F
 

--------
Geometry
--------
Formula: C2H5ClN
Atoms
  Index Symbol   x (angstrom)   y (angstrom)   z (angstrom)
      1      C    -0.22250719    -0.00437918    -0.35074992
      2      C    -0.01432458    -0.02661103     1.03301563
      3     Cl     1.73400540     0.14697615    -1.32564534
      4      H    -0.52616267    -0.92730060    -0.83790637
      5      H    -0.65235251     0.89791386    -0.76985238
      6      N     0.30692075    -1.15877354     1.70872786
      7      H     0.21196322    -2.07463303     1.28753380
      8      H     0.40671181    -1.13183998     2.71364831
      9      H     0.10678693     0.89974663     1.58648219

Total System Charge              0.00000

 *** GO1_GOStep13 ***

 Integrated fractional orbital density (NFOD):         1.000

 Energy gradients wrt nuclear displacements
 ==========================================

     Atom      Cartesian (a.u./angstrom)
                 X         Y         Z
 ----------------------------------------
     1 C     0.011686 -0.001395 -0.000142
     2 C    -0.003775 -0.003477  0.007886
     3 Cl   -0.007427  0.000120  0.004446
     4 H    -0.000697  0.000392  0.000944
     5 H    -0.001300 -0.000253  0.000021
     6 N     0.002106  0.003267 -0.012740
     7 H    -0.000650  0.000114  0.004009
     8 H    -0.002418  0.001867 -0.002169
     9 H     0.002476 -0.000633 -0.002254
 ----------------------------------------

 dE(predicted):    -0.47901E-03, dE(actual):    -0.70473E-03, Trust radius:    1.000000, all in a.u.
 
----------------------------------------------------------------------
Geometry Convergence after Step  13       (Hartree/Angstrom,Angstrom)
----------------------------------------------------------------------
current energy                               -1.60995438 Hartree
energy change                      -0.00070473     0.00009000    F
constrained gradient max            0.01273309     0.00010000    F
constrained gradient rms            0.00440892     0.00006667    F
gradient max                        0.01273309
gradient rms                        0.00440892
cart. step max                      0.06662307     0.01000000    F
cart. step rms                      0.02320987     0.00666667    F
 

--------
Geometry
--------
Formula: C2H5ClN
Atoms
  Index Symbol   x (angstrom)   y (angstrom)   z (angstrom)
      1      C    -0.24449487     0.00248664    -0.34149257
      2      C    -0.02655235    -0.02451687     1.03594079
      3     Cl     1.75823127     0.09380887    -1.32015762
      4      H    -0.55913846    -0.91442746    -0.83168508
      5      H    -0.62710011     0.91832677    -0.77267117
      6      N     0.28139174    -1.15547117     1.70407408
      7      H     0.27858630    -2.06759271     1.26884844
      8      H     0.42561124    -1.13037805     2.70261132
      9      H     0.06450641     0.89886326     1.59978558

Total System Charge              0.00000

 *** GO1_GOStep14 ***

 Integrated fractional orbital density (NFOD):         1.000

 Energy gradients wrt nuclear displacements
 ==========================================

     Atom      Cartesian (a.u./angstrom)
                 X         Y         Z
 ----------------------------------------
     1 C     0.009621 -0.001581  0.002064
     2 C     0.000151 -0.008678  0.012377
     3 Cl   -0.006379  0.000723  0.003546
     4 H    -0.001738  0.000218  0.002011
     5 H     0.000417 -0.000941 -0.000067
     6 N    -0.000316  0.007808 -0.021327
     7 H     0.000139  0.001247  0.006892
     8 H    -0.002761  0.001702 -0.003125
     9 H     0.000866 -0.000499 -0.002371
 ----------------------------------------

 dE(predicted):    -0.32407E-03, dE(actual):    -0.52700E-03, Trust radius:    1.000000, all in a.u.
 Residual max backtransformation error   0.3627E+00
 
----------------------------------------------------------------------
Geometry Convergence after Step  14       (Hartree/Angstrom,Angstrom)
----------------------------------------------------------------------
current energy                               -1.61048138 Hartree
energy change                      -0.00052700     0.00009000    F
constrained gradient max            0.02131660     0.00010000    F
constrained gradient rms            0.00602956     0.00006667    F
gradient max                        0.02131660
gradient rms                        0.00602956
cart. step max                      0.00447970     0.01000000    T
cart. step rms                      0.00185722     0.00666667    T
 

--------
Geometry
--------
Formula: C2H5ClN
Atoms
  Index Symbol   x (angstrom)   y (angstrom)   z (angstrom)
      1      C    -0.24633325     0.00307433    -0.34090967
      2      C    -0.02797755    -0.02434842     1.03618943
      3     Cl     1.76045882     0.08956231    -1.31955136
      4      H    -0.56114625    -0.91335485    -0.83180595
      5      H    -0.62544197     0.91990475    -0.77285167
      6      N     0.27858869    -1.15543471     1.70414228
      7      H     0.28306600    -2.06681173     1.26745385
      8      H     0.42868910    -1.13026157     2.70176690
      9      H     0.06113760     0.89876917     1.60081997

Total System Charge              0.00000

 *** GO1_GOStep15 ***

 Integrated fractional orbital density (NFOD):         1.000

 Energy gradients wrt nuclear displacements
 ==========================================

     Atom      Cartesian (a.u./angstrom)
                 X         Y         Z
 ----------------------------------------
     1 C     0.009448 -0.001549  0.002077
     2 C     0.000266 -0.008801  0.012494
     3 Cl   -0.006252  0.000740  0.003435
     4 H    -0.001773  0.000197  0.002036
     5 H     0.000519 -0.000984 -0.000048
     6 N    -0.000384  0.008023 -0.021486
     7 H     0.000132  0.001223  0.006976
     8 H    -0.002730  0.001632 -0.003145
     9 H     0.000774 -0.000481 -0.002338
 ----------------------------------------

 dE(predicted):    -0.44101E-03, dE(actual):    -0.49395E-04, Trust radius:    0.020000, all in a.u.
 Residual max backtransformation error   0.1859E-01

 Delocalized step failed. Taking Cartesian step

 
----------------------------------------------------------------------
Geometry Convergence after Step  15       (Hartree/Angstrom,Angstrom)
----------------------------------------------------------------------
current energy                               -1.61053078 Hartree
energy change                      -0.00004939     0.00009000    T
constrained gradient max            0.02147672     0.00010000    F
constrained gradient rms            0.00606187     0.00006667    F
gradient max                        0.02147672
gradient rms                        0.00606187
cart. step max                      0.00481824     0.01000000    T
cart. step rms                      0.00203678     0.00666667    T
 

--------
Geometry
--------
Formula: C2H5ClN
Atoms
  Index Symbol   x (angstrom)   y (angstrom)   z (angstrom)
      1      C    -0.24969382     0.00345127    -0.34175393
      2      C    -0.02603852    -0.02297073     1.03460139
      3     Cl     1.76343211     0.08865505    -1.32176535
      4      H    -0.56063369    -0.91363121    -0.83331695
      5      H    -0.62609632     0.92110289    -0.77296355
      6      N     0.27428873    -1.15697031     1.70896052
      7      H     0.28441900    -2.06654395     1.26516416
      8      H     0.43155486    -1.13139665     2.70480858
      9      H     0.05980884     0.89940290     1.60151891

Total System Charge              0.00000

 *** GO1_GOStep16 ***

 Integrated fractional orbital density (NFOD):         1.000

 Energy gradients wrt nuclear displacements
 ==========================================

     Atom      Cartesian (a.u./angstrom)
                 X         Y         Z
 ----------------------------------------
     1 C     0.007673 -0.000771 -0.000252
     2 C     0.000167 -0.003901  0.008112
     3 Cl   -0.006099  0.000669  0.003446
     4 H    -0.001437  0.000174  0.002102
     5 H     0.000715 -0.001360  0.000453
     6 N     0.001403  0.004600 -0.013133
     7 H    -0.000126 -0.000527  0.004677
     8 H    -0.002811  0.001500 -0.003781
     9 H     0.000514 -0.000384 -0.001622
 ----------------------------------------

 dE(predicted):    -0.16181E-03, dE(actual):    -0.20761E-03, Trust radius:    0.040000, all in a.u.
 
----------------------------------------------------------------------
Geometry Convergence after Step  16       (Hartree/Angstrom,Angstrom)
----------------------------------------------------------------------
current energy                               -1.61073839 Hartree
energy change                      -0.00020761     0.00009000    F
constrained gradient max            0.01312353     0.00010000    F
constrained gradient rms            0.00405681     0.00006667    F
gradient max                        0.01312404
gradient rms                        0.00405680
cart. step max                      0.00852519     0.01000000    T
cart. step rms                      0.00435825     0.00666667    T
 

--------
Geometry
--------
Formula: C2H5ClN
Atoms
  Index Symbol   x (angstrom)   y (angstrom)   z (angstrom)
      1      C    -0.25241341     0.00461131    -0.34251926
      2      C    -0.02985506    -0.02239320     1.03548194
      3     Cl     1.76906958     0.08012986    -1.32836014
      4      H    -0.56122526    -0.91089394    -0.83887853
      5      H    -0.62545529     0.92455905    -0.77295286
      6      N     0.26811236    -1.15660060     1.71451358
      7      H     0.29169570    -2.06211262     1.26245264
      8      H     0.43789531    -1.13505017     2.70970322
      9      H     0.05321725     0.89884959     1.60581320

Total System Charge              0.00000

 *** GO1_GOStep17 ***

 Integrated fractional orbital density (NFOD):         1.000

 Energy gradients wrt nuclear displacements
 ==========================================

     Atom      Cartesian (a.u./angstrom)
                 X         Y         Z
 ----------------------------------------
     1 C     0.007075 -0.000634 -0.002745
     2 C    -0.000948 -0.002318  0.006496
     3 Cl   -0.005298  0.000550  0.002708
     4 H    -0.001498 -0.000070  0.001394
     5 H     0.000246 -0.000908  0.000351
     6 N     0.002153  0.003542 -0.010036
     7 H    -0.000350 -0.000276  0.003630
     8 H    -0.002181  0.000440 -0.001358
     9 H     0.000800 -0.000327 -0.000440
 ----------------------------------------

 dE(predicted):    -0.17797E-03, dE(actual):    -0.20082E-03, Trust radius:    0.080000, all in a.u.
 
----------------------------------------------------------------------
Geometry Convergence after Step  17       (Hartree/Angstrom,Angstrom)
----------------------------------------------------------------------
current energy                               -1.61093922 Hartree
energy change                      -0.00020082     0.00009000    F
constrained gradient max            0.01002533     0.00010000    F
constrained gradient rms            0.00325629     0.00006667    F
gradient max                        0.01002533
gradient rms                        0.00325629
cart. step max                      0.01995495     0.01000000    F
cart. step rms                      0.00773666     0.00666667    F
 

--------
Geometry
--------
Formula: C2H5ClN
Atoms
  Index Symbol   x (angstrom)   y (angstrom)   z (angstrom)
      1      C    -0.26052826     0.00651246    -0.34129439
      2      C    -0.03853759    -0.02280509     1.03674757
      3     Cl     1.78269847     0.06576862    -1.33080252
      4      H    -0.56246305    -0.90596796    -0.84735418
      5      H    -0.62549263     0.93069176    -0.77146609
      6      N     0.25481272    -1.15782341     1.72306803
      7      H     0.30043521    -2.05646737     1.25734627
      8      H     0.45785026    -1.13894128     2.71313509
      9      H     0.04226604     0.90013153     1.60587401

Total System Charge              0.00000

 *** GO1_GOStep18 ***

 Integrated fractional orbital density (NFOD):         1.000

 Energy gradients wrt nuclear displacements
 ==========================================

     Atom      Cartesian (a.u./angstrom)
                 X         Y         Z
 ----------------------------------------
     1 C     0.006657  0.000091 -0.004071
     2 C    -0.003283 -0.000126  0.003027
     3 Cl   -0.004129  0.000330  0.001699
     4 H    -0.001419 -0.000115  0.000707
     5 H    -0.000511 -0.000177  0.000190
     6 N     0.003768  0.001029 -0.003766
     7 H    -0.000723 -0.000457  0.001675
     8 H    -0.001313 -0.000885  0.000781
     9 H     0.000954  0.000310 -0.000242
 ----------------------------------------

 dE(predicted):    -0.28092E-03, dE(actual):    -0.27105E-03, Trust radius:    0.160000, all in a.u.
 
----------------------------------------------------------------------
Geometry Convergence after Step  18       (Hartree/Angstrom,Angstrom)
----------------------------------------------------------------------
current energy                               -1.61121026 Hartree
energy change                      -0.00027105     0.00009000    F
constrained gradient max            0.00672916     0.00010000    F
constrained gradient rms            0.00228348     0.00006667    F
gradient max                        0.00672916
gradient rms                        0.00228348
cart. step max                      0.03176976     0.01000000    F
cart. step rms                      0.01400946     0.00666667    F
 

--------
Geometry
--------
Formula: C2H5ClN
Atoms
  Index Symbol   x (angstrom)   y (angstrom)   z (angstrom)
      1      C    -0.28086756     0.00900872    -0.33569046
      2      C    -0.04997291    -0.02292392     1.03726089
      3     Cl     1.80904899     0.03862902    -1.32481897
      4      H    -0.57011376    -0.89998665    -0.85414922
      5      H    -0.62368263     0.93935834    -0.77078414
      6      N     0.22596835    -1.15815777     1.72822498
      7      H     0.32354165    -2.04509229     1.24768717
      8      H     0.48962002    -1.13557347     2.70352731
      9      H     0.02749903     0.89583730     1.61399622

Total System Charge              0.00000

 *** GO1_GOStep19 ***

 Integrated fractional orbital density (NFOD):         1.000

 Energy gradients wrt nuclear displacements
 ==========================================

     Atom      Cartesian (a.u./angstrom)
                 X         Y         Z
 ----------------------------------------
     1 C     0.005087 -0.000568 -0.002981
     2 C    -0.003222 -0.001047  0.000269
     3 Cl   -0.002571  0.000242  0.000546
     4 H    -0.001279  0.000152  0.000114
     5 H    -0.000804 -0.000046  0.000292
     6 N     0.003168  0.003840 -0.000895
     7 H    -0.000427  0.000193  0.001465
     8 H    -0.001056 -0.002101 -0.000059
     9 H     0.001104 -0.000665  0.001247
 ----------------------------------------

 dE(predicted):    -0.39675E-03, dE(actual):    -0.37942E-03, Trust radius:    0.320000, all in a.u.
 
----------------------------------------------------------------------
Geometry Convergence after Step  19       (Hartree/Angstrom,Angstrom)
----------------------------------------------------------------------
current energy                               -1.61158968 Hartree
energy change                      -0.00037942     0.00009000    F
constrained gradient max            0.00518344     0.00010000    F
constrained gradient rms            0.00185067     0.00006667    F
gradient max                        0.00518344
gradient rms                        0.00185067
cart. step max                      0.12285553     0.01000000    F
cart. step rms                      0.04042287     0.00666667    F
 

--------
Geometry
--------
Formula: C2H5ClN
Atoms
  Index Symbol   x (angstrom)   y (angstrom)   z (angstrom)
      1      C    -0.31647589     0.01334023    -0.31994864
      2      C    -0.09800389    -0.02820332     1.04963950
      3     Cl     1.85470118    -0.02180953    -1.25564664
      4      H    -0.58783714    -0.88882849    -0.85806184
      5      H    -0.60688349     0.95472197    -0.76822836
      6      N     0.15540468    -1.16882907     1.73756226
      7      H     0.35075562    -2.02043188     1.22301273
      8      H     0.61247555    -1.12571147     2.63823525
      9      H    -0.01309543     0.90685084     1.59868952

Total System Charge              0.00000

 *** GO1_GOStep20 ***

 Integrated fractional orbital density (NFOD):         1.000

 Energy gradients wrt nuclear displacements
 ==========================================

     Atom      Cartesian (a.u./angstrom)
                 X         Y         Z
 ----------------------------------------
     1 C     0.005018  0.002280  0.002069
     2 C    -0.006985 -0.009726  0.009269
     3 Cl    0.000119  0.000226 -0.001416
     4 H    -0.000901  0.000425  0.000780
     5 H     0.000520 -0.000076  0.000266
     6 N    -0.001652  0.006164 -0.005705
     7 H     0.002038  0.001923  0.005896
     8 H     0.001398 -0.004491 -0.005810
     9 H     0.000446  0.003275 -0.005349
 ----------------------------------------

 dE(predicted):    -0.60147E-03, dE(actual):     0.97777E-05, Trust radius:    0.080000, all in a.u.
 
----------------------------------------------------------------------
Geometry Convergence after Step  20       (Hartree/Angstrom,Angstrom)
----------------------------------------------------------------------
current energy                               -1.61157990 Hartree
energy change                       0.00000978     0.00009000    T
constrained gradient max            0.00969746     0.00010000    F
constrained gradient rms            0.00421169     0.00006667    F
gradient max                        0.00969746
gradient rms                        0.00421169
cart. step max                      0.02237397     0.01000000    F
cart. step rms                      0.00911803     0.00666667    F
 

--------
Geometry
--------
Formula: C2H5ClN
Atoms
  Index Symbol   x (angstrom)   y (angstrom)   z (angstrom)
      1      C    -0.31898482     0.01269283    -0.32283629
      2      C    -0.08245167    -0.02389787     1.04339027
      3     Cl     1.85621410    -0.01390945    -1.26837708
      4      H    -0.58311447    -0.89269780    -0.85919106
      5      H    -0.61834739     0.95143782    -0.77153016
      6      N     0.16962673    -1.16613129     1.73554577
      7      H     0.34141156    -2.02462048     1.21960884
      8      H     0.59010157    -1.12110272     2.65590652
      9      H    -0.00341443     0.89932823     1.61273695

Total System Charge              0.00000

 *** GO1_GOStep21 ***

 Integrated fractional orbital density (NFOD):         1.000

 Energy gradients wrt nuclear displacements
 ==========================================

     Atom      Cartesian (a.u./angstrom)
                 X         Y         Z
 ----------------------------------------
     1 C     0.002857 -0.000051  0.000518
     2 C    -0.004162 -0.002087  0.001447
     3 Cl    0.000036  0.000065 -0.000918
     4 H    -0.000616  0.000350  0.000029
     5 H    -0.000107  0.000170  0.000180
     6 N    -0.000465  0.003241 -0.000287
     7 H     0.000665 -0.000669  0.000330
     8 H     0.001338 -0.001600 -0.000442
     9 H     0.000455  0.000581 -0.000858
 ----------------------------------------

 dE(predicted):    -0.37065E-03, dE(actual):    -0.31162E-03, Trust radius:    0.160000, all in a.u.
 
----------------------------------------------------------------------
Geometry Convergence after Step  21       (Hartree/Angstrom,Angstrom)
----------------------------------------------------------------------
current energy                               -1.61189153 Hartree
energy change                      -0.00031162     0.00009000    F
constrained gradient max            0.00419533     0.00010000    F
constrained gradient rms            0.00137503     0.00006667    F
gradient max                        0.00419533
gradient rms                        0.00137503
cart. step max                      0.03701746     0.01000000    F
cart. step rms                      0.01131048     0.00666667    F
 

--------
Geometry
--------
Formula: C2H5ClN
Atoms
  Index Symbol   x (angstrom)   y (angstrom)   z (angstrom)
      1      C    -0.33647741     0.01648736    -0.31751669
      2      C    -0.06849783    -0.02123603     1.03900314
      3     Cl     1.86709155    -0.03091497    -1.27255907
      4      H    -0.59089804    -0.89067942    -0.85443722
      5      H    -0.62401855     0.95639774    -0.77077716
      6      N     0.16092899    -1.16947189     1.73135807
      7      H     0.37842901    -2.01534347     1.21183062
      8      H     0.56530939    -1.11976209     2.65858167
      9      H    -0.00082593     0.89562205     1.61977042

Total System Charge              0.00000

 *** GO1_GOStep22 ***

 Integrated fractional orbital density (NFOD):         1.000

 Energy gradients wrt nuclear displacements
 ==========================================

     Atom      Cartesian (a.u./angstrom)
                 X         Y         Z
 ----------------------------------------
     1 C    -0.001747 -0.000503  0.002778
     2 C     0.003386 -0.000203 -0.002424
     3 Cl    0.000688 -0.000022 -0.001025
     4 H     0.000132  0.000329  0.000169
     5 H    -0.000348 -0.000054  0.000057
     6 N    -0.003810  0.001625  0.000095
     7 H     0.002042  0.000326  0.000743
     8 H     0.000216 -0.001006 -0.000823
     9 H    -0.000559 -0.000493  0.000429
 ----------------------------------------

 dE(predicted):    -0.10401E-03, dE(actual):     0.31477E-04, Trust radius:    0.040000, all in a.u.
 
----------------------------------------------------------------------
Geometry Convergence after Step  22       (Hartree/Angstrom,Angstrom)
----------------------------------------------------------------------
current energy                               -1.61186005 Hartree
energy change                       0.00003148     0.00009000    T
constrained gradient max            0.00393845     0.00010000    F
constrained gradient rms            0.00142061     0.00006667    F
gradient max                        0.00393845
gradient rms                        0.00142061
cart. step max                      0.01475202     0.01000000    F
cart. step rms                      0.00483045     0.00666667    T
 

--------
Geometry
--------
Formula: C2H5ClN
Atoms
  Index Symbol   x (angstrom)   y (angstrom)   z (angstrom)
      1      C    -0.33634115     0.01559297    -0.32001131
      2      C    -0.06579803    -0.02061140     1.03761094
      3     Cl     1.86420129    -0.02375764    -1.26296057
      4      H    -0.58978038    -0.89339518    -0.85502400
      5      H    -0.62789083     0.95415045    -0.77353539
      6      N     0.17171796    -1.16877338     1.72922196
      7      H     0.36367699    -2.02134219     1.21078510
      8      H     0.56648240    -1.11679263     2.66083509
      9      H     0.00477292     0.89602827     1.61833196

Total System Charge              0.00000

 *** GO1_GOStep23 ***

 Integrated fractional orbital density (NFOD):         1.000

 Energy gradients wrt nuclear displacements
 ==========================================

     Atom      Cartesian (a.u./angstrom)
                 X         Y         Z
 ----------------------------------------
     1 C    -0.002004 -0.000150  0.000681
     2 C     0.003333  0.002163 -0.001957
     3 Cl   -0.000036 -0.000063 -0.000237
     4 H     0.000201 -0.000060  0.000001
     5 H    -0.000214 -0.000010 -0.000065
     6 N    -0.001530 -0.002093  0.000870
     7 H     0.000786 -0.000040 -0.000730
     8 H     0.000011  0.000746  0.000750
     9 H    -0.000546 -0.000493  0.000687
 ----------------------------------------

 dE(predicted):    -0.74064E-04, dE(actual):    -0.50961E-04, Trust radius:    0.040000, all in a.u.
 
----------------------------------------------------------------------
Geometry Convergence after Step  23       (Hartree/Angstrom,Angstrom)
----------------------------------------------------------------------
current energy                               -1.61191101 Hartree
energy change                      -0.00005096     0.00009000    T
constrained gradient max            0.00330227     0.00010000    F
constrained gradient rms            0.00113642     0.00006667    F
gradient max                        0.00330227
gradient rms                        0.00113642
cart. step max                      0.00982624     0.01000000    T
cart. step rms                      0.00324985     0.00666667    T
 

--------
Geometry
--------
Formula: C2H5ClN
Atoms
  Index Symbol   x (angstrom)   y (angstrom)   z (angstrom)
      1      C    -0.33519986     0.01441444    -0.32107733
      2      C    -0.07167553    -0.02214791     1.03908792
      3     Cl     1.86318395    -0.02216024    -1.25556223
      4      H    -0.59062552    -0.89336283    -0.85761357
      5      H    -0.62582218     0.95389007    -0.77338849
      6      N     0.17314724    -1.16805234     1.73013452
      7      H     0.35715739    -2.02207586     1.21144818
      8      H     0.57630865    -1.11722317     2.65813067
      9      H     0.00456702     0.89781711     1.61409411

Total System Charge              0.00000

 *** GO1_GOStep24 ***

 Integrated fractional orbital density (NFOD):         1.000

 Energy gradients wrt nuclear displacements
 ==========================================

     Atom      Cartesian (a.u./angstrom)
                 X         Y         Z
 ----------------------------------------
     1 C    -0.001116  0.000221 -0.000238
     2 C     0.001261  0.000390  0.000180
     3 Cl   -0.000174 -0.000024 -0.000145
     4 H     0.000018 -0.000140 -0.000143
     5 H     0.000038  0.000083 -0.000029
     6 N    -0.000813 -0.001023  0.000403
     7 H     0.000570  0.000009 -0.000588
     8 H     0.000337  0.000317  0.000567
     9 H    -0.000120  0.000165 -0.000007
 ----------------------------------------

 dE(predicted):    -0.35246E-04, dE(actual):    -0.29863E-04, Trust radius:    0.080000, all in a.u.
 
----------------------------------------------------------------------
Geometry Convergence after Step  24       (Hartree/Angstrom,Angstrom)
----------------------------------------------------------------------
current energy                               -1.61194087 Hartree
energy change                      -0.00002986     0.00009000    T
constrained gradient max            0.00122952     0.00010000    F
constrained gradient rms            0.00047863     0.00006667    F
gradient max                        0.00122952
gradient rms                        0.00047863
cart. step max                      0.03015972     0.01000000    F
cart. step rms                      0.00927730     0.00666667    F
 

--------
Geometry
--------
Formula: C2H5ClN
Atoms
  Index Symbol   x (angstrom)   y (angstrom)   z (angstrom)
      1      C    -0.32624315     0.01092855    -0.32354174
      2      C    -0.06641936    -0.02275190     1.03752346
      3     Cl     1.85915676     0.00247951    -1.26319033
      4      H    -0.58036521    -0.89893892    -0.85702587
      5      H    -0.63103746     0.94689944    -0.77353878
      6      N     0.17690637    -1.16503429     1.73085285
      7      H     0.32699767    -2.03134340     1.22407084
      8      H     0.57697019    -1.11852143     2.65894841
      9      H     0.01507537     0.89738172     1.61115495

Total System Charge              0.00000

 *** GO1_GOStep25 ***

 Integrated fractional orbital density (NFOD):         1.000

 Energy gradients wrt nuclear displacements
 ==========================================

     Atom      Cartesian (a.u./angstrom)
                 X         Y         Z
 ----------------------------------------
     1 C     0.000366 -0.000308  0.000017
     2 C     0.000792 -0.000856  0.000537
     3 Cl   -0.000580  0.000004  0.000078
     4 H     0.000075  0.000068 -0.000004
     5 H    -0.000336 -0.000087  0.000297
     6 N    -0.000118  0.001026 -0.000848
     7 H    -0.000022  0.000662  0.000782
     8 H    -0.000155 -0.000239 -0.001161
     9 H    -0.000023 -0.000270  0.000302
 ----------------------------------------

 dE(predicted):    -0.17172E-04, dE(actual):    -0.71579E-05, Trust radius:    0.080000, all in a.u.
 
----------------------------------------------------------------------
Geometry Convergence after Step  25       (Hartree/Angstrom,Angstrom)
----------------------------------------------------------------------
current energy                               -1.61194803 Hartree
energy change                      -0.00000716     0.00009000    T
constrained gradient max            0.00111515     0.00010000    F
constrained gradient rms            0.00049926     0.00006667    F
gradient max                        0.00111515
gradient rms                        0.00049926
cart. step max                      0.00833364     0.01000000    T
cart. step rms                      0.00293785     0.00666667    T
 

--------
Geometry
--------
Formula: C2H5ClN
Atoms
  Index Symbol   x (angstrom)   y (angstrom)   z (angstrom)
      1      C    -0.32936879     0.01190333    -0.32296228
      2      C    -0.06955604    -0.02277658     1.03808880
      3     Cl     1.86103132    -0.00497800    -1.25923186
      4      H    -0.58434680    -0.89701697    -0.85768575
      5      H    -0.62916811     0.94923347    -0.77372567
      6      N     0.17664168    -1.16612369     1.73104535
      7      H     0.33533132    -2.02902330     1.21977593
      8      H     0.57860401    -1.11806319     2.65898597
      9      H     0.01187259     0.89794419     1.61096328

Total System Charge              0.00000

 *** GO1_GOStep26 ***

 Integrated fractional orbital density (NFOD):         1.000

 Energy gradients wrt nuclear displacements
 ==========================================

     Atom      Cartesian (a.u./angstrom)
                 X         Y         Z
 ----------------------------------------
     1 C     0.000094 -0.000047 -0.000116
     2 C     0.000125 -0.000012  0.000050
     3 Cl   -0.000370  0.000009 -0.000009
     4 H    -0.000012  0.000039 -0.000014
     5 H    -0.000193  0.000041  0.000142
     6 N     0.000030 -0.000113  0.000098
     7 H     0.000071  0.000092 -0.000061
     8 H     0.000182 -0.000011 -0.000136
     9 H     0.000073  0.000003  0.000046
 ----------------------------------------

 dE(predicted):    -0.46617E-05, dE(actual):    -0.33078E-05, Trust radius:    0.080000, all in a.u.
 
----------------------------------------------------------------------
Geometry Convergence after Step  26       (Hartree/Angstrom,Angstrom)
----------------------------------------------------------------------
current energy                               -1.61195134 Hartree
energy change                      -0.00000331     0.00009000    T
constrained gradient max            0.00022550     0.00010000    F
constrained gradient rms            0.00008621     0.00006667    F
gradient max                        0.00022550
gradient rms                        0.00008621
cart. step max                      0.00107735     0.01000000    T
cart. step rms                      0.00035372     0.00666667    T
 

--------
Geometry
--------
Formula: C2H5ClN
Atoms
  Index Symbol   x (angstrom)   y (angstrom)   z (angstrom)
      1      C    -0.32961879     0.01200260    -0.32288689
      2      C    -0.06954671    -0.02277483     1.03803121
      3     Cl     1.86127851    -0.00518884    -1.25972259
      4      H    -0.58500686    -0.89688054    -0.85747170
      5      H    -0.62881982     0.94940548    -0.77388035
      6      N     0.17687324    -1.16617505     1.73091802
      7      H     0.33640866    -2.02901171     1.21972611
      8      H     0.57770344    -1.11806881     2.65938143
      9      H     0.01176950     0.89779097     1.61115854

Total System Charge              0.00000

 *** GO1_GOStep27 ***

 Integrated fractional orbital density (NFOD):         1.000

 Energy gradients wrt nuclear displacements
 ==========================================

     Atom      Cartesian (a.u./angstrom)
                 X         Y         Z
 ----------------------------------------
     1 C     0.000065 -0.000036 -0.000037
     2 C     0.000087  0.000066 -0.000081
     3 Cl   -0.000316  0.000025 -0.000039
     4 H    -0.000058  0.000043  0.000017
     5 H    -0.000169  0.000034  0.000109
     6 N     0.000026 -0.000118  0.000110
     7 H     0.000106  0.000025 -0.000079
     8 H     0.000184 -0.000010 -0.000064
     9 H     0.000075 -0.000028  0.000064
 ----------------------------------------
 
----------------------------------------------------------------------
Geometry Convergence after Step  27       (Hartree/Angstrom,Angstrom)
----------------------------------------------------------------------
current energy                               -1.61195162 Hartree
energy change                      -0.00000028     0.00009000    T
constrained gradient max            0.00017162     0.00010000    F
constrained gradient rms            0.00006907     0.00006667    F
gradient max                        0.00017162
gradient rms                        0.00006907
cart. step max                      0.00100653     0.01000000    T
cart. step rms                      0.00038346     0.00666667    T
 

--------
Geometry
--------
Formula: C2H5ClN
Atoms
  Index Symbol   x (angstrom)   y (angstrom)   z (angstrom)
      1      C    -0.32993962     0.01189702    -0.32275827
      2      C    -0.06938454    -0.02280861     1.03796615
      3     Cl     1.86200203    -0.00418231    -1.26056242
      4      H    -0.58540080    -0.89708523    -0.85716373
      5      H    -0.62864837     0.94925831    -0.77413467
      6      N     0.17720366    -1.16614762     1.73090686
      7      H     0.33591733    -2.02941089     1.22010430
      8      H     0.57720663    -1.11813376     2.65976483
      9      H     0.01208486     0.89771237     1.61113072

Total System Charge              0.00000

 *** GO1_GOStep28 ***

 Integrated fractional orbital density (NFOD):         1.000

 Energy gradients wrt nuclear displacements
 ==========================================

     Atom      Cartesian (a.u./angstrom)
                 X         Y         Z
 ----------------------------------------
     1 C     0.000032 -0.000024  0.000059
     2 C     0.000025  0.000137 -0.000157
     3 Cl   -0.000209  0.000050 -0.000100
     4 H    -0.000119  0.000035  0.000047
     5 H    -0.000142  0.000027  0.000072
     6 N     0.000041 -0.000101  0.000095
     7 H     0.000111 -0.000061 -0.000105
     8 H     0.000198 -0.000013  0.000015
     9 H     0.000064 -0.000051  0.000074
 ----------------------------------------
 
----------------------------------------------------------------------
Geometry Convergence after Step  28       (Hartree/Angstrom,Angstrom)
----------------------------------------------------------------------
current energy                               -1.61195140 Hartree
energy change                       0.00000021     0.00009000    T
constrained gradient max            0.00018048     0.00010000    F
constrained gradient rms            0.00006404     0.00006667    T
gradient max                        0.00018048
gradient rms                        0.00006404
cart. step max                      0.00113792     0.01000000    T
cart. step rms                      0.00038875     0.00666667    T
 

--------
Geometry
--------
Formula: C2H5ClN
Atoms
  Index Symbol   x (angstrom)   y (angstrom)   z (angstrom)
      1      C    -0.33021345     0.01172085    -0.32268923
      2      C    -0.06921109    -0.02288238     1.03792133
      3     Cl     1.86250449    -0.00304438    -1.26083250
      4      H    -0.58537646    -0.89739121    -0.85704557
      5      H    -0.62878069     0.94901392    -0.77425946
      6      N     0.17747441    -1.16606686     1.73091305
      7      H     0.33479258    -2.02979311     1.22052341
      8      H     0.57718550    -1.11821335     2.65988219
      9      H     0.01266589     0.89775580     1.61084055

Total System Charge              0.00000

 *** GO1_GOStep29 ***

 Integrated fractional orbital density (NFOD):         1.000

 Energy gradients wrt nuclear displacements
 ==========================================

     Atom      Cartesian (a.u./angstrom)
                 X         Y         Z
 ----------------------------------------
     1 C    -0.000010  0.000005  0.000072
     2 C     0.000009  0.000071 -0.000078
     3 Cl   -0.000154  0.000063 -0.000126
     4 H    -0.000135  0.000018  0.000054
     5 H    -0.000124  0.000018  0.000062
     6 N     0.000071 -0.000059  0.000031
     7 H     0.000091 -0.000051 -0.000082
     8 H     0.000188 -0.000023  0.000010
     9 H     0.000064 -0.000041  0.000058
 ----------------------------------------
 
----------------------------------------------------------------------
Geometry Convergence after Step  29       (Hartree/Angstrom,Angstrom)
----------------------------------------------------------------------
current energy                               -1.61195124 Hartree
energy change                       0.00000017     0.00009000    T
constrained gradient max            0.00010134     0.00010000    F
constrained gradient rms            0.00003685     0.00006667    T
gradient max                        0.00010134
gradient rms                        0.00003685
cart. step max                      0.00080067     0.01000000    T
cart. step rms                      0.00024048     0.00666667    T
 

--------
Geometry
--------
Formula: C2H5ClN
Atoms
  Index Symbol   x (angstrom)   y (angstrom)   z (angstrom)
      1      C    -0.33044260     0.01161082    -0.32265546
      2      C    -0.06913624    -0.02293155     1.03789315
      3     Cl     1.86277913    -0.00250914    -1.26067727
      4      H    -0.58522471    -0.89756627    -0.85708772
      5      H    -0.62897473     0.94888591    -0.77425738
      6      N     0.17758428    -1.16600504     1.73091848
      7      H     0.33399191    -2.02997736     1.22072818
      8      H     0.57746247    -1.11822448     2.65978914
      9      H     0.01300166     0.89781636     1.61060265

Total System Charge              0.00000

 *** GO1_GOStep30 ***

 Integrated fractional orbital density (NFOD):         1.000

 Energy gradients wrt nuclear displacements
 ==========================================

     Atom      Cartesian (a.u./angstrom)
                 X         Y         Z
 ----------------------------------------
     1 C    -0.000051  0.000019  0.000053
     2 C     0.000025  0.000005  0.000003
     3 Cl   -0.000140  0.000063 -0.000128
     4 H    -0.000121  0.000009  0.000050
     5 H    -0.000115  0.000014  0.000069
     6 N     0.000090 -0.000031 -0.000005
     7 H     0.000073 -0.000022 -0.000060
     8 H     0.000176 -0.000030 -0.000024
     9 H     0.000063 -0.000027  0.000042
 ----------------------------------------
 
---------------------------------------------------------
Geometry Convergence after Step  30       ** CONVERGED **
---------------------------------------------------------
current energy                               -1.61195118 Hartree
energy change                       0.00000006     0.00009000    T
constrained gradient max            0.00002202     0.00010000    T
constrained gradient rms            0.00001128     0.00006667    T
gradient max                        0.00002202
gradient rms                        0.00001128
cart. step max                      0.00016479     0.01000000    T
cart. step rms                      0.00006565     0.00666667    T
 
Geometry optimization converged

Optimized geometry:

--------
Geometry
--------
Formula: C2H5ClN
Atoms
  Index Symbol   x (angstrom)   y (angstrom)   z (angstrom)
      1      C    -0.33044260     0.01161082    -0.32265546
      2      C    -0.06913624    -0.02293155     1.03789315
      3     Cl     1.86277913    -0.00250914    -1.26067727
      4      H    -0.58522471    -0.89756627    -0.85708772
      5      H    -0.62897473     0.94888591    -0.77425738
      6      N     0.17758428    -1.16600504     1.73091848
      7      H     0.33399191    -2.02997736     1.22072818
      8      H     0.57746247    -1.11822448     2.65978914
      9      H     0.01300166     0.89781636     1.61060265

Total System Charge              0.00000

Performing a single point calculation on the final geometry ...

 *** adf ***



 ===========================
 A T T A C H E D   F I L E S
 ===========================
  
 Restart/tmp/amstmp_c5_fragB_opt_kid0.1953236129/GO1_GOStep30.rkf*** GO1_GOStep30 ***



 ===============================
 M O D E L   P A R A M E T E R S
 ===============================
  
 DENSITY FUNCTIONAL POTENTIAL (scf)
    LDA:                               Exchange only                           == Not Default ==
    Gradient Corrections:              Becke88 LYP                             == Not Default ==

 SPIN  (restricted / unrestr.)
    Molecule:                          Restricted                               
    Fragments:                         Restricted                               

 OTHER ASPECTS
    Relativistic Corrections:          scalar (ZORA,MAPA)                       

    Nuclear Charge Density Model:      Point Charge Nuclei                      
    Core Treatment:                    Frozen Orbital(s)                        

    Hyperfine or Zeeman Interaction:   ---                                      

 Settings for Grimme D3 dispersion correction

      damping                        BJ
      s6                          1.000
      s8                          2.700
      a1                          0.430
      a2                          4.236

 Other (technical) parameters

      alpha                      14.000
      version                         4
 



 ===============
 G E O M E T R Y  ***  3D  Molecule  ***
 ===============
  

 ATOMS
 =====                            X Y Z                    CHARGE
                                (Angstrom)             Nucl     +Core       At.Mass
                       --------------------------    ----------------       -------
    1  C              -0.3304    0.0116   -0.3227      6.00      6.00       12.0000
    2  C              -0.0691   -0.0229    1.0379      6.00      6.00       12.0000
    3  Cl              1.8628   -0.0025   -1.2607     17.00     17.00       34.9689
    4  H              -0.5852   -0.8976   -0.8571      1.00      1.00        1.0078
    5  H              -0.6290    0.9489   -0.7743      1.00      1.00        1.0078
    6  N               0.1776   -1.1660    1.7309      7.00      7.00       14.0031
    7  H               0.3340   -2.0300    1.2207      1.00      1.00        1.0078
    8  H               0.5775   -1.1182    2.6598      1.00      1.00        1.0078
    9  H               0.0130    0.8978    1.6106      1.00      1.00        1.0078


 FRAGMENTS
 =========                                     Atoms in this Fragment     Cart. coord.s (Angstrom)
                                               -------------------------------------------------------
    1  C                                                 1  C           -0.3304    0.0116   -0.3227
    2  C                                                 2  C           -0.0691   -0.0229    1.0379
    3  Cl                                                3  Cl           1.8628   -0.0025   -1.2607
    4  H                                                 4  H           -0.5852   -0.8976   -0.8571
    5  H                                                 5  H           -0.6290    0.9489   -0.7743
    6  H                                                 7  H            0.3340   -2.0300    1.2207
    7  H                                                 8  H            0.5775   -1.1182    2.6598
    8  H                                                 9  H            0.0130    0.8978    1.6106
    9  N                                                 6  N            0.1776   -1.1660    1.7309


 Interatomic Distance Matrix (Angstrom)
 --------------------------------------

   1)     0.000
   2)     1.386   0.000
   3)     2.385   3.003   0.000
   4)     1.085   2.150   2.638   0.000
   5)     1.082   2.131   2.711   1.849   0.000
   6)     2.421   1.359   3.625   2.711   3.376   0.000
   7)     2.644   2.055   3.550   2.539   3.712   1.015   0.000
   8)     3.316   2.061   4.274   3.711   4.186   1.012   1.721   0.000
   9)     2.154   1.087   3.532   3.110   2.470   2.074   2.971   2.342   0.000

 Min. Distance =    1.0124
 Max. Distance =    4.2740



 =====================================
 S Y M M E T R Y ,   E L E C T R O N S
 =====================================
  
 Symmetry: NOSYM

 Irreducible Representations, including subspecies
 -------------------------------------------------
 A


 Configuration of Valence Electrons
 ==================================
 ( determined in the SCF procedure )

 Total:   41

 ===============
 W A R N I N G :
 ===============

 The number of electrons does not correspond to doubly occupied orbitals,
 i.e. there would be one orbital with 0.5-alpha and 0.5-beta electrons.

 Normally, this corresponds to a doublet that should be treated within
 the UNRESTRICTED framework. For example, for a doublet:

   CHARGE   0.0 1.0
   Unrestricted

 See the online manual (http://www.scm.com) for more information on
 how to use the UNRESTRICTED framework.

 If you are definitely certain that for this job the restricted open-shell
 is appropriate, you can overcome this warning by placing on input:
   ALLOW ROKS

 In case of doubt, contact support@scm.com with this problem.

 Net Charge: 0 (Nuclei minus Electrons)

 Aufbau principle for MO occupations will be applied through SCF cycle no.     100
 Thereafter, the program will assign electrons to MOs that are spatially
 similar to the occupied MOs in a "reference" cycle ("KeepOrbitals").
 The reference cycle is always the PREVIOUS cycle: it will evolve with
 the SCF procedure.
 ***************************************************************************************************



                                      ****************************************
                                      *  B U I L D : (Fragments, Functions)  *
                                      ****************************************
  



 =======
 S F O s  ***  (Symmetrized Fragment Orbitals)  ***
 =======
  
 SFOs are linear combinations of (valence) Fragment Orbitals (FOs), such that the SFOs transform as the
 irreducible representations of the (molecular) symmetry group. Each SFO is therefore characterized by
 an irrep of the molecule and by a few (or only one) generating FOs.
 The SFOs constitute a symmetry-adapted basis for the Fock matrix. The MO eigenvector coefficients in
 this basis provide a direct interpretation of the MOs in terms of Frontier Orbital Theory.

 The SFOs are combined with auxiliary Core Functions (CFs) to ensure orthogonalization on the (frozen)
 Core Orbitals (COs). The Core-orthogonalized SFOs (CSFOs) constitute the true Fock basis.

 The FOs, and hence also the (C)SFOs are combinations of the elementary basis functions (BAS). The basis
 functions that participate in the description of the SFOs depend on the irrep. The indices of the
 involved functions are printed below for each irrep.
 (The complete list of primitive basis functions is printed in another section)

 Total nr. of (C)SFOs (summation over all irreps) :   167

 NOTE: a (C)SFO that is defined as a combination of more than one FO is usually NOT normalized.



                                       === A ===
 Nr. of SFOs :  167
 Cartesian basis functions that participate in this irrep (total number =   188) :
      1     2     3     4     5     6     9    12     7    10
     13     8    11    14    15    16    17    18    19    20
     21    22    23    24    25    26    27    28    29    30
     31    32    33    34    35    36    39    42    37    40
     43    38    41    44    45    46    47    48    49    50
     51    52    53    54    55    56    57    58    59    60
     61    62    63    64    71    72    73    65    68    74
     77    80    66    69    75    78    81    67    70    76
     79    82    83    84    85    86    87    88    89    90
     91    92    93    94    95    96    97    98    99   100
    101   102   103   104   105   106   107   108   109   110
    111   112   113   114   115   116   117   118   119   120
    121   122   123   124   125   126   127   128   129   130
    131   132   133   134   135   136   137   138   139   140
[...]
                                   -3.51%     2 P:y             4.589  0.00     2 C
                                   -2.93%     3 S              10.158  0.00     2 C
                                    2.48%     1 P:x            -5.239  0.67     2 C
                                   -2.27%     4 S               5.292  0.00     3 Cl
                                    1.81%     3 S              40.869  0.00     7 H
                                   -1.63%     2 P:x             7.649  0.00     9 N
                                   -1.60%     1 P:z            -5.239  0.67     2 C
                                   -1.41%     3 P:x             6.147  0.00     3 Cl
                                    1.23%     1 P:y            11.051  0.00     5 H
                                   -1.05%     3 S              40.869  0.00     5 H
       1.443  0.00    26 A         23.42%     1 S              -6.532  1.00     6 H
                                   22.14%     1 S              -6.532  1.00     8 H
                                   17.75%     1 S              -6.532  1.00     7 H
                                   16.29%     2 S               2.394  0.00     8 H
                                   11.77%     1 S              -6.532  1.00     4 H
                                   -8.69%     2 P:z             7.649  0.00     9 N
                                    7.96%     2 S               2.394  0.00     5 H
                                    7.85%     2 S               2.394  0.00     4 H
                                    6.07%     1 S              -6.532  1.00     5 H
                                   -5.86%     2 S               2.394  0.00     7 H
                                   -5.10%     2 P:y             4.589  0.00     2 C
                                   -4.42%     2 P:z             4.589  0.00     2 C
                                   -4.35%     3 S              10.158  0.00     2 C
                                    4.00%     2 S             -13.620  2.00     2 C
                                   -3.81%     2 P:z             4.589  0.00     1 C
                                    3.64%     1 P:z            -7.062  1.00     9 N
                                    3.48%     1 P:y            -7.062  1.00     9 N
                                    3.06%     2 S             -13.620  2.00     1 C
                                   -2.96%     2 P:y             7.649  0.00     9 N
                                    2.82%     2 S               2.394  0.00     6 H
                                   -2.67%     3 S              10.158  0.00     1 C
                                    2.10%     3 S              40.869  0.00     7 H
                                   -2.01%     2 P:x             4.589  0.00     1 C
                                    1.95%     3 S              40.869  0.00     8 H
                                    1.74%     3 S              40.869  0.00     6 H
                                    1.31%     1 P:y            -5.239  0.67     2 C
                                   -1.10%     1 P:z            -5.239  0.67     1 C
                                    1.06%     1 P:z            11.051  0.00     4 H
       1.754  0.00    27 A        -50.36%     2 P:y             4.589  0.00     1 C
                                   41.57%     1 S              -6.532  1.00     5 H
                                   38.42%     1 S              -6.532  1.00     4 H
                                   17.06%     2 S               2.394  0.00     4 H
                                   15.24%     2 S               2.394  0.00     5 H
                                   11.38%     1 P:y            -5.239  0.67     1 C
                                    5.89%     2 S               2.394  0.00     8 H
                                    4.24%     1 S              -6.532  1.00     6 H
                                    4.08%     1 S              -6.532  1.00     8 H
                                    3.41%     3 S              40.869  0.00     5 H
                                   -3.23%     2 S               2.394  0.00     6 H
                                    3.11%     3 S              40.869  0.00     4 H
                                   -2.42%     3 S              10.158  0.00     2 C
                                    2.32%     2 S             -13.620  2.00     2 C
                                    2.26%     2 P:y             4.589  0.00     2 C
                                    1.47%     1 P:z            -7.062  1.00     9 N
                                   -1.21%     1 P:y            -5.239  0.67     2 C
       3.538  0.00    28 A         26.63%     2 P:x             4.589  0.00     1 C
                                   17.31%     2 P:z             4.589  0.00     1 C
                                   14.83%     2 P:x             4.589  0.00     2 C
                                   13.02%     2 P:z             4.589  0.00     2 C
                                   12.78%     2 P:y             4.589  0.00     2 C
                                   12.34%     1 P:z            -5.239  0.67     2 C
                                    5.72%     1 P:y            -5.239  0.67     2 C
                                    5.29%     2 S               2.394  0.00     4 H
                                   -4.90%     4 S               5.292  0.00     3 Cl
                                    4.74%     2 S             -13.620  2.00     1 C
                                   -4.26%     3 S              14.073  0.00     9 N
                                   -3.81%     2 P:y             7.649  0.00     9 N
                                   -1.92%     2 S               2.394  0.00     7 H
                                   -1.89%     2 P:x             7.649  0.00     9 N
                                   -1.80%     2 P:y             4.589  0.00     1 C
                                    1.78%     3 P:x             6.147  0.00     3 Cl
                                   -1.62%     1 P:x            -5.239  0.67     2 C
                                    1.23%     1 S              -6.532  1.00     8 H
                                   -1.15%     1 P:y            -5.239  0.67     1 C
                                   -1.14%     1 S              -6.532  1.00     4 H
                                    1.12%     1 P:y            -7.062  1.00     9 N
                                    1.12%     2 S               2.394  0.00     5 H
                                    1.01%     1 P:z            -5.239  0.67     1 C
       3.802  0.00    29 A         17.06%     2 S               2.394  0.00     6 H
                                   14.95%     2 S               2.394  0.00     8 H
                                  -12.46%     2 S               2.394  0.00     5 H
                                   10.58%     1 S              -6.532  1.00     5 H
                                   10.49%     1 P:z            -5.239  0.67     1 C
                                    9.67%     1 S              -6.532  1.00     7 H
                                    9.02%     2 S               2.394  0.00     7 H
                                    7.28%     2 P:y             4.589  0.00     1 C
                                    5.73%     1 P:y            -5.239  0.67     1 C
                                    5.63%     2 S             -18.450  2.00     9 N
                                    5.12%     1 P:z            -5.239  0.67     2 C
                                    4.57%     1 P:z            11.051  0.00     6 H
                                   -4.45%     3 S              14.073  0.00     9 N
                                    3.95%     1 P:y            11.051  0.00     7 H
                                   -3.79%     2 P:z             4.589  0.00     1 C
                                    3.69%     2 P:z             7.649  0.00     9 N
                                   -3.54%     3 S              10.158  0.00     2 C
                                    2.81%     2 S             -13.620  2.00     2 C
                                    2.71%     2 P:x             4.589  0.00     1 C
                                    2.69%     2 P:y             7.649  0.00     9 N
                                    2.61%     2 P:x             4.589  0.00     2 C
                                    2.45%     1 P:z            -7.062  1.00     9 N
                                   -1.93%     2 P:y             4.589  0.00     2 C
                                   -1.83%     3 S              40.869  0.00     5 H
                                    1.79%     1 P:y            -7.062  1.00     9 N
                                   -1.63%     1 P:y            -5.239  0.67     2 C
                                    1.62%     1 P:x            -7.062  1.00     9 N
                                    1.54%     1 S              -6.532  1.00     6 H
                                   -1.35%     1 S              -6.532  1.00     8 H
                                    1.17%     1 P:z            11.051  0.00     4 H
                                   -1.10%     2 S               2.394  0.00     4 H
                                    1.07%     1 P:y            11.051  0.00     4 H
       4.072  0.00    30 A         34.83%     2 P:z             4.589  0.00     1 C
                                   16.88%     1 P:z            -5.239  0.67     1 C
                                   15.04%     1 P:y            -5.239  0.67     2 C
                                    8.98%     2 P:x             4.589  0.00     2 C
                                   -7.69%     3 S              10.158  0.00     2 C
                                    6.74%     2 S             -13.620  2.00     2 C
                                    5.18%     2 S               2.394  0.00     4 H
                                    4.87%     1 P:z            -7.062  1.00     9 N
                                    4.02%     2 P:z             4.589  0.00     2 C
                                    3.67%     1 S              -6.532  1.00     4 H
                                    3.31%     1 P:z            11.051  0.00     5 H
                                    2.90%     1 P:z            11.051  0.00     8 H
                                   -2.89%     3 S              14.073  0.00     9 N
                                   -2.84%     2 P:y             7.649  0.00     9 N
                                    2.60%     2 S             -18.450  2.00     9 N
                                    2.50%     1 S              -6.532  1.00     8 H
                                   -2.33%     2 P:y             4.589  0.00     2 C
                                    2.20%     1 S              -6.532  1.00     7 H
                                   -2.08%     2 P:x             4.589  0.00     1 C
                                   -1.82%     2 S               2.394  0.00     5 H
                                   -1.72%     2 P:y             4.589  0.00     1 C
                                   -1.54%     2 P:z             7.649  0.00     9 N
                                    1.41%     1 P:y            -7.062  1.00     9 N
                                   -1.26%     3 S              10.158  0.00     1 C
                                    1.18%     1 P:x            -5.239  0.67     1 C
                                    1.07%     2 P:x             7.649  0.00     9 N
                                   -1.07%     1 P:y            -5.239  0.67     1 C
                                    1.05%     2 S               2.394  0.00     6 H
                                   -1.01%     3 S              40.869  0.00     4 H

 Energy gradients wrt nuclear displacements
 ==========================================

     Atom      Cartesian (a.u./angstrom)
                 X         Y         Z
 ----------------------------------------
     1 C    -0.000051  0.000019  0.000053
     2 C     0.000025  0.000005  0.000003
     3 Cl   -0.000140  0.000063 -0.000128
     4 H    -0.000121  0.000009  0.000050
     5 H    -0.000115  0.000014  0.000069
     6 N     0.000090 -0.000031 -0.000005
     7 H     0.000073 -0.000022 -0.000060
     8 H     0.000176 -0.000030 -0.000024
     9 H     0.000063 -0.000027  0.000042
 ----------------------------------------



 =======================================================================
 Electrostatic potential at the Nuclei due to electrons and other nuclei
 =======================================================================
  
         Atom                  Potential
         ----                  ---------
     1)   C                  14.75643235
     2)   C                  14.71499022
     3)   Cl                 64.93906447
     4)   H                   1.08390146
     5)   H                   1.08680446
     6)   N                  18.34871488
     7)   H                   0.98226022
     8)   H                   0.98033380
     9)   H                   1.06304577
 Mulliken charges used for AMS results%charges...


    =====================
     CALCULATION RESULTS
    =====================

Energy (hartree)            -1.61195118

Gradients (hartree/bohr)
  Index   Atom            d/dx            d/dy            d/dz
      1      C   -0.0000271853    0.0000098571    0.0000279172
      2      C    0.0000132083    0.0000025151    0.0000014719
      3     Cl   -0.0000741170    0.0000335070   -0.0000676520
      4      H   -0.0000642624    0.0000049840    0.0000262728
      5      H   -0.0000606013    0.0000071659    0.0000367648
      6      N    0.0000478270   -0.0000163644   -0.0000023958
      7      H    0.0000388321   -0.0000115765   -0.0000315983
      8      H    0.0000931117   -0.0000158553   -0.0000128307
      9      H    0.0000331869   -0.0000142329    0.0000220500


--------------
Atomic charges
--------------
  Index   Atom    Charge
      1      C    0.3914
      2      C    0.4296
      3     Cl   -0.4072
      4      H   -0.1337
      5      H   -0.1618
      6      N    0.1493
      7      H   -0.0444
      8      H   -0.0521
      9      H   -0.1709


Dipole moment vector    (Debye):    -3.03565048   -1.40494020    4.65323504
              magnitude (Debye):     5.73076148


-----------------------
Molecular orbitals info
-----------------------
n orbitals:              167
n spin:                    1

Note: only printing virtual orbitals with
      energy smaller than HOMO + 100. eV

Note: fractional orbital occupations. HOMO and LUMO labels are not well defined!

HOMO (eV):              -5.7583
LUMO (eV):              -4.3936
HOMO-LUMO gap (eV):      1.3647

   Index   Energy (eV)    Occupation
     116       94.1686         0.000       
     115       92.4358         0.000       
     114       90.8434         0.000       
     113       89.2501         0.000       
     112       86.9681         0.000       
     111       85.4063         0.000       
     110       83.3414         0.000       
     109       82.2470         0.000       
     108       81.5034         0.000       
     107       80.0234         0.000       
     106       78.0423         0.000       
     105       76.3254         0.000       
     104       75.4406         0.000       
     103       74.1227         0.000       
     102       73.1351         0.000       
     101       71.3910         0.000       
     100       70.7845         0.000       
      99       69.7479         0.000       
      98       68.9407         0.000       
      97       67.3123         0.000       
      96       66.6787         0.000       
      95       64.9113         0.000       
      94       62.3086         0.000       
      93       62.1730         0.000       
      92       61.7674         0.000       
      91       60.6522         0.000       
      90       59.0661         0.000       
      89       57.8944         0.000       
      88       55.8771         0.000       
      87       53.9633         0.000       
      86       53.0201         0.000       
      85       51.9223         0.000       
      84       49.8259         0.000       
      83       48.1118         0.000       
      82       45.4084         0.000       
      81       44.6130         0.000       
      80       42.0175         0.000       
      79       40.0303         0.000       
      78       39.0874         0.000       
      77       38.5757         0.000       
      76       37.8089         0.000       
      75       37.0135         0.000       
      74       36.7153         0.000       
      73       35.9861         0.000       
      72       35.6766         0.000       
      71       35.2761         0.000       
      70       34.7640         0.000       
      69       34.2420         0.000       
      68       33.0093         0.000       
      67       32.5222         0.000       
      66       31.0844         0.000       
      65       30.5474         0.000       
      64       29.5577         0.000       
      63       29.0184         0.000       
      62       28.4906         0.000       
      61       27.4944         0.000       
      60       26.6985         0.000       
      59       26.3092         0.000       
      58       25.6893         0.000       
      57       22.3252         0.000       
      56       21.8252         0.000       
      55       20.1386         0.000       
      54       18.2630         0.000       
      53       17.9103         0.000       
      52       16.5279         0.000       
      51       14.9078         0.000       
      50       13.9273         0.000       
      49       13.7105         0.000       
      48       13.4539         0.000       
      47       12.6141         0.000       
      46       12.4236         0.000       
      45       11.9214         0.000       
      44       11.4875         0.000       
      43       10.6933         0.000       
      42       10.3493         0.000       
      41        9.8381         0.000       
      40        9.7501         0.000       
      39        9.0980         0.000       
      38        8.7700         0.000       
      37        7.8434         0.000       
      36        7.3368         0.000       
      35        6.6136         0.000       
      34        6.4795         0.000       
      33        6.0590         0.000       
      32        5.6266         0.000       
      31        4.9686         0.000       
      30        4.0716         0.000       
      29        3.8024         0.000       
      28        3.5383         0.000       
      27        1.7543         0.000       
      26        1.4429         0.000       
      25        0.4318         0.000       
      24       -0.1198         0.000       
      23       -0.8974         0.000       
      22       -0.9831         0.000       
      21       -4.3936         1.000 < LUMO
      20       -5.7583         2.000 < HOMO
      19       -5.7867         2.000       
      18       -7.2029         2.000       
      17       -9.6088         2.000       
      16      -10.0065         2.000       
      15      -10.8983         2.000       
      14      -12.6424         2.000       
      13      -14.2557         2.000       
      12      -15.5884         2.000       
      11      -17.7176         2.000       
      10      -19.1643         2.000       
       9      -23.9632         2.000       
       8     -188.1998         2.000       
       7     -188.2065         2.000       
       6     -188.4176         2.000       
       5     -249.2176         2.000       
       4     -270.9301         2.000       
       3     -272.0232         2.000       
       2     -383.2814         2.000       
       1    -2748.5051         2.000       

AMS application finished. Exiting.
NORMAL TERMINATION
     Total cpu time:     439.58
  Total system time:       2.94
 Total elapsed time:     443.81
NORMAL TERMINATION with warnings
