
 *******************************************************************************
 *                                                                             *
 *  --------------------------------                                           *
 *   Amsterdam Modeling Suite (AMS)              2026.103                      *
 *  --------------------------------                                           *
 *                                               r260501 2026-05-01 873454b5   *
 *                                                                             *
 *                                                                             *
 *                              =================                              *
 *                              |               |                              *
 *                              |     A M S     |                              *
 *                              |               |                              *
 *                              =================                              *
 *                                                                             *
 *                                                                             *
 *   Online information and documentation:  https://www.scm.com/support/       *
 *   E-mail:  support@scm.com   info@scm.com                                   *
 *                                                                             *
 *   Scientific publications using AMS results must be properly referenced     *
 *   See the User Manuals (or the web site) for recommended citations          *
 *   The terms and conditions of the End User License Agreement apply to       *
 *   the use of AMS, https://www.scm.com/license-terms/                        *
 *                                                                             *
 **********************  x86_64_linux_intel / intelmpi  ************************
 
 Licensed to: Jong-June Jeon / University of Seoul 2026-06-02 13:44:15
 SCM User ID: u30731
  
 AMS 2026.103  RunTime: Jun04-2026 01:41:20  ShM Nodes: 1  Procs: 1

 AMS jobname: c2_fragB_ts
 AMS jobid  : 245550281

 Start   directory: /gpfs/home1/yeseo1ee/projects/eda-asm-prediction/ADF_800/adf_outputs/batch_006/qmrxn20_sn2_B_E_A_A_C_D/
 Results directory: /gpfs/home1/yeseo1ee/projects/eda-asm-prediction/ADF_800/adf_outputs/batch_006/qmrxn20_sn2_B_E_A_A_C_D/c2_fragB_ts.results/
 Scratch directory: /tmp/amstmp_c2_fragB_ts_kid0.245550281/

 RNG seed: 1248807475 -1634280453 658797734 -951460549 -678518609 -899593030 -1893545145 2042283761



                      ************************************************************************
                      *  ADF 2026.103  RunTime: Jun04-2026 01:41:20  ShM Nodes: 1  Procs: 1  *
                      ************************************************************************
  

       ****************************
       * SINGLE POINT CALCULATION *
       ****************************

--------
Geometry
--------
Formula: C2H5BrN2O2
Atoms
  Index Symbol   x (angstrom)   y (angstrom)   z (angstrom)
      1      C     0.67768402    -0.05462338     0.00362075
      2      H     1.76644606     1.64986707    -0.50535689
      3     Br     3.65181830    -0.44444942     0.16882571
      4      C     0.84653845     1.40790745     0.02092165
      5      H     0.91313805     1.75576704     1.05107771
      6      H    -0.02121168     1.84916752    -0.46515613
      7      N     0.64856539    -0.75974114    -1.30723987
      8      O     0.76740752    -0.05638024    -2.29951430
      9      O     0.51269457    -1.97727256    -1.27293575
     10      N     0.55624329    -0.83388989     1.01025275
     11      H     0.56651399    -0.47340497     1.95003838
     12      H     0.44775479    -1.82558729     0.83514030

Total System Charge              0.00000


----------------
ADF Engine Input
----------------
 
   Basis
     Type TZ2P
     Core None
   End
   XC
     GGA BLYP
     Dispersion GRIMME3 BJDAMP
   End
   Symmetry NOSYM
   NumericalQuality Normal
   Unrestricted No
   SCF
     Iterations 200
     Converge 1.0e-6
   End
   Save TAPE21
 

 Title: *** (NO TITLE) ***

 *** adf ***



 ===========================
 A T T A C H E D   F I L E S
 ===========================
  



 ===============================
 M O D E L   P A R A M E T E R S
 ===============================
  
 DENSITY FUNCTIONAL POTENTIAL (scf)
    LDA:                               Exchange only                           == Not Default ==
    Gradient Corrections:              Becke88 LYP                             == Not Default ==

 SPIN  (restricted / unrestr.)
    Molecule:                          Restricted                               
    Fragments:                         Restricted                               

 OTHER ASPECTS
    Relativistic Corrections:          scalar (ZORA,MAPA)                       

    Nuclear Charge Density Model:      Point Charge Nuclei                      
    Core Treatment:                    Frozen Orbital(s)                        

    Hyperfine or Zeeman Interaction:   ---                                      

 Settings for Grimme D3 dispersion correction

      damping                        BJ
      s6                          1.000
      s8                          2.700
      a1                          0.430
      a2                          4.236

 Other (technical) parameters

      alpha                      14.000
      version                         4
 


 Fragment File(s)
 ----------------
 C:
         file : /gpfs/home1/yeseo1ee/projects/eda-asm-prediction/ADF_800/adf_outputs/batch_006/qmrxn20_sn2_B_E_A_A_C_D/c2_fragB_ts.results/t21.50BA88D5.C
         jobid: 0
         title: Carbon (TZ2P)
 H:
         file : /gpfs/home1/yeseo1ee/projects/eda-asm-prediction/ADF_800/adf_outputs/batch_006/qmrxn20_sn2_B_E_A_A_C_D/c2_fragB_ts.results/t21.6F35CCAB.H
         jobid: 0
         title: Hydrogen (TZ2P)
 Br:
         file : /gpfs/home1/yeseo1ee/projects/eda-asm-prediction/ADF_800/adf_outputs/batch_006/qmrxn20_sn2_B_E_A_A_C_D/c2_fragB_ts.results/t21.42F58B50.Br
         jobid: 0
         title: Bromine (TZ2P)
 N:
         file : /gpfs/home1/yeseo1ee/projects/eda-asm-prediction/ADF_800/adf_outputs/batch_006/qmrxn20_sn2_B_E_A_A_C_D/c2_fragB_ts.results/t21.44EAA48D.N
         jobid: 0
         title: Nitrogen (TZ2P)
 O:
         file : /gpfs/home1/yeseo1ee/projects/eda-asm-prediction/ADF_800/adf_outputs/batch_006/qmrxn20_sn2_B_E_A_A_C_D/c2_fragB_ts.results/t21.6E90ABAE.O
         jobid: 0
         title: Oxygen (TZ2P)



 ===============
 G E O M E T R Y  ***  3D  Molecule  ***
 ===============
  

 ATOMS
 =====                            X Y Z                    CHARGE
                                (Angstrom)             Nucl     +Core       At.Mass
                       --------------------------    ----------------       -------
    1  C               0.6777   -0.0546    0.0036      6.00      6.00       12.0000
    2  H               1.7664    1.6499   -0.5054      1.00      1.00        1.0078
    3  Br              3.6518   -0.4444    0.1688     35.00     35.00       78.9183
    4  C               0.8465    1.4079    0.0209      6.00      6.00       12.0000
    5  H               0.9131    1.7558    1.0511      1.00      1.00        1.0078
    6  H              -0.0212    1.8492   -0.4652      1.00      1.00        1.0078
    7  N               0.6486   -0.7597   -1.3072      7.00      7.00       14.0031
    8  O               0.7674   -0.0564   -2.2995      8.00      8.00       15.9949
    9  O               0.5127   -1.9773   -1.2729      8.00      8.00       15.9949
   10  N               0.5562   -0.8339    1.0103      7.00      7.00       14.0031
   11  H               0.5665   -0.4734    1.9500      1.00      1.00        1.0078
   12  H               0.4478   -1.8256    0.8351      1.00      1.00        1.0078


 FRAGMENTS
 =========                                     Atoms in this Fragment     Cart. coord.s (Angstrom)
                                               -------------------------------------------------------
    1  C                                                 1  C            0.6777   -0.0546    0.0036
    2  C                                                 4  C            0.8465    1.4079    0.0209
    3  H                                                 2  H            1.7664    1.6499   -0.5054
    4  H                                                 5  H            0.9131    1.7558    1.0511
    5  H                                                 6  H           -0.0212    1.8492   -0.4652
    6  H                                                11  H            0.5665   -0.4734    1.9500
    7  H                                                12  H            0.4478   -1.8256    0.8351
    8  Br                                                3  Br           3.6518   -0.4444    0.1688
    9  N                                                 7  N            0.6486   -0.7597   -1.3072
   10  N                                                10  N            0.5562   -0.8339    1.0103
   11  O                                                 8  O            0.7674   -0.0564   -2.2995
   12  O                                                 9  O            0.5127   -1.9773   -1.2729


 Interatomic Distance Matrix (Angstrom)
 --------------------------------------

   1)     0.000
   2)     2.086   0.000
   3)     3.004   2.897   0.000
   4)     1.472   1.087   3.365   0.000
   5)     2.105   1.778   3.622   1.089   0.000
   6)     2.081   1.799   4.377   1.088   1.783   0.000
   7)     1.489   2.775   3.361   2.550   3.458   2.822   0.000
   8)     2.305   2.670   3.816   2.745   3.812   2.760   1.222   0.000
   9)     2.314   3.914   3.779   3.639   4.416   3.947   1.226   2.193   0.000
  10)     1.279   3.151   3.231   2.468   2.614   3.116   2.321   3.406   2.554   0.000
  11)     1.994   3.461   3.563   2.709   2.428   3.402   3.271   4.275   3.557   1.007
          0.000
  12)     1.970   3.952   3.552   3.358   3.618   3.926   2.401   3.614   2.115   1.013
          1.757   0.000

 Min. Distance =    1.0066
 Max. Distance =    4.4155



 =====================================
 S Y M M E T R Y ,   E L E C T R O N S
 =====================================
  
 Symmetry: NOSYM

 Irreducible Representations, including subspecies
 -------------------------------------------------
 A


 Configuration of Valence Electrons
 ==================================
 ( determined in the SCF procedure )

 Total:   82

 Net Charge: 0 (Nuclei minus Electrons)

 Aufbau principle for MO occupations will be applied through SCF cycle no.     100
 Thereafter, the program will assign electrons to MOs that are spatially
 similar to the occupied MOs in a "reference" cycle ("KeepOrbitals").
 The reference cycle is always the PREVIOUS cycle: it will evolve with
 the SCF procedure.
 ***************************************************************************************************



                                      ****************************************
                                      *  B U I L D : (Fragments, Functions)  *
                                      ****************************************
  



 =======
 S F O s  ***  (Symmetrized Fragment Orbitals)  ***
 =======
  
 SFOs are linear combinations of (valence) Fragment Orbitals (FOs), such that the SFOs transform as the
 irreducible representations of the (molecular) symmetry group. Each SFO is therefore characterized by
 an irrep of the molecule and by a few (or only one) generating FOs.
 The SFOs constitute a symmetry-adapted basis for the Fock matrix. The MO eigenvector coefficients in
 this basis provide a direct interpretation of the MOs in terms of Frontier Orbital Theory.

 The SFOs are combined with auxiliary Core Functions (CFs) to ensure orthogonalization on the (frozen)
 Core Orbitals (COs). The Core-orthogonalized SFOs (CSFOs) constitute the true Fock basis.

 The FOs, and hence also the (C)SFOs are combinations of the elementary basis functions (BAS). The basis
 functions that participate in the description of the SFOs depend on the irrep. The indices of the
 involved functions are printed below for each irrep.
 (The complete list of primitive basis functions is printed in another section)

 Total nr. of (C)SFOs (summation over all irreps) :   267

 NOTE: a (C)SFO that is defined as a combination of more than one FO is usually NOT normalized.



                                       === A ===
 Nr. of SFOs :  267
 Cartesian basis functions that participate in this irrep (total number =   303) :
      1     2     3     4     5     6     9    12     7    10
     13     8    11    14    15    16    17    18    19    20
     21    22    23    24    25    26    27    28    29    30
     31    32    33    34    35    36    39    42    37    40
     43    38    41    44    45    46    47    48    49    50
     51    52    53    54    55    56    57    58    59    60
     61    62    63    64    65    66    67    68    69    70
     71    72    73    74    75    76    77    78    79    80
     81    82    83    84    85    86    87    88    89    90
     91    92    93    94    95    96    97    98    99   100
    101   102   103   104   105   106   107   108   109   110
    111   112   113   114   115   116   117   118   119   120
    121   122   123   130   131   156   157   158   124   127
    132   135   159   162   165   125   128   133   136   160
    163   166   126   129   134   137   161   164   167   138
    144   150   168   139   145   151   169   140   146   152
    170   141   147   153   171   142   148   154   172   143
    149   155   173   174   175   176   177   178   179   180
    181   182   183   184   185   186   187   188   189   192
    195   190   193   196   191   194   197   198   199   200
    201   202   203   204   205   206   207   208   209   210
    211   212   213   214   215   216   217   218   219   222
    225   220   223   226   221   224   227   228   229   230
    231   232   233   234   235   236   237   238   239   240
    241   242   243   244   245   246   247   248   249   252
    255   250   253   256   251   254   257   258   259   260
    261   262   263   264   265   266   267   268   269   270
    271   272   273   274   275   276   277   278   279   282
    285   280   283   286   281   284   287   288   289   290
    291   292   293   294   295   296   297   298   299   300
    301   302   303

    SFO  (index         Fragment          Generating    Expansion in Fragment Orbitals
  indx  incl.CFs)   Occup   Orb.Energy   FragmentType  Coeff.   Orbital     on Fragment
 --------------------------------------------------------------------------------------
     1       1      2.000     -10.066 au  C             1.00      1 S               1
                        (    -273.921 eV)
     2       2      2.000      -0.501 au  C             1.00      2 S               1
                        (     -13.620 eV)
     3       3       --         0.373 au  C             1.00      3 S               1
                        (      10.158 eV)
     4       4       --         5.405 au  C             1.00      4 S               1
                        (     147.073 eV)
     5       5       --        49.848 au  C             1.00      5 S               1
                        (    1356.422 eV)
     6       6      0.667      -0.193 au  C             1.00      1 P:x             1
                        (      -5.239 eV)
     7       7       --         0.169 au  C             1.00      2 P:x             1
                        (       4.589 eV)
     8       8       --         2.013 au  C             1.00      3 P:x             1
                        (      54.789 eV)
     9       9      0.667      -0.193 au  C             1.00      1 P:y             1
                        (      -5.239 eV)
    10      10       --         0.169 au  C             1.00      2 P:y             1
                        (       4.589 eV)
    11      11       --         2.013 au  C             1.00      3 P:y             1
                        (      54.789 eV)
    12      12      0.667      -0.193 au  C             1.00      1 P:z             1
                        (      -5.239 eV)
    13      13       --         0.169 au  C             1.00      2 P:z             1
                        (       4.589 eV)
    14      14       --         2.013 au  C             1.00      3 P:z             1
                        (      54.789 eV)
    15      15       --         1.243 au  C             1.00      1 D:z2            1
                        (      33.824 eV)
    16      16       --         1.243 au  C             1.00      1 D:x2-y2         1
                        (      33.824 eV)
    17      17       --         1.243 au  C             1.00      1 D:xy            1
                        (      33.824 eV)
    18      18       --         1.243 au  C             1.00      1 D:xz            1
                        (      33.824 eV)
    19      19       --         1.243 au  C             1.00      1 D:yz            1
                        (      33.824 eV)
    20      20       --         4.016 au  C             1.00      1 F:z3            1
                        (     109.271 eV)
    21      21       --         4.016 au  C             1.00      1 F:z             1
                        (     109.271 eV)
    22      22       --         4.016 au  C             1.00      1 F:xyz           1
                        (     109.271 eV)
    23      23       --         4.016 au  C             1.00      1 F:z2x           1
                        (     109.271 eV)
    24      24       --         4.016 au  C             1.00      1 F:z2y           1
                        (     109.271 eV)
    25      25       --         4.016 au  C             1.00      1 F:x             1
                        (     109.271 eV)
    26      26       --         4.016 au  C             1.00      1 F:y             1
                        (     109.271 eV)
    27      27      2.000     -10.066 au  C             1.00      1 S               2
                        (    -273.921 eV)
    28      28      2.000      -0.501 au  C             1.00      2 S               2
                        (     -13.620 eV)
    29      29       --         0.373 au  C             1.00      3 S               2
                        (      10.158 eV)
    30      30       --         5.405 au  C             1.00      4 S               2
                        (     147.073 eV)
    31      31       --        49.848 au  C             1.00      5 S               2
                        (    1356.422 eV)
    32      32      0.667      -0.193 au  C             1.00      1 P:x             2
                        (      -5.239 eV)
    33      33       --         0.169 au  C             1.00      2 P:x             2
                        (       4.589 eV)
    34      34       --         2.013 au  C             1.00      3 P:x             2
                        (      54.789 eV)
    35      35      0.667      -0.193 au  C             1.00      1 P:y             2
                        (      -5.239 eV)
    36      36       --         0.169 au  C             1.00      2 P:y             2
                        (       4.589 eV)
    37      37       --         2.013 au  C             1.00      3 P:y             2
                        (      54.789 eV)
    38      38      0.667      -0.193 au  C             1.00      1 P:z             2
                        (      -5.239 eV)
    39      39       --         0.169 au  C             1.00      2 P:z             2
                        (       4.589 eV)
    40      40       --         2.013 au  C             1.00      3 P:z             2
                        (      54.789 eV)
    41      41       --         1.243 au  C             1.00      1 D:z2            2
                        (      33.824 eV)
    42      42       --         1.243 au  C             1.00      1 D:x2-y2         2
                        (      33.824 eV)
    43      43       --         1.243 au  C             1.00      1 D:xy            2
                        (      33.824 eV)
    44      44       --         1.243 au  C             1.00      1 D:xz            2
                        (      33.824 eV)
    45      45       --         1.243 au  C             1.00      1 D:yz            2
                        (      33.824 eV)
    46      46       --         4.016 au  C             1.00      1 F:z3            2
                        (     109.271 eV)
    47      47       --         4.016 au  C             1.00      1 F:z             2
                        (     109.271 eV)
    48      48       --         4.016 au  C             1.00      1 F:xyz           2
                        (     109.271 eV)
    49      49       --         4.016 au  C             1.00      1 F:z2x           2
                        (     109.271 eV)
    50      50       --         4.016 au  C             1.00      1 F:z2y           2
                        (     109.271 eV)
    51      51       --         4.016 au  C             1.00      1 F:x             2
                        (     109.271 eV)
    52      52       --         4.016 au  C             1.00      1 F:y             2
                        (     109.271 eV)
    53      53      1.000      -0.240 au  H             1.00      1 S               3
                        (      -6.532 eV)
    54      54       --         0.088 au  H             1.00      2 S               3
                        (       2.394 eV)
    55      55       --         1.502 au  H             1.00      3 S               3
                        (      40.869 eV)
    56      56       --         0.406 au  H             1.00      1 P:x             3
                        (      11.051 eV)
    57      57       --         0.406 au  H             1.00      1 P:y             3
                        (      11.051 eV)
    58      58       --         0.406 au  H             1.00      1 P:z             3
                        (      11.051 eV)
    59      59       --         2.569 au  H             1.00      1 D:z2            3
                        (      69.917 eV)
    60      60       --         2.569 au  H             1.00      1 D:x2-y2         3
                        (      69.917 eV)
    61      61       --         2.569 au  H             1.00      1 D:xy            3
                        (      69.917 eV)
    62      62       --         2.569 au  H             1.00      1 D:xz            3
                        (      69.917 eV)
    63      63       --         2.569 au  H             1.00      1 D:yz            3
                        (      69.917 eV)
    64      64      1.000      -0.240 au  H             1.00      1 S               4
                        (      -6.532 eV)
    65      65       --         0.088 au  H             1.00      2 S               4
                        (       2.394 eV)
    66      66       --         1.502 au  H             1.00      3 S               4
                        (      40.869 eV)
    67      67       --         0.406 au  H             1.00      1 P:x             4
                        (      11.051 eV)
    68      68       --         0.406 au  H             1.00      1 P:y             4
                        (      11.051 eV)
    69      69       --         0.406 au  H             1.00      1 P:z             4
                        (      11.051 eV)
    70      70       --         2.569 au  H             1.00      1 D:z2            4
                        (      69.917 eV)
    71      71       --         2.569 au  H             1.00      1 D:x2-y2         4
                        (      69.917 eV)
    72      72       --         2.569 au  H             1.00      1 D:xy            4
                        (      69.917 eV)
    73      73       --         2.569 au  H             1.00      1 D:xz            4
                        (      69.917 eV)
    74      74       --         2.569 au  H             1.00      1 D:yz            4
                        (      69.917 eV)
    75      75      1.000      -0.240 au  H             1.00      1 S               5
                        (      -6.532 eV)
    76      76       --         0.088 au  H             1.00      2 S               5
                        (       2.394 eV)
    77      77       --         1.502 au  H             1.00      3 S               5
                        (      40.869 eV)
    78      78       --         0.406 au  H             1.00      1 P:x             5
                        (      11.051 eV)
    79      79       --         0.406 au  H             1.00      1 P:y             5
                        (      11.051 eV)
    80      80       --         0.406 au  H             1.00      1 P:z             5
                        (      11.051 eV)
    81      81       --         2.569 au  H             1.00      1 D:z2            5
                        (      69.917 eV)
    82      82       --         2.569 au  H             1.00      1 D:x2-y2         5
                        (      69.917 eV)
    83      83       --         2.569 au  H             1.00      1 D:xy            5
                        (      69.917 eV)
    84      84       --         2.569 au  H             1.00      1 D:xz            5
                        (      69.917 eV)
    85      85       --         2.569 au  H             1.00      1 D:yz            5
                        (      69.917 eV)
    86      86      1.000      -0.240 au  H             1.00      1 S               6
                        (      -6.532 eV)
    87      87       --         0.088 au  H             1.00      2 S               6
                        (       2.394 eV)
    88      88       --         1.502 au  H             1.00      3 S               6
                        (      40.869 eV)
    89      89       --         0.406 au  H             1.00      1 P:x             6
                        (      11.051 eV)
    90      90       --         0.406 au  H             1.00      1 P:y             6
                        (      11.051 eV)
    91      91       --         0.406 au  H             1.00      1 P:z             6
                        (      11.051 eV)
    92      92       --         2.569 au  H             1.00      1 D:z2            6
                        (      69.917 eV)
    93      93       --         2.569 au  H             1.00      1 D:x2-y2         6
                        (      69.917 eV)
    94      94       --         2.569 au  H             1.00      1 D:xy            6
                        (      69.917 eV)
    95      95       --         2.569 au  H             1.00      1 D:xz            6
                        (      69.917 eV)
    96      96       --         2.569 au  H             1.00      1 D:yz            6
                        (      69.917 eV)
    97      97      1.000      -0.240 au  H             1.00      1 S               7
                        (      -6.532 eV)
    98      98       --         0.088 au  H             1.00      2 S               7
                        (       2.394 eV)
    99      99       --         1.502 au  H             1.00      3 S               7
                        (      40.869 eV)
   100     100       --         0.406 au  H             1.00      1 P:x             7
                        (      11.051 eV)
   101     101       --         0.406 au  H             1.00      1 P:y             7
                        (      11.051 eV)
   102     102       --         0.406 au  H             1.00      1 P:z             7
                        (      11.051 eV)
   103     103       --         2.569 au  H             1.00      1 D:z2            7
                        (      69.917 eV)
   104     104       --         2.569 au  H             1.00      1 D:x2-y2         7
                        (      69.917 eV)
   105     105       --         2.569 au  H             1.00      1 D:xy            7
                        (      69.917 eV)
   106     106       --         2.569 au  H             1.00      1 D:xz            7
                        (      69.917 eV)
   107     107       --         2.569 au  H             1.00      1 D:yz            7
                        (      69.917 eV)
   108     108      2.000    -488.642 au  Br            1.00      1 S               8
                        (  -13296.634 eV)
   109     109      2.000     -63.585 au  Br            1.00      2 S               8
                        (   -1730.246 eV)
   110     110      2.000      -8.709 au  Br            1.00      3 S               8
                        (    -236.987 eV)
   111     111      2.000      -0.733 au  Br            1.00      4 S               8
                        (     -19.946 eV)
   112     112       --         0.224 au  Br            1.00      5 S               8
                        (       6.099 eV)
   113     113       --         2.414 au  Br            1.00      6 S               8
                        (      65.683 eV)
   114     114       --        13.546 au  Br            1.00      7 S               8
                        (     368.609 eV)
   115     115       --       615.209 au  Br            1.00      8 S               8
                        (   16740.684 eV)
   116     116      2.000     -56.116 au  Br            1.00      1 P:x             8
                        (   -1526.987 eV)
   117     117      2.000      -6.365 au  Br            1.00      2 P:x             8
                        (    -173.205 eV)
   118     118      1.667      -0.284 au  Br            1.00      3 P:x             8
                        (      -7.716 eV)
   119     119       --         0.137 au  Br            1.00      4 P:x             8
                        (       3.720 eV)
   120     120       --         1.208 au  Br            1.00      5 P:x             8
                        (      32.874 eV)
   121     121       --         8.734 au  Br            1.00      6 P:x             8
                        (     237.661 eV)
   122     122       --        95.627 au  Br            1.00      7 P:x             8
                        (    2602.141 eV)
   123     123      2.000     -56.116 au  Br            1.00      1 P:y             8
                        (   -1526.987 eV)
   124     124      2.000      -6.365 au  Br            1.00      2 P:y             8
                        (    -173.205 eV)
   125     125      1.667      -0.284 au  Br            1.00      3 P:y             8
                        (      -7.716 eV)
   126     126       --         0.137 au  Br            1.00      4 P:y             8
                        (       3.720 eV)
   127     127       --         1.208 au  Br            1.00      5 P:y             8
                        (      32.874 eV)
   128     128       --         8.734 au  Br            1.00      6 P:y             8
                        (     237.661 eV)
   129     129       --        95.627 au  Br            1.00      7 P:y             8
                        (    2602.141 eV)
   130     130      2.000     -56.116 au  Br            1.00      1 P:z             8
                        (   -1526.987 eV)
   131     131      2.000      -6.365 au  Br            1.00      2 P:z             8
                        (    -173.205 eV)
   132     132      1.667      -0.284 au  Br            1.00      3 P:z             8
                        (      -7.716 eV)
   133     133       --         0.137 au  Br            1.00      4 P:z             8
                        (       3.720 eV)
   134     134       --         1.208 au  Br            1.00      5 P:z             8
                        (      32.874 eV)
   135     135       --         8.734 au  Br            1.00      6 P:z             8
                        (     237.661 eV)
   136     136       --        95.627 au  Br            1.00      7 P:z             8
                        (    2602.141 eV)
   137     137      2.000      -2.452 au  Br            1.00      1 D:z2            8
                        (     -66.719 eV)
   138     138       --         0.270 au  Br            1.00      2 D:z2            8
                        (       7.341 eV)
   139     139       --         2.706 au  Br            1.00      3 D:z2            8
                        (      73.633 eV)
   140     140       --        20.525 au  Br            1.00      4 D:z2            8
                        (     558.519 eV)
   141     141      2.000      -2.452 au  Br            1.00      1 D:x2-y2         8
                        (     -66.719 eV)
   142     142       --         0.270 au  Br            1.00      2 D:x2-y2         8
                        (       7.341 eV)
   143     143       --         2.706 au  Br            1.00      3 D:x2-y2         8
                        (      73.633 eV)
   144     144       --        20.525 au  Br            1.00      4 D:x2-y2         8
                        (     558.519 eV)
   145     145      2.000      -2.452 au  Br            1.00      1 D:xy            8
                        (     -66.719 eV)
   146     146       --         0.270 au  Br            1.00      2 D:xy            8
                        (       7.341 eV)
   147     147       --         2.706 au  Br            1.00      3 D:xy            8
                        (      73.633 eV)
   148     148       --        20.525 au  Br            1.00      4 D:xy            8
                        (     558.519 eV)
   149     149      2.000      -2.452 au  Br            1.00      1 D:xz            8
                        (     -66.719 eV)
   150     150       --         0.270 au  Br            1.00      2 D:xz            8
                        (       7.341 eV)
   151     151       --         2.706 au  Br            1.00      3 D:xz            8
                        (      73.633 eV)
   152     152       --        20.525 au  Br            1.00      4 D:xz            8
                        (     558.519 eV)
   153     153      2.000      -2.452 au  Br            1.00      1 D:yz            8
                        (     -66.719 eV)
   154     154       --         0.270 au  Br            1.00      2 D:yz            8
                        (       7.341 eV)
   155     155       --         2.706 au  Br            1.00      3 D:yz            8
                        (      73.633 eV)
   156     156       --        20.525 au  Br            1.00      4 D:yz            8
                        (     558.519 eV)
   157     157       --         0.857 au  Br            1.00      1 F:z3            8
                        (      23.313 eV)
   158     158       --         0.857 au  Br            1.00      1 F:z             8
                        (      23.313 eV)
   159     159       --         0.857 au  Br            1.00      1 F:xyz           8
                        (      23.313 eV)
   160     160       --         0.857 au  Br            1.00      1 F:z2x           8
                        (      23.313 eV)
   161     161       --         0.857 au  Br            1.00      1 F:z2y           8
                        (      23.313 eV)
   162     162       --         0.857 au  Br            1.00      1 F:x             8
                        (      23.313 eV)
   163     163       --         0.857 au  Br            1.00      1 F:y             8
                        (      23.313 eV)
   164     164      2.000     -14.160 au  N             1.00      1 S               9
                        (    -385.319 eV)
   165     165      2.000      -0.678 au  N             1.00      2 S               9
                        (     -18.450 eV)
   166     166       --         0.517 au  N             1.00      3 S               9
                        (      14.073 eV)
   167     167       --         6.872 au  N             1.00      4 S               9
                        (     186.990 eV)
   168     168       --        63.432 au  N             1.00      5 S               9
                        (    1726.082 eV)
   169     169      1.000      -0.260 au  N             1.00      1 P:x             9
                        (      -7.062 eV)
   170     170       --         0.281 au  N             1.00      2 P:x             9
                        (       7.649 eV)
   171     171       --         3.275 au  N             1.00      3 P:x             9
                        (      89.105 eV)
   172     172      1.000      -0.260 au  N             1.00      1 P:y             9
                        (      -7.062 eV)
   173     173       --         0.281 au  N             1.00      2 P:y             9
                        (       7.649 eV)
   174     174       --         3.275 au  N             1.00      3 P:y             9
                        (      89.105 eV)
   175     175      1.000      -0.260 au  N             1.00      1 P:z             9
                        (      -7.062 eV)
   176     176       --         0.281 au  N             1.00      2 P:z             9
                        (       7.649 eV)
   177     177       --         3.275 au  N             1.00      3 P:z             9
                        (      89.105 eV)
   178     178       --         1.250 au  N             1.00      1 D:z2            9
                        (      34.005 eV)
   179     179       --         1.250 au  N             1.00      1 D:x2-y2         9
                        (      34.005 eV)
   180     180       --         1.250 au  N             1.00      1 D:xy            9
                        (      34.005 eV)
   181     181       --         1.250 au  N             1.00      1 D:xz            9
                        (      34.005 eV)
   182     182       --         1.250 au  N             1.00      1 D:yz            9
                        (      34.005 eV)
   183     183       --         4.013 au  N             1.00      1 F:z3            9
                        (     109.190 eV)
   184     184       --         4.013 au  N             1.00      1 F:z             9
                        (     109.190 eV)
   185     185       --         4.013 au  N             1.00      1 F:xyz           9
                        (     109.190 eV)
   186     186       --         4.013 au  N             1.00      1 F:z2x           9
                        (     109.190 eV)
   187     187       --         4.013 au  N             1.00      1 F:z2y           9
                        (     109.190 eV)
   188     188       --         4.013 au  N             1.00      1 F:x             9
                        (     109.190 eV)
   189     189       --         4.013 au  N             1.00      1 F:y             9
                        (     109.190 eV)
   190     190      2.000     -14.160 au  N             1.00      1 S              10
                        (    -385.319 eV)
   191     191      2.000      -0.678 au  N             1.00      2 S              10
                        (     -18.450 eV)
   192     192       --         0.517 au  N             1.00      3 S              10
                        (      14.073 eV)
   193     193       --         6.872 au  N             1.00      4 S              10
                        (     186.990 eV)
   194     194       --        63.432 au  N             1.00      5 S              10
                        (    1726.082 eV)
   195     195      1.000      -0.260 au  N             1.00      1 P:x            10
                        (      -7.062 eV)
   196     196       --         0.281 au  N             1.00      2 P:x            10
                        (       7.649 eV)
   197     197       --         3.275 au  N             1.00      3 P:x            10
                        (      89.105 eV)
   198     198      1.000      -0.260 au  N             1.00      1 P:y            10
                        (      -7.062 eV)
   199     199       --         0.281 au  N             1.00      2 P:y            10
                        (       7.649 eV)
   200     200       --         3.275 au  N             1.00      3 P:y            10
                        (      89.105 eV)
   201     201      1.000      -0.260 au  N             1.00      1 P:z            10
                        (      -7.062 eV)
   202     202       --         0.281 au  N             1.00      2 P:z            10
                        (       7.649 eV)
   203     203       --         3.275 au  N             1.00      3 P:z            10
                        (      89.105 eV)
   204     204       --         1.250 au  N             1.00      1 D:z2           10
                        (      34.005 eV)
   205     205       --         1.250 au  N             1.00      1 D:x2-y2        10
                        (      34.005 eV)
   206     206       --         1.250 au  N             1.00      1 D:xy           10
                        (      34.005 eV)
   207     207       --         1.250 au  N             1.00      1 D:xz           10
                        (      34.005 eV)
   208     208       --         1.250 au  N             1.00      1 D:yz           10
                        (      34.005 eV)
   209     209       --         4.013 au  N             1.00      1 F:z3           10
                        (     109.190 eV)
   210     210       --         4.013 au  N             1.00      1 F:z            10
                        (     109.190 eV)
   211     211       --         4.013 au  N             1.00      1 F:xyz          10
                        (     109.190 eV)
   212     212       --         4.013 au  N             1.00      1 F:z2x          10
                        (     109.190 eV)
   213     213       --         4.013 au  N             1.00      1 F:z2y          10
                        (     109.190 eV)
   214     214       --         4.013 au  N             1.00      1 F:x            10
                        (     109.190 eV)
   215     215       --         4.013 au  N             1.00      1 F:y            10
                        (     109.190 eV)
   216     216      2.000     -18.941 au  O             1.00      1 S              11
                        (    -515.403 eV)
   217     217      2.000      -0.876 au  O             1.00      2 S              11
                        (     -23.838 eV)
   218     218       --         0.791 au  O             1.00      3 S              11
                        (      21.524 eV)
   219     219       --        13.422 au  O             1.00      4 S              11
                        (     365.226 eV)
   220     220       --       121.561 au  O             1.00      5 S              11
                        (    3307.838 eV)
   221     221      1.333      -0.331 au  O             1.00      1 P:x            11
                        (      -9.020 eV)
   222     222       --         0.347 au  O             1.00      2 P:x            11
                        (       9.437 eV)
   223     223       --         3.820 au  O             1.00      3 P:x            11
                        (     103.939 eV)
   224     224      1.333      -0.331 au  O             1.00      1 P:y            11
                        (      -9.020 eV)
   225     225       --         0.347 au  O             1.00      2 P:y            11
                        (       9.437 eV)
   226     226       --         3.820 au  O             1.00      3 P:y            11
                        (     103.939 eV)
   227     227      1.333      -0.331 au  O             1.00      1 P:z            11
                        (      -9.020 eV)
   228     228       --         0.347 au  O             1.00      2 P:z            11
                        (       9.437 eV)
   229     229       --         3.820 au  O             1.00      3 P:z            11
                        (     103.939 eV)
   230     230       --         1.071 au  O             1.00      1 D:z2           11
                        (      29.134 eV)
   231     231       --         1.071 au  O             1.00      1 D:x2-y2        11
                        (      29.134 eV)
   232     232       --         1.071 au  O             1.00      1 D:xy           11
                        (      29.134 eV)
   233     233       --         1.071 au  O             1.00      1 D:xz           11
                        (      29.134 eV)
   234     234       --         1.071 au  O             1.00      1 D:yz           11
                        (      29.134 eV)
   235     235       --         3.359 au  O             1.00      1 F:z3           11
                        (      91.410 eV)
   236     236       --         3.359 au  O             1.00      1 F:z            11
                        (      91.410 eV)
   237     237       --         3.359 au  O             1.00      1 F:xyz          11
                        (      91.410 eV)
   238     238       --         3.359 au  O             1.00      1 F:z2x          11
                        (      91.410 eV)
   239     239       --         3.359 au  O             1.00      1 F:z2y          11
                        (      91.410 eV)
   240     240       --         3.359 au  O             1.00      1 F:x            11
                        (      91.410 eV)
   241     241       --         3.359 au  O             1.00      1 F:y            11
                        (      91.410 eV)
   242     242      2.000     -18.941 au  O             1.00      1 S              12
                        (    -515.403 eV)
   243     243      2.000      -0.876 au  O             1.00      2 S              12
                        (     -23.838 eV)
   244     244       --         0.791 au  O             1.00      3 S              12
                        (      21.524 eV)
   245     245       --        13.422 au  O             1.00      4 S              12
                        (     365.226 eV)
   246     246       --       121.561 au  O             1.00      5 S              12
                        (    3307.838 eV)
   247     247      1.333      -0.331 au  O             1.00      1 P:x            12
                        (      -9.020 eV)
   248     248       --         0.347 au  O             1.00      2 P:x            12
                        (       9.437 eV)
   249     249       --         3.820 au  O             1.00      3 P:x            12
                        (     103.939 eV)
   250     250      1.333      -0.331 au  O             1.00      1 P:y            12
                        (      -9.020 eV)
   251     251       --         0.347 au  O             1.00      2 P:y            12
                        (       9.437 eV)
   252     252       --         3.820 au  O             1.00      3 P:y            12
                        (     103.939 eV)
   253     253      1.333      -0.331 au  O             1.00      1 P:z            12
                        (      -9.020 eV)
   254     254       --         0.347 au  O             1.00      2 P:z            12
                        (       9.437 eV)
   255     255       --         3.820 au  O             1.00      3 P:z            12
                        (     103.939 eV)
   256     256       --         1.071 au  O             1.00      1 D:z2           12
                        (      29.134 eV)
   257     257       --         1.071 au  O             1.00      1 D:x2-y2        12
                        (      29.134 eV)
   258     258       --         1.071 au  O             1.00      1 D:xy           12
                        (      29.134 eV)
   259     259       --         1.071 au  O             1.00      1 D:xz           12
                        (      29.134 eV)
   260     260       --         1.071 au  O             1.00      1 D:yz           12
                        (      29.134 eV)
   261     261       --         3.359 au  O             1.00      1 F:z3           12
                        (      91.410 eV)
   262     262       --         3.359 au  O             1.00      1 F:z            12
                        (      91.410 eV)
   263     263       --         3.359 au  O             1.00      1 F:xyz          12
                        (      91.410 eV)
   264     264       --         3.359 au  O             1.00      1 F:z2x          12
                        (      91.410 eV)
   265     265       --         3.359 au  O             1.00      1 F:z2y          12
                        (      91.410 eV)
   266     266       --         3.359 au  O             1.00      1 F:x            12
                        (      91.410 eV)
   267     267       --         3.359 au  O             1.00      1 F:y            12
                        (      91.410 eV)



 ================================
 (Slater-type)  F U N C T I O N S  ***  (Basis and Fit)  ***
 ================================
  

 Atom Type    1  (C)
 ==============

 Valence Basis Sets:  10
 -----------------------
   1 S    7.680000
   1 S    5.000000
   2 S    1.280000
   2 S    2.100000
   2 S    4.600000
   2 P    0.820000
   2 P    1.480000
   2 P    2.940000
   3 D    2.200000
   4 F    3.300000

 Atom Type    2  (H)
 ==============

 Valence Basis Sets:   5
 -----------------------
   1 S    0.690000
   1 S    0.920000
   1 S    1.580000
   2 P    1.250000
   3 D    2.500000

 Atom Type    3  (Br)
 ==============

 Valence Basis Sets:  20
 -----------------------
   1 S   41.300000
   1 S   32.800000
   2 S   13.900000
   2 P   19.450000
   2 P   13.100000
   3 S    7.200000
   3 S    4.950000
   3 P    7.900000
   3 P    5.050000
   3 D   10.900000
   3 D    6.050000
   3 D    3.500000
   4 S    4.500000
   4 S    2.800000
   4 S    1.800000
   4 P    3.250000
   4 P    1.950000
   4 P    1.200000
   4 D    1.800000
   4 F    1.800000

 Atom Type    4  (N)
 ==============

 Valence Basis Sets:  10
 -----------------------
   1 S    8.740000
   1 S    5.900000
   2 S    5.150000
   2 S    2.500000
   2 S    1.500000
   2 P    3.680000
   2 P    1.880000
   2 P    1.000000
   3 D    2.200000
   4 F    3.300000

 Atom Type    5  (O)
 ==============

 Valence Basis Sets:  10
 -----------------------
   1 S    9.800000
   1 S    6.800000
   2 S    7.580000
   2 S    2.880000
   2 S    1.720000
   2 P    4.080000
   2 P    2.080000
   2 P    1.120000
   3 D    2.000000
   4 F    3.000000


 BAS: List of all Elementary Cartesian Basis Functions
 =====================================================

 The numbering in the list below (to the right of the function characteristics) is referred
 to in print-outs of MO eigenvectors and Mulliken populations in the BAS representation
 (as contrasted to the SFO representation).

 Notes:
 1. The functions are characterized by a polynomial prefactor (powers of x,y,z and r) and
    an exponential decay factor alpha.
 2. Since the basis sets are specific for an atom TYPE, the individual functions occur on
    all atoms of that type.
 3. The word 'Core' in the left margin signals that it is a Core Function (CF) : not a
    degree of freedom in the valence set, but only used to ensure orthogonalization of
    the other valence basis functions on the frozen Core Orbitals.


 (power of) X  Y  Z  R     Alpha  on Atom
            ==========     =====     ==========

 C                                    1    2
                                  ---------------------------------------------------------------------------
            0  0  0  0     7.680      1   31
            0  0  0  0     5.000      2   32
            0  0  0  1     1.280      3   33
            0  0  0  1     2.100      4   34
            0  0  0  1     4.600      5   35
            1  0  0  0     0.820      6   36
            0  1  0  0     0.820      7   37
            0  0  1  0     0.820      8   38
            1  0  0  0     1.480      9   39
            0  1  0  0     1.480     10   40
            0  0  1  0     1.480     11   41
            1  0  0  0     2.940     12   42
            0  1  0  0     2.940     13   43
            0  0  1  0     2.940     14   44
            2  0  0  0     2.200     15   45
            1  1  0  0     2.200     16   46
            1  0  1  0     2.200     17   47
            0  2  0  0     2.200     18   48
            0  1  1  0     2.200     19   49
            0  0  2  0     2.200     20   50
            3  0  0  0     3.300     21   51
            2  1  0  0     3.300     22   52
            2  0  1  0     3.300     23   53
            1  2  0  0     3.300     24   54
            1  1  1  0     3.300     25   55
            1  0  2  0     3.300     26   56
            0  3  0  0     3.300     27   57
            0  2  1  0     3.300     28   58
            0  1  2  0     3.300     29   59
            0  0  3  0     3.300     30   60

 H                                    3    4    5    6    7
                                  ---------------------------------------------------------------------------
            0  0  0  0     0.690     61   73   85   97  109
            0  0  0  0     0.920     62   74   86   98  110
            0  0  0  0     1.580     63   75   87   99  111
            1  0  0  0     1.250     64   76   88  100  112
            0  1  0  0     1.250     65   77   89  101  113
            0  0  1  0     1.250     66   78   90  102  114
            2  0  0  0     2.500     67   79   91  103  115
            1  1  0  0     2.500     68   80   92  104  116
            1  0  1  0     2.500     69   81   93  105  117
            0  2  0  0     2.500     70   82   94  106  118
            0  1  1  0     2.500     71   83   95  107  119
            0  0  2  0     2.500     72   84   96  108  120

 Br                                   8
                                  ---------------------------------------------------------------------------
            0  0  0  0    41.300    121
            0  0  0  0    32.800    122
            0  0  0  1    13.900    123
            1  0  0  0    19.450    124
            0  1  0  0    19.450    125
            0  0  1  0    19.450    126
            1  0  0  0    13.100    127
            0  1  0  0    13.100    128
            0  0  1  0    13.100    129
            0  0  0  2     7.200    130
            0  0  0  2     4.950    131
            1  0  0  1     7.900    132
            0  1  0  1     7.900    133
            0  0  1  1     7.900    134
            1  0  0  1     5.050    135
            0  1  0  1     5.050    136
            0  0  1  1     5.050    137
            2  0  0  0    10.900    138
            1  1  0  0    10.900    139
            1  0  1  0    10.900    140
            0  2  0  0    10.900    141
            0  1  1  0    10.900    142
            0  0  2  0    10.900    143
            2  0  0  0     6.050    144
            1  1  0  0     6.050    145
            1  0  1  0     6.050    146
            0  2  0  0     6.050    147
            0  1  1  0     6.050    148
            0  0  2  0     6.050    149
            2  0  0  0     3.500    150
            1  1  0  0     3.500    151
            1  0  1  0     3.500    152
            0  2  0  0     3.500    153
            0  1  1  0     3.500    154
            0  0  2  0     3.500    155
            0  0  0  3     4.500    156
            0  0  0  3     2.800    157
            0  0  0  3     1.800    158
            1  0  0  2     3.250    159
            0  1  0  2     3.250    160
            0  0  1  2     3.250    161
            1  0  0  2     1.950    162
            0  1  0  2     1.950    163
            0  0  1  2     1.950    164
            1  0  0  2     1.200    165
            0  1  0  2     1.200    166
            0  0  1  2     1.200    167
            2  0  0  1     1.800    168
            1  1  0  1     1.800    169
            1  0  1  1     1.800    170
            0  2  0  1     1.800    171
            0  1  1  1     1.800    172
            0  0  2  1     1.800    173
            3  0  0  0     1.800    174
            2  1  0  0     1.800    175
            2  0  1  0     1.800    176
            1  2  0  0     1.800    177
            1  1  1  0     1.800    178
            1  0  2  0     1.800    179
            0  3  0  0     1.800    180
            0  2  1  0     1.800    181
            0  1  2  0     1.800    182
            0  0  3  0     1.800    183

 N                                    9   10
                                  ---------------------------------------------------------------------------
            0  0  0  0     8.740    184  214
            0  0  0  0     5.900    185  215
            0  0  0  1     5.150    186  216
            0  0  0  1     2.500    187  217
            0  0  0  1     1.500    188  218
            1  0  0  0     3.680    189  219
            0  1  0  0     3.680    190  220
            0  0  1  0     3.680    191  221
            1  0  0  0     1.880    192  222
            0  1  0  0     1.880    193  223
            0  0  1  0     1.880    194  224
            1  0  0  0     1.000    195  225
            0  1  0  0     1.000    196  226
            0  0  1  0     1.000    197  227
            2  0  0  0     2.200    198  228
            1  1  0  0     2.200    199  229
            1  0  1  0     2.200    200  230
            0  2  0  0     2.200    201  231
            0  1  1  0     2.200    202  232
            0  0  2  0     2.200    203  233
            3  0  0  0     3.300    204  234
            2  1  0  0     3.300    205  235
            2  0  1  0     3.300    206  236
            1  2  0  0     3.300    207  237
            1  1  1  0     3.300    208  238
            1  0  2  0     3.300    209  239
            0  3  0  0     3.300    210  240
            0  2  1  0     3.300    211  241
            0  1  2  0     3.300    212  242
            0  0  3  0     3.300    213  243

 O                                   11   12
                                  ---------------------------------------------------------------------------
            0  0  0  0     9.800    244  274
            0  0  0  0     6.800    245  275
            0  0  0  1     7.580    246  276
            0  0  0  1     2.880    247  277
            0  0  0  1     1.720    248  278
            1  0  0  0     4.080    249  279
            0  1  0  0     4.080    250  280
            0  0  1  0     4.080    251  281
            1  0  0  0     2.080    252  282
            0  1  0  0     2.080    253  283
            0  0  1  0     2.080    254  284
            1  0  0  0     1.120    255  285
            0  1  0  0     1.120    256  286
            0  0  1  0     1.120    257  287
            2  0  0  0     2.000    258  288
            1  1  0  0     2.000    259  289
            1  0  1  0     2.000    260  290
            0  2  0  0     2.000    261  291
            0  1  1  0     2.000    262  292
            0  0  2  0     2.000    263  293
            3  0  0  0     3.000    264  294
            2  1  0  0     3.000    265  295
            2  0  1  0     3.000    266  296
            1  2  0  0     3.000    267  297
            1  1  1  0     3.000    268  298
            1  0  2  0     3.000    269  299
            0  3  0  0     3.000    270  300
            0  2  1  0     3.000    271  301
            0  1  2  0     3.000    272  302
            0  0  3  0     3.000    273  303

 Total number of charge fitting functions (nprimf)       924
 Total number of Cartesian basis functions (naos)        303
 Total number of Cartesian core functions  (ncos)          0

 ***************************************************************************************************



                                              ***********************
                                              *  T E C H N I C A L  *
                                              ***********************
  



 =============================================================
 P A R A L L E L I Z A T I O N  and  V E C T O R I Z A T I O N
 =============================================================
  
 Nr of parallel processes:                                1
 Maximum vector length in NumInt loops:                 128



 =====================
 S C F   U P D A T E S
 =====================
  
 Max. nr. of cycles:                               200
 Convergence criterion:                              0.0000010000
   secondary criterion:                              0.0010000000

 Mix parameter (when DIIS does not apply):           0.2000000000
 Mixed ADIIS+SDIIS will be used                  
    Max number of expansion vectors:                10
    Pure ADIIS when Max([F,P]) is above              0.1000000000
    Pure SDIIS when Max([F,P]) is below              0.0010000000
 Automatic ElectronSmearing (in case of problematic SCF convergence) disabled



 =================
 P R E C I S I O N  ***  (General: NumInt, NeglectFunctionTails, ...)  ***
 =================
  

 NumInt:           Target precision:                 4.0000000000
 -------           Initial precision:                4.0000000000
                   Min. precision (optimization):    4.0000000000

 Neglect Functions:          Basis functions:        0.1000000000E-05
 ------------------          Fit functions:          0.1000000000E-05



 ===========================
 L I N E A R   S C A L I N G
 ===========================
  

 Cut-off radii density fit:                        0.1000000000E-07
 Overlap cut-off criterion AO matrix elements:     0.1000000000E-05
 Cut-offs for Coulomb potential and fitted density:0.1000000000E-07
 Cut-off criterion for Coulomb multipole terms:    0.1000000000E-07
 Progressive Convergence parameter:                 0.000000000    
 ***************************************************************************************************



                                            ***************************
                                            *  C O M P U T A T I O N  *
                                            ***************************
  

 Number of elements of the density matrix on this node (used, total):     46056     46056



 ===========================================
 Numerical Integration : Fuzzy Cells (Becke)
 ===========================================
  
 Becke grid quality: NORMAL         
  
 Lebedev angular grid order:             min:  11 max:  23
 Nr. of radial points:                   min:  46 max:  77

 Total nr. of points:      81836
 Nr. of blocks:              640
 Block length:               128
 Nr. of dummy points:         84


 Test of Precision of the Numerical Integration Grid
 ===================================================

 Integral of the Total Core Density:                   0.00000000000000



 ========================
 Density Fitting (zlmFit)
 ========================
  
 ZlmFit Fit Quality: NORMAL         
  
 Max L-expansion:                        min:   6 max:   7
 Nr. of radial interpolation points:     min:  39 max:  72



 =====
 S C F  ***  ScaSCF  ***
 =====
  
 Initial density matrix is calculated as sum of fragments

 CYCLE    1
 SCF Error: norm([F,P])=      6.313226997979, max([F,P])=      1.356491995523
 orbitals (Q,E):
 ---------------
 A :32...51          ( 2.00    -0.5482)  ( 2.00    -0.5377)  ( 2.00    -0.5376)  ( 2.00    -0.4659)
                     ( 2.00    -0.3935)  ( 2.00    -0.3878)  ( 2.00    -0.3804)  ( 2.00    -0.2930)
                     ( 2.00    -0.2895)  ( 2.00    -0.2884)  ( 0.00    -0.2387)  ( 0.00    -0.1337)
                     ( 0.00    -0.0599)  ( 0.00    -0.0424)  ( 0.00    -0.0272)  ( 0.00    -0.0001)
                     ( 0.00     0.0027)  ( 0.00     0.0209)  ( 0.00     0.0455)  ( 0.00     0.0775)

 CYCLE    2
   MIX coefficients:  0.8000  0.2000
 SCF Error: norm([F,P])=      1.223153413606, max([F,P])=      0.242357226141
 orbitals (Q,E):
 ---------------
 A :32...42          ( 2.00    -0.5182)  ( 2.00    -0.5129)  ( 2.00    -0.4937)  ( 2.00    -0.4379)
                     ( 2.00    -0.3615)  ( 2.00    -0.3608)  ( 2.00    -0.3442)  ( 2.00    -0.2548)
                     ( 2.00    -0.2476)  ( 2.00    -0.2465)  ( 0.00    -0.2264)

 CYCLE    3
  SDIIS (wt  0.000): -0.4804  1.4804
 A-DIIS (wt  1.000):  0.0000  1.0000
  DIIS coefficients:  0.0000  1.0000
 SCF Error: norm([F,P])=      0.525602288640, max([F,P])=      0.107841498649
 orbitals (Q,E):
 ---------------
 A :32...42          ( 2.00    -0.3863)  ( 2.00    -0.3826)  ( 2.00    -0.3476)  ( 2.00    -0.3207)
                     ( 2.00    -0.2573)  ( 2.00    -0.2517)  ( 2.00    -0.2269)  ( 2.00    -0.1819)
                     ( 2.00    -0.1696)  ( 2.00    -0.1688)  ( 0.00    -0.1420)

 CYCLE    4
  SDIIS (wt  0.000):  0.0794  0.5209  0.3997
 A-DIIS (wt  1.000): -0.0000  0.7057  0.2943
  DIIS coefficients: -0.0000  0.7057  0.2943
 SCF Error: norm([F,P])=      0.895976669507, max([F,P])=      0.179510742728
 orbitals (Q,E):
 ---------------
 A :32...42          ( 2.00    -0.4327)  ( 2.00    -0.4318)  ( 2.00    -0.3970)  ( 2.00    -0.3759)
                     ( 2.00    -0.3091)  ( 2.00    -0.2990)  ( 2.00    -0.2817)  ( 2.00    -0.1916)
                     ( 2.00    -0.1682)  ( 2.00    -0.1670)  ( 0.00    -0.1665)

 CYCLE    5
  SDIIS (wt  0.000):  0.1712  0.3202  0.4130  0.0957
 A-DIIS (wt  1.000): -0.0000  0.6546  0.2948  0.0506
  DIIS coefficients: -0.0000  0.6546  0.2948  0.0506
 SCF Error: norm([F,P])=      0.864029843400, max([F,P])=      0.236419543540
 orbitals (Q,E):
 ---------------
 A :32...42          ( 2.00    -0.4275)  ( 2.00    -0.4266)  ( 2.00    -0.3964)  ( 2.00    -0.3718)
                     ( 2.00    -0.2973)  ( 2.00    -0.2874)  ( 2.00    -0.2701)  ( 2.00    -0.2000)
                     ( 2.00    -0.1897)  ( 2.00    -0.1879)  ( 0.00    -0.1679)

 CYCLE    6
  SDIIS (wt  0.546): -0.0882  0.4404  0.0934  0.0224  0.5320
 A-DIIS (wt  0.454):  0.0000  0.0000  0.0000  0.0389  0.9611
  DIIS coefficients: -0.0482  0.2406  0.0511  0.0299  0.7267
 SCF Error: norm([F,P])=      0.189018765014, max([F,P])=      0.045901583087
 orbitals (Q,E):
 ---------------
 A :32...42          ( 2.00    -0.4628)  ( 2.00    -0.4584)  ( 2.00    -0.4282)  ( 2.00    -0.3910)
                     ( 2.00    -0.3218)  ( 2.00    -0.3157)  ( 2.00    -0.2941)  ( 2.00    -0.2140)
                     ( 2.00    -0.1989)  ( 2.00    -0.1977)  ( 0.00    -0.1917)

 CYCLE    7
  SDIIS (wt  0.000):  0.0176  0.1520  0.0850  0.0077  0.4532  0.2845
 A-DIIS (wt  1.000):  0.0000  0.0000  0.0000  0.0000  0.6355  0.3645
  DIIS coefficients:  0.0000  0.0000  0.0000  0.0000  0.6355  0.3645
 SCF Error: norm([F,P])=      0.240021603114, max([F,P])=      0.059727002041
 orbitals (Q,E):
 ---------------
 A :32...42          ( 2.00    -0.4533)  ( 2.00    -0.4504)  ( 2.00    -0.4218)  ( 2.00    -0.3862)
                     ( 2.00    -0.3129)  ( 2.00    -0.3054)  ( 2.00    -0.2869)  ( 2.00    -0.2223)
                     ( 2.00    -0.2079)  ( 2.00    -0.2069)  ( 0.00    -0.1862)

 CYCLE    8
  SDIIS (wt  0.628): -0.0316  0.1095 -0.0041  0.0170  0.4346  0.2381  0.2364
 A-DIIS (wt  0.372):  0.0000  0.0000  0.0000  0.0000  0.3583  0.3378  0.3038
  DIIS coefficients: -0.0198  0.0687 -0.0026  0.0107  0.4062  0.2752  0.2615
 SCF Error: norm([F,P])=      0.150083773276, max([F,P])=      0.037858498927
 orbitals (Q,E):
 ---------------
 A :32...42          ( 2.00    -0.4465)  ( 2.00    -0.4437)  ( 2.00    -0.4141)  ( 2.00    -0.3837)
                     ( 2.00    -0.3116)  ( 2.00    -0.3034)  ( 2.00    -0.2848)  ( 2.00    -0.2104)
                     ( 2.00    -0.1964)  ( 2.00    -0.1958)  ( 0.00    -0.1818)

 CYCLE    9
  SDIIS (wt  0.914): -0.0152  0.0370 -0.0017  0.0084  0.1974  0.1647  0.1410  0.4685
 A-DIIS (wt  0.086):  0.0000  0.0000  0.0000  0.0000  0.0000  0.0252  0.0000  0.9748
  DIIS coefficients: -0.0139  0.0338 -0.0016  0.0077  0.1803  0.1527  0.1288  0.5122
 SCF Error: norm([F,P])=      0.032787186733, max([F,P])=      0.009550292205
 orbitals (Q,E):
 ---------------
 A :32...42          ( 2.00    -0.4479)  ( 2.00    -0.4449)  ( 2.00    -0.4155)  ( 2.00    -0.3834)
                     ( 2.00    -0.3118)  ( 2.00    -0.3037)  ( 2.00    -0.2854)  ( 2.00    -0.2104)
                     ( 2.00    -0.1962)  ( 2.00    -0.1955)  ( 0.00    -0.1824)

 CYCLE   10
  SDIIS (wt  0.954): -0.0060  0.0116  0.0008  0.0025  0.0745  0.0967  0.0474  0.4358  0.3368
 A-DIIS (wt  0.046):  0.0000  0.0000  0.0000  0.0000  0.0000  0.0000  0.0000  0.1551  0.8449
  DIIS coefficients: -0.0058  0.0110  0.0008  0.0024  0.0710  0.0922  0.0452  0.4227  0.3605
 SCF Error: norm([F,P])=      0.019855980055, max([F,P])=      0.005603463622
 orbitals (Q,E):
 ---------------
 A :32...42          ( 2.00    -0.4480)  ( 2.00    -0.4450)  ( 2.00    -0.4153)  ( 2.00    -0.3841)
                     ( 2.00    -0.3123)  ( 2.00    -0.3044)  ( 2.00    -0.2854)  ( 2.00    -0.2102)
                     ( 2.00    -0.1956)  ( 2.00    -0.1949)  ( 0.00    -0.1827)

 CYCLE   11
  SDIIS (wt  0.978): -0.0017 -0.0010 -0.0008  0.0008 -0.0039  0.0057  0.0080  0.1276  0.3301  0.5352
 A-DIIS (wt  0.022):  0.0000  0.0000  0.0000  0.0000  0.0000  0.0000  0.0000  0.0000  0.3398  0.6602
  DIIS coefficients: -0.0016 -0.0010 -0.0008  0.0007 -0.0038  0.0056  0.0078  0.1248  0.3303  0.5380
 SCF Error: norm([F,P])=      0.010679767285, max([F,P])=      0.003204453542
 orbitals (Q,E):
 ---------------
 A :32...42          ( 2.00    -0.4478)  ( 2.00    -0.4448)  ( 2.00    -0.4152)  ( 2.00    -0.3839)
                     ( 2.00    -0.3124)  ( 2.00    -0.3043)  ( 2.00    -0.2856)  ( 2.00    -0.2104)
                     ( 2.00    -0.1958)  ( 2.00    -0.1951)  ( 0.00    -0.1827)

 CYCLE   12
  SDIIS (wt  1.000): -0.0020  0.0003  0.0002 -0.0077 -0.0009  0.0013  0.0563  0.1913  0.3755  0.3857
  DIIS coefficients: -0.0020  0.0003  0.0002 -0.0077 -0.0009  0.0013  0.0563  0.1913  0.3755  0.3857
 SCF Error: norm([F,P])=      0.002639748528, max([F,P])=      0.000667402768
 orbitals (Q,E):
 ---------------
 A :32...42          ( 2.00    -0.4479)  ( 2.00    -0.4449)  ( 2.00    -0.4153)  ( 2.00    -0.3839)
                     ( 2.00    -0.3123)  ( 2.00    -0.3043)  ( 2.00    -0.2855)  ( 2.00    -0.2104)
                     ( 2.00    -0.1958)  ( 2.00    -0.1951)  ( 0.00    -0.1827)

 CYCLE   13
  SDIIS (wt  1.000):  0.0004  0.0000 -0.0018 -0.0001 -0.0013  0.0091  0.0393  0.0924  0.1825  0.6796
  DIIS coefficients:  0.0004  0.0000 -0.0018 -0.0001 -0.0013  0.0091  0.0393  0.0924  0.1825  0.6796
 SCF Error: norm([F,P])=      0.000588492888, max([F,P])=      0.000114954294
 orbitals (Q,E):
 ---------------
 A :32...42          ( 2.00    -0.4479)  ( 2.00    -0.4449)  ( 2.00    -0.4153)  ( 2.00    -0.3839)
                     ( 2.00    -0.3123)  ( 2.00    -0.3043)  ( 2.00    -0.2855)  ( 2.00    -0.2104)
                     ( 2.00    -0.1958)  ( 2.00    -0.1951)  ( 0.00    -0.1827)

 CYCLE   14
  SDIIS (wt  1.000):  0.0000  0.0003 -0.0001  0.0003 -0.0026  0.0000  0.0089  0.0313  0.2899  0.6720
  DIIS coefficients:  0.0000  0.0003 -0.0001  0.0003 -0.0026  0.0000  0.0089  0.0313  0.2899  0.6720
 SCF Error: norm([F,P])=      0.000217807214, max([F,P])=      0.000054158812
 orbitals (Q,E):
 ---------------
 A :32...42          ( 2.00    -0.4479)  ( 2.00    -0.4449)  ( 2.00    -0.4152)  ( 2.00    -0.3839)
                     ( 2.00    -0.3123)  ( 2.00    -0.3043)  ( 2.00    -0.2855)  ( 2.00    -0.2104)
                     ( 2.00    -0.1958)  ( 2.00    -0.1951)  ( 0.00    -0.1827)

 CYCLE   15
  SDIIS (wt  1.000): -0.0001 -0.0000 -0.0003 -0.0009  0.0021  0.0074  0.0274  0.1706  0.4733  0.3206
  DIIS coefficients: -0.0001 -0.0000 -0.0003 -0.0009  0.0021  0.0074  0.0274  0.1706  0.4733  0.3206
 SCF Error: norm([F,P])=      0.000306140727, max([F,P])=      0.000087824338
 orbitals (Q,E):
 ---------------
 A :32...42          ( 2.00    -0.4479)  ( 2.00    -0.4449)  ( 2.00    -0.4153)  ( 2.00    -0.3839)
                     ( 2.00    -0.3123)  ( 2.00    -0.3043)  ( 2.00    -0.2855)  ( 2.00    -0.2104)
                     ( 2.00    -0.1958)  ( 2.00    -0.1951)  ( 0.00    -0.1827)

 CYCLE   16
  SDIIS (wt  1.000):  0.0001 -0.0002  0.0002  0.0021  0.0050  0.0168  0.0861  0.2588  0.1849  0.4461
  DIIS coefficients:  0.0001 -0.0002  0.0002  0.0021  0.0050  0.0168  0.0861  0.2588  0.1849  0.4461
 SCF Error: norm([F,P])=      0.000055846987, max([F,P])=      0.000010936865
 orbitals (Q,E):
 ---------------
 A :32...42          ( 2.00    -0.4479)  ( 2.00    -0.4449)  ( 2.00    -0.4153)  ( 2.00    -0.3839)
                     ( 2.00    -0.3123)  ( 2.00    -0.3043)  ( 2.00    -0.2855)  ( 2.00    -0.2104)
                     ( 2.00    -0.1958)  ( 2.00    -0.1951)  ( 0.00    -0.1827)

 CYCLE   17
  SDIIS (wt  1.000): -0.0000 -0.0001 -0.0001  0.0002  0.0014  0.0048  0.0307  0.0016  0.0848  0.8766
  DIIS coefficients: -0.0000 -0.0001 -0.0001  0.0002  0.0014  0.0048  0.0307  0.0016  0.0848  0.8766
 SCF Error: norm([F,P])=      0.000008133303, max([F,P])=      0.000001858335
 orbitals (Q,E):
 ---------------
 A :32...42          ( 2.00    -0.4479)  ( 2.00    -0.4449)  ( 2.00    -0.4153)  ( 2.00    -0.3839)
                     ( 2.00    -0.3123)  ( 2.00    -0.3043)  ( 2.00    -0.2855)  ( 2.00    -0.2104)
                     ( 2.00    -0.1958)  ( 2.00    -0.1951)  ( 0.00    -0.1827)

 CYCLE   18
  SDIIS (wt  1.000): -0.0000 -0.0002 -0.0002 -0.0004 -0.0043 -0.0021 -0.0147  0.0171  0.4624  0.5424
  DIIS coefficients: -0.0000 -0.0002 -0.0002 -0.0004 -0.0043 -0.0021 -0.0147  0.0171  0.4624  0.5424
 SCF Error: norm([F,P])=      0.000005379335, max([F,P])=      0.000001368463
 orbitals (Q,E):
 ---------------
 A :32...42          ( 2.00    -0.4479)  ( 2.00    -0.4449)  ( 2.00    -0.4153)  ( 2.00    -0.3839)
                     ( 2.00    -0.3123)  ( 2.00    -0.3043)  ( 2.00    -0.2855)  ( 2.00    -0.2104)
                     ( 2.00    -0.1958)  ( 2.00    -0.1951)  ( 0.00    -0.1827)

 CYCLE   19
  SDIIS (wt  1.000):  0.0000  0.0001  0.0001 -0.0005  0.0017 -0.0030  0.0103  0.1619  0.2434  0.5860
  DIIS coefficients:  0.0000  0.0001  0.0001 -0.0005  0.0017 -0.0030  0.0103  0.1619  0.2434  0.5860
 SCF Error: norm([F,P])=      0.000001648106, max([F,P])=      0.000000415368
 orbitals (Q,E):
 ---------------
 A :32...42          ( 2.00    -0.4479)  ( 2.00    -0.4449)  ( 2.00    -0.4153)  ( 2.00    -0.3839)
                     ( 2.00    -0.3123)  ( 2.00    -0.3043)  ( 2.00    -0.2855)  ( 2.00    -0.2104)
                     ( 2.00    -0.1958)  ( 2.00    -0.1951)  ( 0.00    -0.1827)

 SCF CONVERGED

 CYCLE   20
 ***************************************************************************************************



                                                *******************
                                                *  R E S U L T S  *
                                                *******************
  
 *** Using FIT density in Focky
  SDIIS (wt  1.000):  0.0000  0.0001 -0.0001  0.0013 -0.0016  0.0060  0.0986  0.1469  0.3620  0.3869
  DIIS coefficients:  0.0000  0.0001 -0.0001  0.0013 -0.0016  0.0060  0.0986  0.1469  0.3620  0.3869
 SCF Error: norm([F,P])=      0.000000442703, max([F,P])=      0.000000096287

 Scaled ZORA Orbital Energies, per Irrep and Spin:
 =================================================
                        Occup              E (au)              E (eV)       Diff (eV) with prev. cycle
                        -----      --------------------        ------       --------------------------
 A
              32        2.000     -0.44790987959401E+00       -12.188               6.80E-07
              33        2.000     -0.44488818067584E+00       -12.106               6.46E-07
              34        2.000     -0.41525135799248E+00       -11.300               6.36E-07
              35        2.000     -0.38387373303457E+00       -10.446               1.95E-07
              36        2.000     -0.31229987416999E+00        -8.498               3.75E-07
              37        2.000     -0.30428390051465E+00        -8.280               4.34E-07
              38        2.000     -0.28554725769629E+00        -7.770               3.64E-07
              39        2.000     -0.21041949871118E+00        -5.726               2.86E-07
              40        2.000     -0.19576688465053E+00        -5.327               1.64E-07
              41        2.000     -0.19508102102890E+00        -5.308               1.21E-07
              42        0.000     -0.18272324563370E+00        -4.972
              43        0.000     -0.88778514494420E-01        -2.416
              44        0.000     -0.53468666330660E-01        -1.455
              45        0.000     -0.17244255757279E-01        -0.469
              46        0.000     -0.80196401391532E-02        -0.218
              47        0.000      0.30879143695614E-01         0.840
              48        0.000      0.51765036500964E-01         1.409
              49        0.000      0.59829064400356E-01         1.628
              50        0.000      0.76442628922724E-01         2.080
              51        0.000      0.10611737537093E+00         2.888
  
 HOMO :       41 A                -0.19508102102890E+00
 LUMO :       42 A                -0.18272324563370E+00
  


 All Electron Calculation, thus no Orbital Energies of the Core Orbitals are calculated


 Fit test: (difference of exact and fit density, squared integrated, result summed over spins)
         Sum-of-Fragments:                             0.00000000409464
         Orthogonalized Fragments:                     0.00104579714286
         SCF:                                          0.00114160294750



 ==========================
 Electron Density at Nuclei
 ==========================
  
 The electron density is calculated at points on a small sphere around the center of a nucleus.
 The printed electron density is the average electron density on these points.
 The radius of the sphere is the printed approximate finite nuclear radius.
 Note: ZORA-4 density is used, which includes small component density

         Atom        Nuclear Radius (Angstrom)             Electron Density (a.u.)
         ----        -------------------------             -----------------------
     1)   C                 0.0000320678                              127.26917
     2)   H                 0.0000181514                                0.49794
     3)   Br                0.0000536685                            33511.83051
     4)   C                 0.0000320678                              126.99706
     5)   H                 0.0000181514                                0.50599
     6)   H                 0.0000181514                                0.50470
     7)   N                 0.0000333706                              206.10158
     8)   O                 0.0000345546                              314.34947
     9)   O                 0.0000345546                              314.31325
    10)   N                 0.0000333706                              205.82624
    11)   H                 0.0000181514                                0.48430
    12)   H                 0.0000181514                                0.47313



 =======================================
 M U L L I K E N   P O P U L A T I O N S
 =======================================
  
 The survey below gives for each atom:
 a) the total charge (Z minus electrons)
 b) the net spin polarization (nr of electrons spin-A minus spin-B)
 c) for each spin the atomic electron valence density (integrated) per L-value.

 Atom              Charge    Spin density          S         P         D         F
 ----              ------    ------------       ------    ------    ------    ------
[...]
                                    9.31%     1 S              -6.532  1.00     3 H
                                    8.97%     1 P:x            -5.239  0.67     1 C
                                    8.77%     1 S              -6.532  1.00     5 H
                                    3.06%     1 P:x            -9.020  1.33    11 O
                                    1.23%     1 P:x            11.051  0.00     6 H
                                    1.22%     1 P:x            11.051  0.00     7 H
      -8.498  2.00    36 A         49.96%     1 P:x            -9.020  1.33    12 O
                                   44.93%     1 P:x            -9.020  1.33    11 O
                                    1.93%     1 D:xy           34.005  0.00     9 N
      -8.280  2.00    37 A         51.86%     1 P:z            -9.020  1.33    12 O
                                   19.16%     1 P:z            -9.020  1.33    11 O
                                    6.99%     1 P:y            -9.020  1.33    11 O
                                    5.70%     1 P:z            -5.239  0.67     1 C
                                    3.37%     1 P:y            -9.020  1.33    12 O
                                    2.65%     1 D:yz           34.005  0.00     9 N
                                    2.23%     1 P:y            -5.239  0.67     1 C
                                    1.80%     2 S             -13.620  2.00     1 C
      -7.770  2.00    38 A         47.94%     1 P:y            -9.020  1.33    11 O
                                   29.55%     1 P:z            -9.020  1.33    12 O
                                   14.36%     1 P:z            -9.020  1.33    11 O
                                    2.18%     1 P:y            -9.020  1.33    12 O
                                    1.27%     1 D:z2           34.005  0.00     9 N
      -5.726  2.00    39 A         54.50%     3 P:x            -7.716  1.67     8 Br
                                   19.59%     3 P:z            -7.716  1.67     8 Br
                                    6.51%     1 P:x            -7.062  1.00    10 N
                                    5.51%     1 P:x            -5.239  0.67     1 C
                                    3.83%     3 P:y            -7.716  1.67     8 Br
                                    3.10%     1 P:x            -9.020  1.33    11 O
                                    2.04%     1 P:x            -9.020  1.33    12 O
                                    1.34%     1 S              -6.532  1.00     5 H
                                    1.27%     1 P:x            -7.062  1.00     9 N
      -5.327  2.00    40 A         49.81%     3 P:y            -7.716  1.67     8 Br
                                   44.11%     3 P:z            -7.716  1.67     8 Br
                                    4.31%     3 P:x            -7.716  1.67     8 Br
      -5.308  2.00    41 A         43.93%     3 P:y            -7.716  1.67     8 Br
                                   30.16%     3 P:z            -7.716  1.67     8 Br
                                   23.97%     3 P:x            -7.716  1.67     8 Br
      -4.972  0.00    42 A         20.66%     1 P:x            -5.239  0.67     1 C
                                   16.28%     1 P:x            -9.020  1.33    11 O
                                   13.82%     3 P:x            -7.716  1.67     8 Br
                                   13.70%     1 P:x            -9.020  1.33    12 O
                                   13.40%     1 P:x            -7.062  1.00    10 N
                                   11.37%     1 P:x            -7.062  1.00     9 N
                                    4.78%     3 P:z            -7.716  1.67     8 Br
                                    1.84%     1 S              -6.532  1.00     3 H
                                   -1.13%     2 P:x             4.589  0.00     1 C
      -2.416  0.00    43 A         34.29%     1 P:x            -5.239  0.67     1 C
                                   26.60%     1 P:x            -7.062  1.00     9 N
                                   13.76%     1 P:x            -9.020  1.33    12 O
                                   13.44%     1 P:x            -9.020  1.33    11 O
                                    9.84%     1 P:x            -7.062  1.00    10 N
                                    3.40%     1 S              -6.532  1.00     3 H
                                   -3.09%     2 P:x             4.589  0.00     1 C
                                   -2.95%     2 P:x             7.649  0.00     9 N
                                    2.40%     1 S              -6.532  1.00     5 H
                                   -1.22%     2 P:x             7.649  0.00    10 N
      -1.455  0.00    44 A         46.77%     1 S              -6.532  1.00     6 H
                                   37.38%     2 S               2.394  0.00     6 H
                                    7.49%     2 S               2.394  0.00     4 H
                                   -7.42%     2 P:z             7.649  0.00    10 N
                                    7.06%     2 S               2.394  0.00     7 H
                                    4.96%     1 S              -6.532  1.00     7 H
                                   -4.86%     2 P:z             4.589  0.00     1 C
                                    3.53%     1 P:z            11.051  0.00     6 H
                                    3.06%     1 S              -6.532  1.00     4 H
                                   -3.04%     3 S              10.158  0.00     2 C
                                    2.03%     2 S               2.394  0.00     5 H
                                    2.02%     2 S             -18.450  2.00    10 N
                                   -1.67%     3 S              10.158  0.00     1 C
                                   -1.62%     2 S             -13.620  2.00     1 C
                                    1.59%     1 P:z            -7.062  1.00    10 N
                                   -1.58%     2 S               2.394  0.00     3 H
                                    1.31%     1 P:z            11.051  0.00     4 H
                                   -1.25%     1 P:z            -5.239  0.67     1 C
                                    1.09%     1 P:y            11.051  0.00     7 H
                                    1.03%     1 S              -6.532  1.00     5 H
      -0.469  0.00    45 A         43.29%     1 S              -6.532  1.00     7 H
                                   19.28%     2 S               2.394  0.00     7 H
                                   12.99%     1 S              -6.532  1.00     6 H
                                  -10.99%     2 P:y             7.649  0.00    10 N
                                  -10.72%     2 P:z             4.589  0.00     2 C
                                   10.62%     1 S              -6.532  1.00     5 H
                                   10.08%     2 S               2.394  0.00     5 H
                                    8.15%     1 S              -6.532  1.00     4 H
                                   -6.83%     2 S               2.394  0.00     6 H
                                   -5.00%     2 P:z             7.649  0.00    10 N
                                    4.98%     2 S             -18.450  2.00     9 N
                                    3.88%     2 P:z             4.589  0.00     1 C
                                    3.34%     1 S              -6.532  1.00     3 H
                                   -2.72%     2 S               2.394  0.00     4 H
                                    2.63%     2 P:y             4.589  0.00     1 C
                                    2.53%     2 S               2.394  0.00     3 H
                                    2.21%     1 P:z            -7.062  1.00    10 N
                                    1.91%     1 P:z            -5.239  0.67     1 C
                                    1.77%     1 P:y            -7.062  1.00    10 N
                                    1.57%     1 P:z            -5.239  0.67     2 C
                                   -1.27%     2 P:x             4.589  0.00     2 C
                                    1.15%     2 P:x             4.589  0.00     1 C
                                    1.13%     1 P:z            -9.020  1.33    11 O
                                    1.12%     3 S              40.869  0.00     6 H
      -0.218  0.00    46 A         43.19%     2 S               2.394  0.00     5 H
                                   26.89%     1 S              -6.532  1.00     5 H
                                  -19.83%     2 P:y             4.589  0.00     1 C
                                   19.39%     2 S               2.394  0.00     4 H
                                   12.91%     1 S              -6.532  1.00     4 H
                                   11.40%     1 S              -6.532  1.00     7 H
                                  -11.31%     2 P:y             4.589  0.00     2 C
                                    8.45%     1 S              -6.532  1.00     6 H
                                    7.29%     2 S               2.394  0.00     7 H
                                   -6.68%     1 P:y            -5.239  0.67     1 C
                                   -4.60%     2 P:z             7.649  0.00    10 N
                                    4.11%     2 S               2.394  0.00     3 H
                                    2.13%     1 S              -6.532  1.00     3 H
                                   -1.85%     3 S              10.158  0.00     2 C
                                    1.68%     2 P:x             4.589  0.00     1 C
                                   -1.64%     2 P:z             4.589  0.00     1 C
                                    1.59%     3 P:y            54.789  0.00     1 C
                                    1.50%     1 P:x            11.051  0.00     5 H
                                    1.45%     2 S             -13.620  2.00     2 C
                                   -1.40%     2 P:x             4.589  0.00     2 C
                                    1.32%     2 P:y             7.649  0.00     9 N
                                    1.06%     2 S               2.394  0.00     6 H



 =======================================================================
 Electrostatic potential at the Nuclei due to electrons and other nuclei
 =======================================================================
  
         Atom                  Potential
         ----                  ---------
     1)   C                  14.61491742
     2)   H                   1.05304386
     3)   Br                180.60826522
     4)   C                  14.72993745
     5)   H                   1.04945925
     6)   H                   1.04776469
     7)   N                  18.15488755
     8)   O                  22.34131721
     9)   O                  22.33871806
    10)   N                  18.29425817
    11)   H                   0.92046076
    12)   H                   0.92774101
 Mulliken charges used for AMS results%charges...


    =====================
     CALCULATION RESULTS
    =====================

Energy (hartree)            -2.27623570


--------------
Atomic charges
--------------
  Index   Atom    Charge
      1      C    0.2424
      2      H   -0.0894
      3     Br   -0.5294
      4      C    0.6936
      5      H   -0.2072
      6      H   -0.1762
      7      N    0.5781
      8      O   -0.3599
      9      O   -0.3945
     10      N    0.3249
     11      H   -0.0755
     12      H   -0.0070


Dipole moment vector    (Debye):    -6.90235647    1.87591115    4.20703234
              magnitude (Debye):     8.29823407


-----------------------
Molecular orbitals info
-----------------------
n orbitals:              267
n spin:                    1

Note: only printing virtual orbitals with
      energy smaller than HOMO + 100. eV

HOMO (eV):              -5.3084
LUMO (eV):              -4.9722
HOMO-LUMO gap (eV):      0.3363

   Index   Energy (eV)    Occupation
     176       93.8248         0.000       
     175       93.5257         0.000       
     174       93.0057         0.000       
     173       92.8503         0.000       
     172       92.0636         0.000       
     171       90.9944         0.000       
     170       89.5407         0.000       
     169       89.0516         0.000       
     168       88.2012         0.000       
     167       87.1591         0.000       
     166       86.2302         0.000       
     165       83.9577         0.000       
     164       83.4520         0.000       
     163       82.5007         0.000       
     162       81.0429         0.000       
     161       80.4390         0.000       
     160       80.0952         0.000       
     159       78.6441         0.000       
     158       77.8113         0.000       
     157       77.4493         0.000       
     156       76.4444         0.000       
     155       76.0291         0.000       
     154       75.4350         0.000       
     153       74.9138         0.000       
     152       74.0100         0.000       
     151       73.5361         0.000       
     150       72.9405         0.000       
     149       72.5728         0.000       
     148       70.1205         0.000       
     147       69.6843         0.000       
     146       67.6381         0.000       
     145       65.2566         0.000       
     144       63.1309         0.000       
     143       62.6443         0.000       
     142       61.7069         0.000       
     141       60.4221         0.000       
     140       59.5094         0.000       
     139       57.6061         0.000       
     138       57.4878         0.000       
     137       56.5366         0.000       
     136       54.5031         0.000       
     135       54.1501         0.000       
     134       53.1038         0.000       
     133       52.4432         0.000       
     132       51.2639         0.000       
     131       50.6321         0.000       
     130       49.0997         0.000       
     129       48.0149         0.000       
     128       47.4726         0.000       
     127       46.4671         0.000       
     126       45.4808         0.000       
     125       43.7728         0.000       
     124       43.3178         0.000       
     123       42.5715         0.000       
     122       41.9743         0.000       
     121       41.2250         0.000       
     120       40.0061         0.000       
     119       38.1530         0.000       
     118       37.5446         0.000       
     117       37.3833         0.000       
     116       36.1046         0.000       
     115       35.7962         0.000       
     114       35.0728         0.000       
     113       34.6972         0.000       
     112       33.7402         0.000       
     111       33.6540         0.000       
     110       33.3276         0.000       
     109       32.3090         0.000       
     108       31.4759         0.000       
     107       30.9295         0.000       
     106       30.4952         0.000       
     105       30.1556         0.000       
     104       29.3978         0.000       
     103       29.0537         0.000       
     102       28.5085         0.000       
     101       28.0866         0.000       
     100       27.4433         0.000       
      99       26.9682         0.000       
      98       26.6026         0.000       
      97       26.4177         0.000       
      96       25.6477         0.000       
      95       25.3952         0.000       
      94       24.9590         0.000       
      93       24.7514         0.000       
      92       24.5093         0.000       
      91       22.7307         0.000       
      90       21.9278         0.000       
      89       21.1273         0.000       
      88       20.9314         0.000       
      87       19.5639         0.000       
      86       19.0891         0.000       
      85       18.2226         0.000       
      84       17.5735         0.000       
      83       16.9020         0.000       
      82       15.8887         0.000       
      81       15.2383         0.000       
      80       14.2717         0.000       
      79       13.8669         0.000       
      78       13.1799         0.000       
      77       12.2706         0.000       
      76       11.8914         0.000       
      75       11.5057         0.000       
      74       11.0357         0.000       
      73       10.8548         0.000       
      72       10.2766         0.000       
      71        9.9677         0.000       
      70        9.7761         0.000       
      69        9.0335         0.000       
      68        8.8511         0.000       
      67        8.5180         0.000       
      66        8.4671         0.000       
      65        8.1165         0.000       
      64        7.7599         0.000       
      63        7.1548         0.000       
      62        6.8180         0.000       
      61        6.4884         0.000       
      60        5.8551         0.000       
      59        5.6581         0.000       
      58        5.5754         0.000       
      57        5.3547         0.000       
      56        4.7612         0.000       
      55        4.3104         0.000       
      54        4.1003         0.000       
      53        3.4904         0.000       
      52        3.4396         0.000       
      51        2.8876         0.000       
      50        2.0801         0.000       
      49        1.6280         0.000       
      48        1.4086         0.000       
      47        0.8403         0.000       
      46       -0.2182         0.000       
      45       -0.4692         0.000       
      44       -1.4550         0.000       
      43       -2.4158         0.000       
      42       -4.9722         0.000 < LUMO
      41       -5.3084         2.000 < HOMO
      40       -5.3271         2.000       
      39       -5.7258         2.000       
      38       -7.7701         2.000       
      37       -8.2800         2.000       
      36       -8.4981         2.000       
      35      -10.4457         2.000       
      34      -11.2996         2.000       
      33      -12.1060         2.000       
      32      -12.1882         2.000       
      31      -13.3134         2.000       
      30      -14.3027         2.000       
      29      -14.4467         2.000       
      28      -15.7619         2.000       
      27      -16.5810         2.000       
      26      -17.3699         2.000       
      25      -19.2001         2.000       
      24      -21.0515         2.000       
      23      -26.2364         2.000       
      22      -27.5158         2.000       
      21      -31.8240         2.000       
      20      -63.6304         2.000       
      19      -63.6305         2.000       
      18      -63.7638         2.000       
      17      -63.7658         2.000       
      16      -63.8091         2.000       
      15     -170.1820         2.000       
      14     -170.1851         2.000       
      13     -170.3651         2.000       
      12     -234.0154         2.000       
      11     -271.5367         2.000       
      10     -274.8466         2.000       
       9     -384.8292         2.000       
       8     -388.6574         2.000       
       7     -513.2317         2.000       
       6     -513.2879         2.000       
       5    -1524.2746         2.000       
       4    -1524.2758         2.000       
       3    -1524.3367         2.000       
       2    -1727.3828         2.000       
       1   -13293.8987         2.000       

AMS application finished. Exiting.
NORMAL TERMINATION
     Total cpu time:      46.88
  Total system time:       0.39
 Total elapsed time:      47.43
NORMAL TERMINATION
