
 *******************************************************************************
 *                                                                             *
 *  --------------------------------                                           *
 *   Amsterdam Modeling Suite (AMS)              2026.103                      *
 *  --------------------------------                                           *
 *                                               r260501 2026-05-01 873454b5   *
 *                                                                             *
 *                                                                             *
 *                              =================                              *
 *                              |               |                              *
 *                              |     A M S     |                              *
 *                              |               |                              *
 *                              =================                              *
 *                                                                             *
 *                                                                             *
 *   Online information and documentation:  https://www.scm.com/support/       *
 *   E-mail:  support@scm.com   info@scm.com                                   *
 *                                                                             *
 *   Scientific publications using AMS results must be properly referenced     *
 *   See the User Manuals (or the web site) for recommended citations          *
 *   The terms and conditions of the End User License Agreement apply to       *
 *   the use of AMS, https://www.scm.com/license-terms/                        *
 *                                                                             *
 **********************  x86_64_linux_intel / intelmpi  ************************
 
 Licensed to: Jong-June Jeon / University of Seoul 2026-06-02 13:44:15
 SCM User ID: u30731
  
 AMS 2026.103  RunTime: Jun04-2026 04:12:27  ShM Nodes: 1  Procs: 1

 AMS jobname: c3_eda
 AMS jobid  : 652390774

 Start   directory: /gpfs/home1/yeseo1ee/projects/eda-asm-prediction/ADF_800/adf_outputs/batch_007/qmrxn20_sn2_E_B_A_E_C_B/
 Results directory: /gpfs/home1/yeseo1ee/projects/eda-asm-prediction/ADF_800/adf_outputs/batch_007/qmrxn20_sn2_E_B_A_E_C_B/c3_eda.results/
 Scratch directory: /tmp/amstmp_c3_eda_kid0.652390774/

 RNG seed: -1860846551 952524116 -573901268 1779356011 -1347547727 -2077710483 705466106 -1955700181



                      ************************************************************************
                      *  ADF 2026.103  RunTime: Jun04-2026 04:12:27  ShM Nodes: 1  Procs: 1  *
                      ************************************************************************
  

       ****************************
       * SINGLE POINT CALCULATION *
       ****************************

--------
Geometry
--------
Formula: C2H6BrFN3O2
Atoms
  Index Symbol   x (angstrom)   y (angstrom)   z (angstrom)
      1      F     2.45988005    -0.18157509    -0.07633401 adf.f=fA
      2      C     0.45824353     0.04761125    -0.01245346 adf.f=fB
      3      H     1.71788443     1.72153041     0.22384400 adf.f=fB
      4     Br    -1.86864938     0.04910425     0.28724290 adf.f=fB
      5      C     0.65167532     1.56270808     0.09632136 adf.f=fB
      6      H     0.13035735     1.92405705     0.98007065 adf.f=fB
      7      N     0.44794835    -0.61334947    -1.25725450 adf.f=fB
      8      H    -0.20683891    -1.38168337    -1.23199800 adf.f=fB
      9      H     1.40346152    -0.95047997    -1.34135781 adf.f=fB
     10      N     0.68767649    -0.76518503     1.24235390 adf.f=fB
     11      O     0.86611018    -0.14502270     2.28292894 adf.f=fB
     12      O     0.65586423    -1.98404411     1.13247772 adf.f=fB
     13      N     0.18519987     2.28696588    -1.07418827 adf.f=fB
     14      H    -0.80678075     2.09315524    -1.16733981 adf.f=fB
     15      H     0.62034773     1.85351757    -1.88104362 adf.f=fB

Total System Charge             -1.00000


----------------
ADF Engine Input
----------------
 
   Basis
     Type TZ2P
     Core None
   End
   XC
     GGA BLYP
     Dispersion GRIMME3 BJDAMP
   End
   Symmetry NOSYM
   NumericalQuality Normal
   Unrestricted No
   SCF
     Iterations 200
     Converge 1.0e-6
   End
   fragments
     fA c1_fragA_ts.results/adf.rkf
     fB c2_fragB_ts.results/adf.rkf
   end
   etsnocv
     enocv 0.05
     ekmin 0.5
   end
   print etslowdin
   Save TAPE21
 

 Title: *** (NO TITLE) ***

 *** adf ***



 ===========================
 A T T A C H E D   F I L E S
 ===========================
  



 ===============================
 M O D E L   P A R A M E T E R S
 ===============================
  
 DENSITY FUNCTIONAL POTENTIAL (scf)
    LDA:                               Exchange only                           == Not Default ==
    Gradient Corrections:              Becke88 LYP                             == Not Default ==

 SPIN  (restricted / unrestr.)
    Molecule:                          Restricted                               
    Fragments:                         Restricted                               

 OTHER ASPECTS
    Relativistic Corrections:          scalar (ZORA,MAPA)                       

    Nuclear Charge Density Model:      Point Charge Nuclei                      
    Core Treatment:                    Frozen Orbital(s)                        

    Hyperfine or Zeeman Interaction:   ---                                      

 Settings for Grimme D3 dispersion correction

      damping                        BJ
      s6                          1.000
      s8                          2.700
      a1                          0.430
      a2                          4.236

 Other (technical) parameters

      alpha                      14.000
      version                         4
 


 Fragment File(s)
 ----------------
 fA:
         file : c1_fragA_ts.results/adf.rkf
         jobid: 1967955940
         title: *** adf ***
 fB:
         file : c2_fragB_ts.results/adf.rkf
         jobid: 1724242465
         title: *** adf ***



 ===============
 G E O M E T R Y  ***  3D  Molecule  ***
 ===============
  

 ATOMS
 =====                            X Y Z                    CHARGE
                                (Angstrom)             Nucl     +Core       At.Mass
                       --------------------------    ----------------       -------
    1  F               2.4599   -0.1816   -0.0763      9.00      9.00       18.9984
    2  C               0.4582    0.0476   -0.0125      6.00      6.00       12.0000
    3  H               1.7179    1.7215    0.2238      1.00      1.00        1.0078
    4  Br             -1.8686    0.0491    0.2872     35.00     35.00       78.9183
    5  C               0.6517    1.5627    0.0963      6.00      6.00       12.0000
    6  H               0.1304    1.9241    0.9801      1.00      1.00        1.0078
    7  N               0.4479   -0.6133   -1.2573      7.00      7.00       14.0031
    8  H              -0.2068   -1.3817   -1.2320      1.00      1.00        1.0078
    9  H               1.4035   -0.9505   -1.3414      1.00      1.00        1.0078
   10  N               0.6877   -0.7652    1.2424      7.00      7.00       14.0031
   11  O               0.8661   -0.1450    2.2829      8.00      8.00       15.9949
   12  O               0.6559   -1.9840    1.1325      8.00      8.00       15.9949
   13  N               0.1852    2.2870   -1.0742      7.00      7.00       14.0031
   14  H              -0.8068    2.0932   -1.1673      1.00      1.00        1.0078
   15  H               0.6203    1.8535   -1.8810      1.00      1.00        1.0078


 FRAGMENTS
 =========                                     Atoms in this Fragment     Cart. coord.s (Angstrom)
                                               -------------------------------------------------------
    1  fA                                                1  F            2.4599   -0.1816   -0.0763
    2  fB                                                2  C            0.4582    0.0476   -0.0125
                                                         5  C            0.6517    1.5627    0.0963
                                                         3  H            1.7179    1.7215    0.2238
                                                         6  H            0.1304    1.9241    0.9801
                                                         8  H           -0.2068   -1.3817   -1.2320
                                                         9  H            1.4035   -0.9505   -1.3414
                                                        14  H           -0.8068    2.0932   -1.1673
                                                        15  H            0.6203    1.8535   -1.8810
                                                         4  Br          -1.8686    0.0491    0.2872
                                                         7  N            0.4479   -0.6133   -1.2573
                                                        10  N            0.6877   -0.7652    1.2424
                                                        13  N            0.1852    2.2870   -1.0742
                                                        11  O            0.8661   -0.1450    2.2829
                                                        12  O            0.6559   -1.9840    1.1325


 Interatomic Distance Matrix (Angstrom)
 --------------------------------------

   1)     0.000
   2)     2.016   0.000
   3)     2.065   2.108   0.000
   4)     4.350   2.346   3.958   0.000
   5)     2.518   1.531   1.085   2.946   0.000
   6)     3.313   2.148   1.770   2.827   1.088   0.000
   7)     2.373   1.409   3.043   2.862   2.571   3.398   0.000
   8)     3.144   1.993   3.931   2.668   3.342   3.992   1.010   0.000
   9)     1.819   1.912   3.113   3.789   2.991   3.908   1.017   1.671   0.000
  10)     2.285   1.513   2.878   2.848   2.595   2.759   2.516   2.702   2.687   0.000
  11)     2.847   2.339   2.907   3.391   2.783   2.553   3.595   3.878   3.751   1.224
          0.000
  12)     2.822   2.340   3.960   3.350   3.695   3.946   2.763   2.588   2.783   1.224
          2.179   0.000
  13)     3.502   2.493   2.087   3.329   1.453   2.087   2.918   3.693   3.469   3.865
          4.201   4.830   0.000
  14)     4.127   2.668   2.906   2.724   2.001   2.349   2.985   3.527   3.766   4.026
          4.440   4.904   1.015   0.000
  15)     3.284   2.604   2.378   3.762   1.999   2.904   2.550   3.402   2.961   4.076
          4.625   4.879   1.014   1.614   0.000

 Min. Distance =    1.0098
 Max. Distance =    4.9043



 =====================================
 S Y M M E T R Y ,   E L E C T R O N S
 =====================================
  
 Symmetry: NOSYM

 Irreducible Representations, including subspecies
 -------------------------------------------------
 A


 Configuration of Valence Electrons
 ==================================
 ( determined in the SCF procedure )

 Total:   100

 Net Charge: -1 (Nuclei minus Electrons)

 Aufbau principle for MO occupations will be applied through SCF cycle no.     100
 Thereafter, the program will assign electrons to MOs that are spatially
 similar to the occupied MOs in a "reference" cycle ("KeepOrbitals").
 The reference cycle is always the PREVIOUS cycle: it will evolve with
 the SCF procedure.
 ***************************************************************************************************



                                      ****************************************
                                      *  B U I L D : (Fragments, Functions)  *
                                      ****************************************
  

 The individual fragments are copies of the corresponding 'Master' fragments defined on the fragment files.
 However, they may have been rotated (and translated) with respect to the Master. The local coordinate axes
 of each fragment (which define for instance the spatial orientation in the current molecule of a fragment
 P:x orbital) are not necessarily those of the molecule.
 The local frame (if different from the molecular one) is printed to enable an interpretation of the expan-
 sion of an MO in Fragment Orbitals.



                                              ************************
                                              *  Fragment Type : fA  *
                                              ************************
  

 Fragment no.    1   (in the list of all fragments)
 -----------------
 The local coordinate frame is identical to the molecular frame.

 Check Atomic Coordinates:

                  Master (on file)          After Computed Tranformation               As specified on Input
           ----------------------------     ----------------------------     ---------------------------------
     1)     2.45988  -0.18158  -0.07633      2.45988  -0.18158  -0.07633       1   2.45988  -0.18158  -0.07633



                                              ************************
                                              *  Fragment Type : fB  *
                                              ************************
  

 Fragment no.    2   (in the list of all fragments)
 -----------------
 The local coordinate frame is identical to the molecular frame.

 Check Atomic Coordinates:

                  Master (on file)          After Computed Tranformation               As specified on Input
           ----------------------------     ----------------------------     ---------------------------------
     1)     0.45824   0.04761  -0.01245      0.45824   0.04761  -0.01245       2   0.45824   0.04761  -0.01245
     2)     0.65168   1.56271   0.09632      0.65168   1.56271   0.09632       5   0.65168   1.56271   0.09632
     3)     1.71788   1.72153   0.22384      1.71788   1.72153   0.22384       3   1.71788   1.72153   0.22384
     4)     0.13036   1.92406   0.98007      0.13036   1.92406   0.98007       6   0.13036   1.92406   0.98007
     5)    -0.20684  -1.38168  -1.23200     -0.20684  -1.38168  -1.23200       8  -0.20684  -1.38168  -1.23200
     6)     1.40346  -0.95048  -1.34136      1.40346  -0.95048  -1.34136       9   1.40346  -0.95048  -1.34136
     7)    -0.80678   2.09316  -1.16734     -0.80678   2.09316  -1.16734      14  -0.80678   2.09316  -1.16734
     8)     0.62035   1.85352  -1.88104      0.62035   1.85352  -1.88104      15   0.62035   1.85352  -1.88104
     9)    -1.86865   0.04910   0.28724     -1.86865   0.04910   0.28724       4  -1.86865   0.04910   0.28724
    10)     0.44795  -0.61335  -1.25725      0.44795  -0.61335  -1.25725       7   0.44795  -0.61335  -1.25725
    11)     0.68768  -0.76519   1.24235      0.68768  -0.76519   1.24235      10   0.68768  -0.76519   1.24235
    12)     0.18520   2.28697  -1.07419      0.18520   2.28697  -1.07419      13   0.18520   2.28697  -1.07419
    13)     0.86611  -0.14502   2.28293      0.86611  -0.14502   2.28293      11   0.86611  -0.14502   2.28293
    14)     0.65586  -1.98404   1.13248      0.65586  -1.98404   1.13248      12   0.65586  -1.98404   1.13248



 =======
 S F O s  ***  (Symmetrized Fragment Orbitals)  ***
 =======
  
 SFOs are linear combinations of (valence) Fragment Orbitals (FOs), such that the SFOs transform as the
 irreducible representations of the (molecular) symmetry group. Each SFO is therefore characterized by
 an irrep of the molecule and by a few (or only one) generating FOs.
 The SFOs constitute a symmetry-adapted basis for the Fock matrix. The MO eigenvector coefficients in
 this basis provide a direct interpretation of the MOs in terms of Frontier Orbital Theory.

 The SFOs are combined with auxiliary Core Functions (CFs) to ensure orthogonalization on the (frozen)
 Core Orbitals (COs). The Core-orthogonalized SFOs (CSFOs) constitute the true Fock basis.

 The FOs, and hence also the (C)SFOs are combinations of the elementary basis functions (BAS). The basis
 functions that participate in the description of the SFOs depend on the irrep. The indices of the
 involved functions are printed below for each irrep.
 (The complete list of primitive basis functions is printed in another section)

 Total nr. of (C)SFOs (summation over all irreps) :   330

 NOTE: a (C)SFO that is defined as a combination of more than one FO is usually NOT normalized.



                                       === A ===
 Nr. of SFOs :  330
 Cartesian basis functions that participate in this irrep (total number =   375) :
      1     2     3     4     5     6     9    12     7    10
     13     8    11    14    15    16    17    18    19    20
     21    22    23    24    25    26    27    28    29    30
     31    32    33    34    35    36    39    42    37    40
     43    38    41    44    45    46    47    48    49    50
     51    52    53    54    55    56    57    58    59    60
     61    62    63    64    65    66    69    72    67    70
     73    68    71    74    75    76    77    78    79    80
     81    82    83    84    85    86    87    88    89    90
     91    92    93    94    95    96    97    98    99   100
    101   102   103   104   105   106   107   108   109   110
    111   112   113   114   115   116   117   118   119   120
    121   122   123   124   125   126   127   128   129   130
    131   132   133   134   135   136   137   138   139   140
    141   142   143   144   145   146   147   148   149   150
    151   152   153   154   155   156   157   158   159   160
    161   162   163   164   165   172   173   198   199   200
    166   169   174   177   201   204   207   167   170   175
    178   202   205   208   168   171   176   179   203   206
    209   180   186   192   210   181   187   193   211   182
    188   194   212   183   189   195   213   184   190   196
    214   185   191   197   215   216   217   218   219   220
    221   222   223   224   225   226   227   228   229   230
    231   234   237   232   235   238   233   236   239   240
    241   242   243   244   245   246   247   248   249   250
    251   252   253   254   255   256   257   258   259   260
    261   264   267   262   265   268   263   266   269   270
    271   272   273   274   275   276   277   278   279   280
    281   282   283   284   285   286   287   288   289   290
    291   294   297   292   295   298   293   296   299   300
    301   302   303   304   305   306   307   308   309   310
    311   312   313   314   315   316   317   318   319   320
    321   324   327   322   325   328   323   326   329   330
    331   332   333   334   335   336   337   338   339   340
    341   342   343   344   345   346   347   348   349   350
    351   354   357   352   355   358   353   356   359   360
    361   362   363   364   365   366   367   368   369   370
    371   372   373   374   375

    SFO  (index         Fragment          Generating    Expansion in Fragment Orbitals
  indx  incl.CFs)   Occup   Orb.Energy   FragmentType  Coeff.   Orbital     on Fragment
 --------------------------------------------------------------------------------------
     1       1      2.000     -23.816 au  fA            1.00      1 A               1
                        (    -648.061 eV)
     2       2      2.000      -0.558 au  fA            1.00      2 A               1
                        (     -15.175 eV)
     3       3      2.000       0.108 au  fA            1.00      3 A               1
                        (       2.943 eV)
     4       4      2.000       0.108 au  fA            1.00      4 A               1
                        (       2.943 eV)
     5       5      2.000       0.108 au  fA            1.00      5 A               1
                        (       2.943 eV)
     6       6       --         0.286 au  fA            1.00      6 A               1
                        (       7.775 eV)
     7       7       --         0.812 au  fA            1.00      7 A               1
                        (      22.094 eV)
     8       8       --         0.812 au  fA            1.00      8 A               1
                        (      22.094 eV)
     9       9       --         0.812 au  fA            1.00      9 A               1
                        (      22.094 eV)
    10      10       --         1.565 au  fA            1.00     10 A               1
                        (      42.594 eV)
    11      11       --         1.565 au  fA            1.00     11 A               1
                        (      42.594 eV)
    12      12       --         1.565 au  fA            1.00     12 A               1
                        (      42.594 eV)
    13      13       --         1.565 au  fA            1.00     13 A               1
                        (      42.594 eV)
    14      14       --         1.565 au  fA            1.00     14 A               1
                        (      42.594 eV)
    15      15       --         2.036 au  fA            1.00     15 A               1
                        (      55.390 eV)
    16      16       --         3.895 au  fA            1.00     16 A               1
                        (     106.000 eV)
    17      17       --         3.895 au  fA            1.00     17 A               1
                        (     106.000 eV)
    18      18       --         3.895 au  fA            1.00     18 A               1
                        (     106.000 eV)
    19      19       --         3.895 au  fA            1.00     19 A               1
                        (     106.000 eV)
    20      20       --         3.895 au  fA            1.00     20 A               1
                        (     106.000 eV)
    21      21       --         3.895 au  fA            1.00     21 A               1
                        (     106.000 eV)
    22      22       --         3.895 au  fA            1.00     22 A               1
                        (     106.000 eV)
    23      23       --         5.080 au  fA            1.00     23 A               1
                        (     138.227 eV)
    24      24       --         5.080 au  fA            1.00     24 A               1
                        (     138.227 eV)
    25      25       --         5.080 au  fA            1.00     25 A               1
                        (     138.227 eV)
    26      26       --        48.370 au  fA            1.00     26 A               1
                        (    1316.209 eV)
    27      27      2.000    -488.618 au  fB            1.00      1 A               2
                        (  -13295.973 eV)
    28      28      2.000     -63.557 au  fB            1.00      2 A               2
                        (   -1729.485 eV)
    29      29      2.000     -56.097 au  fB            1.00      3 A               2
                        (   -1526.472 eV)
    30      30      2.000     -56.093 au  fB            1.00      4 A               2
                        (   -1526.359 eV)
    31      31      2.000     -56.093 au  fB            1.00      5 A               2
                        (   -1526.357 eV)
    32      32      2.000     -18.854 au  fB            1.00      6 A               2
                        (    -513.041 eV)
    33      33      2.000     -18.853 au  fB            1.00      7 A               2
                        (    -513.025 eV)
    34      34      2.000     -14.270 au  fB            1.00      8 A               2
                        (    -388.295 eV)
    35      35      2.000     -14.074 au  fB            1.00      9 A               2
                        (    -382.975 eV)
    36      36      2.000     -14.024 au  fB            1.00     10 A               2
                        (    -381.600 eV)
    37      37      2.000     -10.090 au  fB            1.00     11 A               2
                        (    -274.575 eV)
    38      38      2.000      -9.988 au  fB            1.00     12 A               2
                        (    -271.793 eV)
    39      39      2.000      -8.677 au  fB            1.00     13 A               2
                        (    -236.126 eV)
    40      40      2.000      -6.342 au  fB            1.00     14 A               2
                        (    -172.574 eV)
    41      41      2.000      -6.330 au  fB            1.00     15 A               2
                        (    -172.247 eV)
    42      42      2.000      -6.330 au  fB            1.00     16 A               2
                        (    -172.242 eV)
    43      43      2.000      -2.425 au  fB            1.00     17 A               2
                        (     -65.992 eV)
    44      44      2.000      -2.422 au  fB            1.00     18 A               2
                        (     -65.914 eV)
    45      45      2.000      -2.422 au  fB            1.00     19 A               2
                        (     -65.911 eV)
    46      46      2.000      -2.413 au  fB            1.00     20 A               2
                        (     -65.669 eV)
    47      47      2.000      -2.413 au  fB            1.00     21 A               2
                        (     -65.667 eV)
    48      48      2.000      -1.158 au  fB            1.00     22 A               2
                        (     -31.514 eV)
    49      49      2.000      -0.997 au  fB            1.00     23 A               2
                        (     -27.121 eV)
    50      50      2.000      -0.901 au  fB            1.00     24 A               2
                        (     -24.507 eV)
    51      51      2.000      -0.833 au  fB            1.00     25 A               2
                        (     -22.660 eV)
    52      52      2.000      -0.742 au  fB            1.00     26 A               2
                        (     -20.201 eV)
    53      53      2.000      -0.709 au  fB            1.00     27 A               2
                        (     -19.294 eV)
    54      54      2.000      -0.641 au  fB            1.00     28 A               2
                        (     -17.445 eV)
    55      55      2.000      -0.549 au  fB            1.00     29 A               2
                        (     -14.947 eV)
    56      56      2.000      -0.531 au  fB            1.00     30 A               2
                        (     -14.441 eV)
    57      57      2.000      -0.521 au  fB            1.00     31 A               2
                        (     -14.190 eV)
    58      58      2.000      -0.494 au  fB            1.00     32 A               2
                        (     -13.442 eV)
    59      59      2.000      -0.485 au  fB            1.00     33 A               2
                        (     -13.192 eV)
    60      60      2.000      -0.474 au  fB            1.00     34 A               2
                        (     -12.902 eV)
    61      61      2.000      -0.442 au  fB            1.00     35 A               2
                        (     -12.014 eV)
    62      62      2.000      -0.398 au  fB            1.00     36 A               2
                        (     -10.821 eV)
    63      63      2.000      -0.374 au  fB            1.00     37 A               2
                        (     -10.181 eV)
    64      64      2.000      -0.318 au  fB            1.00     38 A               2
                        (      -8.662 eV)
    65      65      2.000      -0.307 au  fB            1.00     39 A               2
                        (      -8.346 eV)
    66      66      2.000      -0.303 au  fB            1.00     40 A               2
                        (      -8.253 eV)
    67      67      2.000      -0.286 au  fB            1.00     41 A               2
                        (      -7.776 eV)
    68      68      2.000      -0.265 au  fB            1.00     42 A               2
                        (      -7.209 eV)
    69      69      2.000      -0.260 au  fB            1.00     43 A               2
                        (      -7.069 eV)
    70      70      2.000      -0.257 au  fB            1.00     44 A               2
                        (      -6.985 eV)
    71      71      2.000      -0.233 au  fB            1.00     45 A               2
                        (      -6.346 eV)
    72      72       --        -0.176 au  fB            1.00     46 A               2
                        (      -4.783 eV)
    73      73       --        -0.096 au  fB            1.00     47 A               2
                        (      -2.616 eV)
    74      74       --        -0.038 au  fB            1.00     48 A               2
                        (      -1.036 eV)
    75      75       --         0.005 au  fB            1.00     49 A               2
                        (       0.148 eV)
    76      76       --         0.012 au  fB            1.00     50 A               2
                        (       0.318 eV)
    77      77       --         0.021 au  fB            1.00     51 A               2
                        (       0.575 eV)
    78      78       --         0.043 au  fB            1.00     52 A               2
                        (       1.169 eV)
    79      79       --         0.052 au  fB            1.00     53 A               2
                        (       1.410 eV)
    80      80       --         0.068 au  fB            1.00     54 A               2
                        (       1.838 eV)
    81      81       --         0.092 au  fB            1.00     55 A               2
                        (       2.512 eV)
    82      82       --         0.117 au  fB            1.00     56 A               2
                        (       3.183 eV)
    83      83       --         0.134 au  fB            1.00     57 A               2
                        (       3.651 eV)
    84      84       --         0.137 au  fB            1.00     58 A               2
                        (       3.728 eV)
    85      85       --         0.155 au  fB            1.00     59 A               2
                        (       4.212 eV)
    86      86       --         0.166 au  fB            1.00     60 A               2
                        (       4.513 eV)
    87      87       --         0.176 au  fB            1.00     61 A               2
                        (       4.793 eV)
    88      88       --         0.179 au  fB            1.00     62 A               2
                        (       4.858 eV)
    89      89       --         0.187 au  fB            1.00     63 A               2
                        (       5.084 eV)
    90      90       --         0.199 au  fB            1.00     64 A               2
                        (       5.404 eV)
    91      91       --         0.202 au  fB            1.00     65 A               2
                        (       5.494 eV)
    92      92       --         0.218 au  fB            1.00     66 A               2
                        (       5.928 eV)
    93      93       --         0.233 au  fB            1.00     67 A               2
                        (       6.353 eV)
    94      94       --         0.249 au  fB            1.00     68 A               2
                        (       6.780 eV)
    95      95       --         0.256 au  fB            1.00     69 A               2
                        (       6.961 eV)
    96      96       --         0.273 au  fB            1.00     70 A               2
                        (       7.440 eV)
    97      97       --         0.282 au  fB            1.00     71 A               2
                        (       7.661 eV)
    98      98       --         0.296 au  fB            1.00     72 A               2
                        (       8.054 eV)
    99      99       --         0.310 au  fB            1.00     73 A               2
                        (       8.433 eV)
   100     100       --         0.315 au  fB            1.00     74 A               2
                        (       8.573 eV)
   101     101       --         0.322 au  fB            1.00     75 A               2
                        (       8.769 eV)
   102     102       --         0.350 au  fB            1.00     76 A               2
                        (       9.518 eV)
   103     103       --         0.356 au  fB            1.00     77 A               2
                        (       9.690 eV)
   104     104       --         0.372 au  fB            1.00     78 A               2
                        (      10.133 eV)
   105     105       --         0.377 au  fB            1.00     79 A               2
                        (      10.271 eV)
   106     106       --         0.407 au  fB            1.00     80 A               2
                        (      11.069 eV)
   107     107       --         0.408 au  fB            1.00     81 A               2
                        (      11.110 eV)
   108     108       --         0.438 au  fB            1.00     82 A               2
                        (      11.913 eV)
   109     109       --         0.444 au  fB            1.00     83 A               2
                        (      12.079 eV)
   110     110       --         0.454 au  fB            1.00     84 A               2
                        (      12.342 eV)
   111     111       --         0.468 au  fB            1.00     85 A               2
                        (      12.722 eV)
   112     112       --         0.491 au  fB            1.00     86 A               2
                        (      13.361 eV)
   113     113       --         0.512 au  fB            1.00     87 A               2
                        (      13.945 eV)
   114     114       --         0.528 au  fB            1.00     88 A               2
                        (      14.370 eV)
   115     115       --         0.543 au  fB            1.00     89 A               2
                        (      14.770 eV)
   116     116       --         0.558 au  fB            1.00     90 A               2
                        (      15.191 eV)
   117     117       --         0.592 au  fB            1.00     91 A               2
                        (      16.097 eV)
   118     118       --         0.631 au  fB            1.00     92 A               2
                        (      17.172 eV)
   119     119       --         0.636 au  fB            1.00     93 A               2
                        (      17.309 eV)
   120     120       --         0.657 au  fB            1.00     94 A               2
                        (      17.865 eV)
   121     121       --         0.686 au  fB            1.00     95 A               2
                        (      18.671 eV)
   122     122       --         0.710 au  fB            1.00     96 A               2
                        (      19.324 eV)
   123     123       --         0.755 au  fB            1.00     97 A               2
                        (      20.533 eV)
   124     124       --         0.779 au  fB            1.00     98 A               2
                        (      21.188 eV)
   125     125       --         0.785 au  fB            1.00     99 A               2
                        (      21.363 eV)
   126     126       --         0.832 au  fB            1.00    100 A               2
                        (      22.637 eV)
   127     127       --         0.837 au  fB            1.00    101 A               2
                        (      22.767 eV)
   128     128       --         0.852 au  fB            1.00    102 A               2
                        (      23.194 eV)
   129     129       --         0.881 au  fB            1.00    103 A               2
                        (      23.962 eV)
   130     130       --         0.897 au  fB            1.00    104 A               2
                        (      24.413 eV)
   131     131       --         0.922 au  fB            1.00    105 A               2
                        (      25.101 eV)
   132     132       --         0.935 au  fB            1.00    106 A               2
                        (      25.455 eV)
   133     133       --         0.941 au  fB            1.00    107 A               2
                        (      25.619 eV)
   134     134       --         0.974 au  fB            1.00    108 A               2
                        (      26.513 eV)
   135     135       --         1.019 au  fB            1.00    109 A               2
                        (      27.716 eV)
   136     136       --         1.029 au  fB            1.00    110 A               2
                        (      27.993 eV)
   137     137       --         1.048 au  fB            1.00    111 A               2
                        (      28.528 eV)
   138     138       --         1.065 au  fB            1.00    112 A               2
                        (      28.976 eV)
   139     139       --         1.094 au  fB            1.00    113 A               2
                        (      29.762 eV)
   140     140       --         1.109 au  fB            1.00    114 A               2
                        (      30.176 eV)
   141     141       --         1.110 au  fB            1.00    115 A               2
                        (      30.197 eV)
   142     142       --         1.126 au  fB            1.00    116 A               2
                        (      30.654 eV)
   143     143       --         1.162 au  fB            1.00    117 A               2
                        (      31.621 eV)
   144     144       --         1.182 au  fB            1.00    118 A               2
                        (      32.174 eV)
   145     145       --         1.194 au  fB            1.00    119 A               2
                        (      32.494 eV)
   146     146       --         1.201 au  fB            1.00    120 A               2
                        (      32.674 eV)
   147     147       --         1.216 au  fB            1.00    121 A               2
                        (      33.084 eV)
   148     148       --         1.236 au  fB            1.00    122 A               2
                        (      33.640 eV)
   149     149       --         1.250 au  fB            1.00    123 A               2
                        (      34.011 eV)
   150     150       --         1.261 au  fB            1.00    124 A               2
                        (      34.317 eV)
   151     151       --         1.274 au  fB            1.00    125 A               2
                        (      34.680 eV)
   152     152       --         1.285 au  fB            1.00    126 A               2
                        (      34.966 eV)
   153     153       --         1.299 au  fB            1.00    127 A               2
                        (      35.353 eV)
   154     154       --         1.327 au  fB            1.00    128 A               2
                        (      36.109 eV)
   155     155       --         1.351 au  fB            1.00    129 A               2
                        (      36.756 eV)
   156     156       --         1.403 au  fB            1.00    130 A               2
                        (      38.168 eV)
   157     157       --         1.424 au  fB            1.00    131 A               2
                        (      38.738 eV)
   158     158       --         1.450 au  fB            1.00    132 A               2
                        (      39.452 eV)
   159     159       --         1.482 au  fB            1.00    133 A               2
                        (      40.332 eV)
   160     160       --         1.504 au  fB            1.00    134 A               2
                        (      40.920 eV)
   161     161       --         1.516 au  fB            1.00    135 A               2
                        (      41.265 eV)
   162     162       --         1.564 au  fB            1.00    136 A               2
                        (      42.557 eV)
   163     163       --         1.572 au  fB            1.00    137 A               2
                        (      42.776 eV)
   164     164       --         1.659 au  fB            1.00    138 A               2
                        (      45.145 eV)
   165     165       --         1.679 au  fB            1.00    139 A               2
                        (      45.685 eV)
   166     166       --         1.694 au  fB            1.00    140 A               2
                        (      46.092 eV)
   167     167       --         1.718 au  fB            1.00    141 A               2
                        (      46.760 eV)
   168     168       --         1.771 au  fB            1.00    142 A               2
                        (      48.198 eV)
   169     169       --         1.786 au  fB            1.00    143 A               2
                        (      48.598 eV)
   170     170       --         1.828 au  fB            1.00    144 A               2
                        (      49.755 eV)
   171     171       --         1.869 au  fB            1.00    145 A               2
                        (      50.853 eV)
   172     172       --         1.895 au  fB            1.00    146 A               2
                        (      51.576 eV)
   173     173       --         1.907 au  fB            1.00    147 A               2
                        (      51.897 eV)
   174     174       --         1.943 au  fB            1.00    148 A               2
                        (      52.879 eV)
   175     175       --         1.977 au  fB            1.00    149 A               2
                        (      53.788 eV)
   176     176       --         1.981 au  fB            1.00    150 A               2
                        (      53.918 eV)
   177     177       --         2.002 au  fB            1.00    151 A               2
                        (      54.464 eV)
   178     178       --         2.042 au  fB            1.00    152 A               2
                        (      55.571 eV)
   179     179       --         2.077 au  fB            1.00    153 A               2
                        (      56.522 eV)
   180     180       --         2.098 au  fB            1.00    154 A               2
                        (      57.077 eV)
   181     181       --         2.128 au  fB            1.00    155 A               2
                        (      57.916 eV)
   182     182       --         2.157 au  fB            1.00    156 A               2
                        (      58.707 eV)
   183     183       --         2.186 au  fB            1.00    157 A               2
                        (      59.496 eV)
   184     184       --         2.208 au  fB            1.00    158 A               2
                        (      60.074 eV)
   185     185       --         2.260 au  fB            1.00    159 A               2
                        (      61.504 eV)
   186     186       --         2.282 au  fB            1.00    160 A               2
                        (      62.102 eV)
   187     187       --         2.318 au  fB            1.00    161 A               2
                        (      63.078 eV)
   188     188       --         2.384 au  fB            1.00    162 A               2
                        (      64.884 eV)
   189     189       --         2.396 au  fB            1.00    163 A               2
                        (      65.196 eV)
   190     190       --         2.445 au  fB            1.00    164 A               2
                        (      66.525 eV)
   191     191       --         2.543 au  fB            1.00    165 A               2
                        (      69.211 eV)
   192     192       --         2.553 au  fB            1.00    166 A               2
                        (      69.484 eV)
   193     193       --         2.593 au  fB            1.00    167 A               2
                        (      70.572 eV)
   194     194       --         2.643 au  fB            1.00    168 A               2
                        (      71.907 eV)
   195     195       --         2.661 au  fB            1.00    169 A               2
                        (      72.403 eV)
   196     196       --         2.674 au  fB            1.00    170 A               2
                        (      72.755 eV)
   197     197       --         2.727 au  fB            1.00    171 A               2
                        (      74.217 eV)
   198     198       --         2.764 au  fB            1.00    172 A               2
                        (      75.218 eV)
   199     199       --         2.794 au  fB            1.00    173 A               2
                        (      76.034 eV)
   200     200       --         2.825 au  fB            1.00    174 A               2
                        (      76.866 eV)
   201     201       --         2.846 au  fB            1.00    175 A               2
                        (      77.436 eV)
   202     202       --         2.868 au  fB            1.00    176 A               2
                        (      78.030 eV)
   203     203       --         2.911 au  fB            1.00    177 A               2
                        (      79.202 eV)
   204     204       --         2.929 au  fB            1.00    178 A               2
                        (      79.701 eV)
   205     205       --         2.943 au  fB            1.00    179 A               2
                        (      80.084 eV)
   206     206       --         2.965 au  fB            1.00    180 A               2
                        (      80.675 eV)
   207     207       --         3.003 au  fB            1.00    181 A               2
                        (      81.720 eV)
   208     208       --         3.021 au  fB            1.00    182 A               2
                        (      82.201 eV)
   209     209       --         3.043 au  fB            1.00    183 A               2
                        (      82.804 eV)
   210     210       --         3.071 au  fB            1.00    184 A               2
                        (      83.572 eV)
   211     211       --         3.094 au  fB            1.00    185 A               2
                        (      84.197 eV)
   212     212       --         3.129 au  fB            1.00    186 A               2
                        (      85.140 eV)
   213     213       --         3.165 au  fB            1.00    187 A               2
                        (      86.134 eV)
   214     214       --         3.198 au  fB            1.00    188 A               2
                        (      87.035 eV)
   215     215       --         3.230 au  fB            1.00    189 A               2
                        (      87.881 eV)
   216     216       --         3.246 au  fB            1.00    190 A               2
                        (      88.319 eV)
   217     217       --         3.296 au  fB            1.00    191 A               2
                        (      89.678 eV)
   218     218       --         3.304 au  fB            1.00    192 A               2
                        (      89.903 eV)
   219     219       --         3.356 au  fB            1.00    193 A               2
                        (      91.309 eV)
   220     220       --         3.376 au  fB            1.00    194 A               2
                        (      91.864 eV)
   221     221       --         3.393 au  fB            1.00    195 A               2
                        (      92.337 eV)
   222     222       --         3.419 au  fB            1.00    196 A               2
                        (      93.033 eV)
   223     223       --         3.468 au  fB            1.00    197 A               2
                        (      94.367 eV)
   224     224       --         3.493 au  fB            1.00    198 A               2
                        (      95.041 eV)
   225     225       --         3.522 au  fB            1.00    199 A               2
                        (      95.842 eV)
   226     226       --         3.536 au  fB            1.00    200 A               2
                        (      96.218 eV)
   227     227       --         3.575 au  fB            1.00    201 A               2
                        (      97.269 eV)
   228     228       --         3.584 au  fB            1.00    202 A               2
                        (      97.537 eV)
   229     229       --         3.609 au  fB            1.00    203 A               2
                        (      98.197 eV)
   230     230       --         3.645 au  fB            1.00    204 A               2
                        (      99.177 eV)
   231     231       --         3.657 au  fB            1.00    205 A               2
                        (      99.499 eV)
   232     232       --         3.700 au  fB            1.00    206 A               2
                        (     100.671 eV)
   233     233       --         3.713 au  fB            1.00    207 A               2
                        (     101.047 eV)
   234     234       --         3.763 au  fB            1.00    208 A               2
                        (     102.403 eV)
   235     235       --         3.812 au  fB            1.00    209 A               2
                        (     103.734 eV)
   236     236       --         3.827 au  fB            1.00    210 A               2
                        (     104.140 eV)
   237     237       --         3.837 au  fB            1.00    211 A               2
                        (     104.407 eV)
   238     238       --         3.913 au  fB            1.00    212 A               2
                        (     106.467 eV)
   239     239       --         3.940 au  fB            1.00    213 A               2
                        (     107.222 eV)
   240     240       --         3.974 au  fB            1.00    214 A               2
                        (     108.141 eV)
   241     241       --         4.013 au  fB            1.00    215 A               2
                        (     109.187 eV)
   242     242       --         4.027 au  fB            1.00    216 A               2
                        (     109.577 eV)
   243     243       --         4.070 au  fB            1.00    217 A               2
                        (     110.754 eV)
   244     244       --         4.075 au  fB            1.00    218 A               2
                        (     110.890 eV)
   245     245       --         4.143 au  fB            1.00    219 A               2
                        (     112.741 eV)
   246     246       --         4.189 au  fB            1.00    220 A               2
                        (     113.990 eV)
   247     247       --         4.223 au  fB            1.00    221 A               2
                        (     114.926 eV)
   248     248       --         4.275 au  fB            1.00    222 A               2
                        (     116.338 eV)
   249     249       --         4.282 au  fB            1.00    223 A               2
                        (     116.531 eV)
   250     250       --         4.340 au  fB            1.00    224 A               2
                        (     118.084 eV)
   251     251       --         4.377 au  fB            1.00    225 A               2
                        (     119.101 eV)
   252     252       --         4.408 au  fB            1.00    226 A               2
                        (     119.961 eV)
   253     253       --         4.494 au  fB            1.00    227 A               2
                        (     122.292 eV)
   254     254       --         4.510 au  fB            1.00    228 A               2
                        (     122.729 eV)
   255     255       --         4.560 au  fB            1.00    229 A               2
                        (     124.074 eV)
   256     256       --         4.637 au  fB            1.00    230 A               2
                        (     126.184 eV)
   257     257       --         4.663 au  fB            1.00    231 A               2
                        (     126.884 eV)
   258     258       --         4.734 au  fB            1.00    232 A               2
                        (     128.813 eV)
   259     259       --         4.758 au  fB            1.00    233 A               2
                        (     129.477 eV)
   260     260       --         4.841 au  fB            1.00    234 A               2
                        (     131.721 eV)
   261     261       --         4.890 au  fB            1.00    235 A               2
                        (     133.054 eV)
   262     262       --         4.917 au  fB            1.00    236 A               2
                        (     133.802 eV)
   263     263       --         4.954 au  fB            1.00    237 A               2
                        (     134.805 eV)
   264     264       --         5.011 au  fB            1.00    238 A               2
                        (     136.348 eV)
   265     265       --         5.052 au  fB            1.00    239 A               2
                        (     137.485 eV)
   266     266       --         5.091 au  fB            1.00    240 A               2
                        (     138.530 eV)
   267     267       --         5.125 au  fB            1.00    241 A               2
                        (     139.469 eV)
   268     268       --         5.151 au  fB            1.00    242 A               2
                        (     140.160 eV)
   269     269       --         5.212 au  fB            1.00    243 A               2
                        (     141.834 eV)
   270     270       --         5.301 au  fB            1.00    244 A               2
                        (     144.250 eV)
   271     271       --         5.321 au  fB            1.00    245 A               2
                        (     144.795 eV)
   272     272       --         5.354 au  fB            1.00    246 A               2
                        (     145.695 eV)
   273     273       --         5.473 au  fB            1.00    247 A               2
                        (     148.920 eV)
   274     274       --         5.514 au  fB            1.00    248 A               2
                        (     150.053 eV)
   275     275       --         5.593 au  fB            1.00    249 A               2
                        (     152.192 eV)
   276     276       --         5.637 au  fB            1.00    250 A               2
                        (     153.403 eV)
   277     277       --         5.743 au  fB            1.00    251 A               2
                        (     156.269 eV)
   278     278       --         5.865 au  fB            1.00    252 A               2
                        (     159.604 eV)
   279     279       --         6.073 au  fB            1.00    253 A               2
                        (     165.256 eV)
   280     280       --         6.149 au  fB            1.00    254 A               2
                        (     167.315 eV)
   281     281       --         6.199 au  fB            1.00    255 A               2
                        (     168.684 eV)
   282     282       --         6.301 au  fB            1.00    256 A               2
                        (     171.464 eV)
   283     283       --         6.336 au  fB            1.00    257 A               2
                        (     172.406 eV)
   284     284       --         6.382 au  fB            1.00    258 A               2
                        (     173.654 eV)
   285     285       --         6.413 au  fB            1.00    259 A               2
                        (     174.495 eV)
   286     286       --         6.476 au  fB            1.00    260 A               2
                        (     176.229 eV)
   287     287       --         6.572 au  fB            1.00    261 A               2
                        (     178.834 eV)
   288     288       --         6.638 au  fB            1.00    262 A               2
                        (     180.619 eV)
   289     289       --         6.659 au  fB            1.00    263 A               2
                        (     181.197 eV)
   290     290       --         6.690 au  fB            1.00    264 A               2
                        (     182.044 eV)
   291     291       --         6.795 au  fB            1.00    265 A               2
                        (     184.890 eV)
   292     292       --         6.879 au  fB            1.00    266 A               2
                        (     187.199 eV)
   293     293       --         6.935 au  fB            1.00    267 A               2
                        (     188.715 eV)
   294     294       --         6.981 au  fB            1.00    268 A               2
                        (     189.968 eV)
   295     295       --         7.057 au  fB            1.00    269 A               2
                        (     192.018 eV)
   296     296       --         7.192 au  fB            1.00    270 A               2
                        (     195.700 eV)
   297     297       --         7.249 au  fB            1.00    271 A               2
                        (     197.256 eV)
   298     298       --         7.468 au  fB            1.00    272 A               2
                        (     203.202 eV)
   299     299       --         7.534 au  fB            1.00    273 A               2
                        (     205.017 eV)
   300     300       --         7.799 au  fB            1.00    274 A               2
                        (     212.230 eV)
   301     301       --         8.320 au  fB            1.00    275 A               2
                        (     226.407 eV)
   302     302       --         8.691 au  fB            1.00    276 A               2
                        (     236.496 eV)
   303     303       --         8.821 au  fB            1.00    277 A               2
                        (     240.038 eV)
   304     304       --         8.875 au  fB            1.00    278 A               2
                        (     241.493 eV)
   305     305       --         9.007 au  fB            1.00    279 A               2
                        (     245.097 eV)
   306     306       --         9.043 au  fB            1.00    280 A               2
                        (     246.063 eV)
   307     307       --         9.352 au  fB            1.00    281 A               2
                        (     254.490 eV)
   308     308       --         9.384 au  fB            1.00    282 A               2
                        (     255.350 eV)
   309     309       --         9.871 au  fB            1.00    283 A               2
                        (     268.604 eV)
   310     310       --        10.008 au  fB            1.00    284 A               2
                        (     272.335 eV)
   311     311       --        10.599 au  fB            1.00    285 A               2
                        (     288.419 eV)
   312     312       --        14.597 au  fB            1.00    286 A               2
                        (     397.210 eV)
   313     313       --        15.650 au  fB            1.00    287 A               2
                        (     425.854 eV)
   314     314       --        15.955 au  fB            1.00    288 A               2
                        (     434.148 eV)
   315     315       --        20.713 au  fB            1.00    289 A               2
                        (     563.623 eV)
   316     316       --        20.783 au  fB            1.00    290 A               2
                        (     565.539 eV)
   317     317       --        21.115 au  fB            1.00    291 A               2
                        (     574.556 eV)
   318     318       --        21.182 au  fB            1.00    292 A               2
                        (     576.379 eV)
   319     319       --        21.255 au  fB            1.00    293 A               2
                        (     578.386 eV)
   320     320       --        56.218 au  fB            1.00    294 A               2
                        (    1529.768 eV)
   321     321       --        59.268 au  fB            1.00    295 A               2
                        (    1612.759 eV)
   322     322       --        71.186 au  fB            1.00    296 A               2
                        (    1937.075 eV)
   323     323       --        72.056 au  fB            1.00    297 A               2
                        (    1960.741 eV)
   324     324       --        72.255 au  fB            1.00    298 A               2
                        (    1966.153 eV)
   325     325       --        96.046 au  fB            1.00    299 A               2
                        (    2613.539 eV)
   326     326       --        96.151 au  fB            1.00    300 A               2
                        (    2616.409 eV)
   327     327       --        96.822 au  fB            1.00    301 A               2
                        (    2634.655 eV)
   328     328       --       127.835 au  fB            1.00    302 A               2
                        (    3478.557 eV)
   329     329       --       128.766 au  fB            1.00    303 A               2
                        (    3503.897 eV)
   330     330       --       619.032 au  fB            1.00    304 A               2
                        (   16844.731 eV)



 ================================
 (Slater-type)  F U N C T I O N S  ***  (Basis and Fit)  ***
 ================================
  

 Atom Type    1  (F)
 ==============

 Valence Basis Sets:  10
 -----------------------
   1 S   10.880000
   1 S    7.700000
   2 S    3.240000
   2 S    1.940000
   2 S    0.740000
   2 P    4.540000
   2 P    2.300000
   2 P    1.240000
   3 D    2.000000
   4 F    3.000000

 Atom Type    2  (C)
 ==============

 Valence Basis Sets:  10
 -----------------------
   1 S    7.680000
   1 S    5.000000
   2 S    1.280000
   2 S    2.100000
   2 S    4.600000
   2 P    0.820000
   2 P    1.480000
   2 P    2.940000
   3 D    2.200000
   4 F    3.300000

 Atom Type    3  (H)
 ==============

 Valence Basis Sets:   5
 -----------------------
   1 S    0.690000
   1 S    0.920000
   1 S    1.580000
   2 P    1.250000
   3 D    2.500000

 Atom Type    4  (Br)
 ==============

 Valence Basis Sets:  20
 -----------------------
   1 S   41.300000
   1 S   32.800000
   2 S   13.900000
   2 P   19.450000
   2 P   13.100000
   3 S    7.200000
   3 S    4.950000
   3 P    7.900000
   3 P    5.050000
   3 D   10.900000
   3 D    6.050000
   3 D    3.500000
   4 S    4.500000
   4 S    2.800000
   4 S    1.800000
   4 P    3.250000
   4 P    1.950000
   4 P    1.200000
   4 D    1.800000
   4 F    1.800000

 Atom Type    5  (N)
 ==============

 Valence Basis Sets:  10
 -----------------------
   1 S    8.740000
   1 S    5.900000
   2 S    5.150000
   2 S    2.500000
   2 S    1.500000
   2 P    3.680000
   2 P    1.880000
   2 P    1.000000
   3 D    2.200000
   4 F    3.300000

 Atom Type    6  (O)
 ==============

 Valence Basis Sets:  10
 -----------------------
   1 S    9.800000
   1 S    6.800000
   2 S    7.580000
   2 S    2.880000
   2 S    1.720000
   2 P    4.080000
   2 P    2.080000
   2 P    1.120000
   3 D    2.000000
   4 F    3.000000


 BAS: List of all Elementary Cartesian Basis Functions
 =====================================================

 The numbering in the list below (to the right of the function characteristics) is referred
 to in print-outs of MO eigenvectors and Mulliken populations in the BAS representation
 (as contrasted to the SFO representation).

 Notes:
 1. The functions are characterized by a polynomial prefactor (powers of x,y,z and r) and
    an exponential decay factor alpha.
 2. Since the basis sets are specific for an atom TYPE, the individual functions occur on
    all atoms of that type.
 3. The word 'Core' in the left margin signals that it is a Core Function (CF) : not a
    degree of freedom in the valence set, but only used to ensure orthogonalization of
    the other valence basis functions on the frozen Core Orbitals.


 (power of) X  Y  Z  R     Alpha  on Atom
            ==========     =====     ==========

 F                                    1
                                  ---------------------------------------------------------------------------
            0  0  0  0    10.880      1
            0  0  0  0     7.700      2
            0  0  0  1     3.240      3
            0  0  0  1     1.940      4
            0  0  0  1     0.740      5
            1  0  0  0     4.540      6
            0  1  0  0     4.540      7
            0  0  1  0     4.540      8
            1  0  0  0     2.300      9
            0  1  0  0     2.300     10
            0  0  1  0     2.300     11
            1  0  0  0     1.240     12
            0  1  0  0     1.240     13
            0  0  1  0     1.240     14
            2  0  0  0     2.000     15
            1  1  0  0     2.000     16
            1  0  1  0     2.000     17
            0  2  0  0     2.000     18
            0  1  1  0     2.000     19
            0  0  2  0     2.000     20
            3  0  0  0     3.000     21
            2  1  0  0     3.000     22
            2  0  1  0     3.000     23
            1  2  0  0     3.000     24
            1  1  1  0     3.000     25
            1  0  2  0     3.000     26
            0  3  0  0     3.000     27
            0  2  1  0     3.000     28
            0  1  2  0     3.000     29
            0  0  3  0     3.000     30

 C                                    2    3
                                  ---------------------------------------------------------------------------
            0  0  0  0     7.680     31   61
            0  0  0  0     5.000     32   62
            0  0  0  1     1.280     33   63
            0  0  0  1     2.100     34   64
            0  0  0  1     4.600     35   65
            1  0  0  0     0.820     36   66
            0  1  0  0     0.820     37   67
            0  0  1  0     0.820     38   68
            1  0  0  0     1.480     39   69
            0  1  0  0     1.480     40   70
            0  0  1  0     1.480     41   71
            1  0  0  0     2.940     42   72
            0  1  0  0     2.940     43   73
            0  0  1  0     2.940     44   74
            2  0  0  0     2.200     45   75
            1  1  0  0     2.200     46   76
            1  0  1  0     2.200     47   77
            0  2  0  0     2.200     48   78
            0  1  1  0     2.200     49   79
            0  0  2  0     2.200     50   80
            3  0  0  0     3.300     51   81
            2  1  0  0     3.300     52   82
            2  0  1  0     3.300     53   83
            1  2  0  0     3.300     54   84
            1  1  1  0     3.300     55   85
            1  0  2  0     3.300     56   86
            0  3  0  0     3.300     57   87
            0  2  1  0     3.300     58   88
            0  1  2  0     3.300     59   89
            0  0  3  0     3.300     60   90

 H                                    4    5    6    7    8    9
                                  ---------------------------------------------------------------------------
            0  0  0  0     0.690     91  103  115  127  139  151
            0  0  0  0     0.920     92  104  116  128  140  152
            0  0  0  0     1.580     93  105  117  129  141  153
            1  0  0  0     1.250     94  106  118  130  142  154
            0  1  0  0     1.250     95  107  119  131  143  155
            0  0  1  0     1.250     96  108  120  132  144  156
            2  0  0  0     2.500     97  109  121  133  145  157
            1  1  0  0     2.500     98  110  122  134  146  158
            1  0  1  0     2.500     99  111  123  135  147  159
            0  2  0  0     2.500    100  112  124  136  148  160
            0  1  1  0     2.500    101  113  125  137  149  161
            0  0  2  0     2.500    102  114  126  138  150  162

 Br                                  10
                                  ---------------------------------------------------------------------------
            0  0  0  0    41.300    163
            0  0  0  0    32.800    164
            0  0  0  1    13.900    165
            1  0  0  0    19.450    166
            0  1  0  0    19.450    167
            0  0  1  0    19.450    168
            1  0  0  0    13.100    169
            0  1  0  0    13.100    170
            0  0  1  0    13.100    171
            0  0  0  2     7.200    172
            0  0  0  2     4.950    173
            1  0  0  1     7.900    174
            0  1  0  1     7.900    175
            0  0  1  1     7.900    176
            1  0  0  1     5.050    177
            0  1  0  1     5.050    178
            0  0  1  1     5.050    179
            2  0  0  0    10.900    180
            1  1  0  0    10.900    181
            1  0  1  0    10.900    182
            0  2  0  0    10.900    183
            0  1  1  0    10.900    184
            0  0  2  0    10.900    185
            2  0  0  0     6.050    186
            1  1  0  0     6.050    187
            1  0  1  0     6.050    188
            0  2  0  0     6.050    189
            0  1  1  0     6.050    190
            0  0  2  0     6.050    191
            2  0  0  0     3.500    192
            1  1  0  0     3.500    193
            1  0  1  0     3.500    194
            0  2  0  0     3.500    195
            0  1  1  0     3.500    196
            0  0  2  0     3.500    197
            0  0  0  3     4.500    198
            0  0  0  3     2.800    199
            0  0  0  3     1.800    200
            1  0  0  2     3.250    201
            0  1  0  2     3.250    202
            0  0  1  2     3.250    203
            1  0  0  2     1.950    204
            0  1  0  2     1.950    205
            0  0  1  2     1.950    206
            1  0  0  2     1.200    207
            0  1  0  2     1.200    208
            0  0  1  2     1.200    209
            2  0  0  1     1.800    210
            1  1  0  1     1.800    211
            1  0  1  1     1.800    212
            0  2  0  1     1.800    213
            0  1  1  1     1.800    214
            0  0  2  1     1.800    215
            3  0  0  0     1.800    216
            2  1  0  0     1.800    217
            2  0  1  0     1.800    218
            1  2  0  0     1.800    219
            1  1  1  0     1.800    220
            1  0  2  0     1.800    221
            0  3  0  0     1.800    222
            0  2  1  0     1.800    223
            0  1  2  0     1.800    224
            0  0  3  0     1.800    225

 N                                   11   12   13
                                  ---------------------------------------------------------------------------
            0  0  0  0     8.740    226  256  286
            0  0  0  0     5.900    227  257  287
            0  0  0  1     5.150    228  258  288
            0  0  0  1     2.500    229  259  289
            0  0  0  1     1.500    230  260  290
            1  0  0  0     3.680    231  261  291
            0  1  0  0     3.680    232  262  292
            0  0  1  0     3.680    233  263  293
            1  0  0  0     1.880    234  264  294
            0  1  0  0     1.880    235  265  295
            0  0  1  0     1.880    236  266  296
            1  0  0  0     1.000    237  267  297
            0  1  0  0     1.000    238  268  298
            0  0  1  0     1.000    239  269  299
            2  0  0  0     2.200    240  270  300
            1  1  0  0     2.200    241  271  301
            1  0  1  0     2.200    242  272  302
            0  2  0  0     2.200    243  273  303
            0  1  1  0     2.200    244  274  304
            0  0  2  0     2.200    245  275  305
            3  0  0  0     3.300    246  276  306
            2  1  0  0     3.300    247  277  307
            2  0  1  0     3.300    248  278  308
            1  2  0  0     3.300    249  279  309
            1  1  1  0     3.300    250  280  310
            1  0  2  0     3.300    251  281  311
            0  3  0  0     3.300    252  282  312
            0  2  1  0     3.300    253  283  313
            0  1  2  0     3.300    254  284  314
            0  0  3  0     3.300    255  285  315

 O                                   14   15
                                  ---------------------------------------------------------------------------
            0  0  0  0     9.800    316  346
            0  0  0  0     6.800    317  347
            0  0  0  1     7.580    318  348
            0  0  0  1     2.880    319  349
            0  0  0  1     1.720    320  350
            1  0  0  0     4.080    321  351
            0  1  0  0     4.080    322  352
            0  0  1  0     4.080    323  353
            1  0  0  0     2.080    324  354
            0  1  0  0     2.080    325  355
            0  0  1  0     2.080    326  356
            1  0  0  0     1.120    327  357
            0  1  0  0     1.120    328  358
            0  0  1  0     1.120    329  359
            2  0  0  0     2.000    330  360
            1  1  0  0     2.000    331  361
            1  0  1  0     2.000    332  362
            0  2  0  0     2.000    333  363
            0  1  1  0     2.000    334  364
            0  0  2  0     2.000    335  365
            3  0  0  0     3.000    336  366
            2  1  0  0     3.000    337  367
            2  0  1  0     3.000    338  368
            1  2  0  0     3.000    339  369
            1  1  1  0     3.000    340  370
            1  0  2  0     3.000    341  371
            0  3  0  0     3.000    342  372
            0  2  1  0     3.000    343  373
            0  1  2  0     3.000    344  374
            0  0  3  0     3.000    345  375

 Total number of charge fitting functions (nprimf)      1143
 Total number of Cartesian basis functions (naos)        375
 Total number of Cartesian core functions  (ncos)          0

 ***************************************************************************************************



                                              ***********************
                                              *  T E C H N I C A L  *
                                              ***********************
  



 =============================================================
 P A R A L L E L I Z A T I O N  and  V E C T O R I Z A T I O N
 =============================================================
  
 Nr of parallel processes:                                1
 Maximum vector length in NumInt loops:                 128



 =====================
 S C F   U P D A T E S
 =====================
  
 Max. nr. of cycles:                               200
 Convergence criterion:                              0.0000010000
   secondary criterion:                              0.0010000000

 Mix parameter (when DIIS does not apply):           0.2000000000
 Mixed ADIIS+SDIIS will be used                  
    Max number of expansion vectors:                10
    Pure ADIIS when Max([F,P]) is above              0.1000000000
    Pure SDIIS when Max([F,P]) is below              0.0010000000
 Automatic ElectronSmearing (in case of problematic SCF convergence) disabled



 =================
 P R E C I S I O N  ***  (General: NumInt, NeglectFunctionTails, ...)  ***
 =================
  

 NumInt:           Target precision:                 4.0000000000
 -------           Initial precision:                4.0000000000
                   Min. precision (optimization):    4.0000000000

 Neglect Functions:          Basis functions:        0.1000000000E-05
 ------------------          Fit functions:          0.1000000000E-05



 ===========================
 L I N E A R   S C A L I N G
 ===========================
  

 Cut-off radii density fit:                        0.1000000000E-07
 Overlap cut-off criterion AO matrix elements:     0.1000000000E-05
 Cut-offs for Coulomb potential and fitted density:0.1000000000E-07
 Cut-off criterion for Coulomb multipole terms:    0.1000000000E-07
 Progressive Convergence parameter:                 0.000000000    
 ***************************************************************************************************



                                            ***************************
                                            *  C O M P U T A T I O N  *
                                            ***************************
  

 Number of elements of the density matrix on this node (used, total):     70500     70500



 ===========================================
 Numerical Integration : Fuzzy Cells (Becke)
 ===========================================
  
 Becke grid quality: NORMAL         
  
 Lebedev angular grid order:             min:  11 max:  23
 Nr. of radial points:                   min:  46 max:  77

 Total nr. of points:     102314
 Nr. of blocks:              800
 Block length:               128
 Nr. of dummy points:         86


 Test of Precision of the Numerical Integration Grid
 ===================================================

 Integral of the Total Core Density:                   0.00000000000000



 ========================
 Density Fitting (zlmFit)
 ========================
  
 ZlmFit Fit Quality: NORMAL         
  
 Max L-expansion:                        min:   6 max:   7
 Nr. of radial interpolation points:     min:  39 max:  72



 =====
 S C F  ***  ScaSCF  ***
 =====
  
 Initial density matrix is calculated as sum of fragments

 CYCLE    1
 SCF Error: norm([F,P])=      0.891465777564, max([F,P])=      0.310334867195
 orbitals (Q,E):
 ---------------
 A :41...60          ( 2.00    -0.1395)  ( 2.00    -0.1359)  ( 2.00    -0.1162)  ( 2.00    -0.1132)
                     ( 2.00    -0.0988)  ( 2.00    -0.0736)  ( 2.00    -0.0680)  ( 2.00    -0.0092)
                     ( 2.00     0.0319)  ( 2.00     0.0355)  ( 0.00     0.0788)  ( 0.00     0.1110)
                     ( 0.00     0.1220)  ( 0.00     0.1478)  ( 0.00     0.1563)  ( 0.00     0.1805)
                     ( 0.00     0.2197)  ( 0.00     0.2290)  ( 0.00     0.2412)  ( 0.00     0.2573)

 CYCLE    2
  SDIIS (wt  0.000):  0.6931  0.3069
 A-DIIS (wt  1.000):  0.9885  0.0115
  DIIS coefficients:  0.9885  0.0115
 SCF Error: norm([F,P])=      1.433007353280, max([F,P])=      0.526693745947
 orbitals (Q,E):
 ---------------
 A :41...51          ( 2.00    -0.1375)  ( 2.00    -0.1341)  ( 2.00    -0.1157)  ( 2.00    -0.1131)
                     ( 2.00    -0.0987)  ( 2.00    -0.0736)  ( 2.00    -0.0684)  ( 2.00    -0.0137)
                     ( 2.00     0.0234)  ( 2.00     0.0269)  ( 0.00     0.0747)

 CYCLE    3
  SDIIS (wt  0.000):  0.5012 -2.0000  2.4988
 A-DIIS (wt  1.000):  0.9870  0.0000  0.0130
  DIIS coefficients:  0.9870  0.0000  0.0130
 SCF Error: norm([F,P])=      1.279160757715, max([F,P])=      0.473607693843
 orbitals (Q,E):
 ---------------
 A :41...51          ( 2.00    -0.1373)  ( 2.00    -0.1340)  ( 2.00    -0.1158)  ( 2.00    -0.1132)
                     ( 2.00    -0.0987)  ( 2.00    -0.0736)  ( 2.00    -0.0685)  ( 2.00    -0.0139)
                     ( 2.00     0.0231)  ( 2.00     0.0267)  ( 0.00     0.0744)

 CYCLE    4
  SDIIS (wt  0.000): -2.0000  3.0000
 A-DIIS (wt  1.000):  0.0000  1.0000
  DIIS coefficients:  0.0000  1.0000
 SCF Error: norm([F,P])=      1.276407913561, max([F,P])=      0.472937085466
 orbitals (Q,E):
 ---------------
 A :41...51          ( 2.00    -0.2598)  ( 2.00    -0.2244)  ( 2.00    -0.1674)  ( 2.00    -0.1111)
                     ( 2.00    -0.1042)  ( 2.00    -0.0938)  ( 2.00    -0.0792)  ( 2.00    -0.0636)
                     ( 2.00     0.0322)  ( 2.00     0.0482)  ( 0.00     0.0519)

 CYCLE    5
  SDIIS (wt  0.000): -2.0000  2.8418  0.1582
 A-DIIS (wt  1.000): -0.0000  0.8804  0.1196
[...]
                                    3.11%    51 A               0.575  0.00     2 fB
                                   -2.55%     6 A               7.775  0.00     1 fA
                                    2.07%    41 A              -7.776  2.00     2 fB
                                    2.07%    55 A               2.512  0.00     2 fB
                                    2.01%    39 A              -8.346  2.00     2 fB
                                    1.85%    63 A               5.084  0.00     2 fB
                                    1.84%     2 A             -15.175  2.00     1 fA
                                    1.51%    56 A               3.183  0.00     2 fB
                                    1.45%    57 A               3.651  0.00     2 fB
                                    1.29%    60 A               4.513  0.00     2 fB
                                    1.29%     7 A              22.094  0.00     1 fA
                                    1.27%    35 A             -12.014  2.00     2 fB
                                    1.17%    38 A              -8.662  2.00     2 fB
      -0.05838         7 A         26.17%    44 A              -6.985  2.00     2 fB
                                   22.39%    62 A               4.858  0.00     2 fB
                                   10.14%    42 A              -7.209  2.00     2 fB
                                    8.01%    43 A              -7.069  2.00     2 fB
                                    5.79%    52 A               1.169  0.00     2 fB
                                    3.23%    45 A              -6.346  2.00     2 fB
                                    2.90%    61 A               4.793  0.00     2 fB
                                    2.42%    54 A               1.838  0.00     2 fB
                                    2.05%    59 A               4.212  0.00     2 fB
                                    1.98%    49 A               0.148  0.00     2 fB
                                    1.72%    64 A               5.404  0.00     2 fB
                                    1.29%    53 A               1.410  0.00     2 fB
                                    1.21%    48 A              -1.036  0.00     2 fB
       0.05838       324 A         24.68%    44 A              -6.985  2.00     2 fB
                                   23.91%    62 A               4.858  0.00     2 fB
                                    9.50%    42 A              -7.209  2.00     2 fB
                                    7.60%    43 A              -7.069  2.00     2 fB
                                    6.09%    52 A               1.169  0.00     2 fB
                                    3.10%    45 A              -6.346  2.00     2 fB
                                    3.06%    61 A               4.793  0.00     2 fB
                                    2.60%    54 A               1.838  0.00     2 fB
                                    2.15%    49 A               0.148  0.00     2 fB
                                    2.10%    59 A               4.212  0.00     2 fB
                                    1.78%    64 A               5.404  0.00     2 fB
                                    1.35%    53 A               1.410  0.00     2 fB
                                    1.21%    48 A              -1.036  0.00     2 fB
      -0.05453         8 A         28.79%    43 A              -7.069  2.00     2 fB
                                   11.17%    61 A               4.793  0.00     2 fB
                                    8.72%    53 A               1.410  0.00     2 fB
                                    6.10%    44 A              -6.985  2.00     2 fB
                                    5.66%    58 A               3.728  0.00     2 fB
                                    5.08%    60 A               4.513  0.00     2 fB
                                    3.00%    54 A               1.838  0.00     2 fB
                                    2.92%    36 A             -10.821  2.00     2 fB
                                    2.75%     2 A             -15.175  2.00     1 fA
                                    2.59%    39 A              -8.346  2.00     2 fB
                                    1.62%    66 A               5.928  0.00     2 fB
                                    1.61%    38 A              -8.662  2.00     2 fB
                                    1.55%    41 A              -7.776  2.00     2 fB
                                    1.54%     9 A              22.094  0.00     1 fA
                                    1.47%     7 A              22.094  0.00     1 fA
                                    1.31%    70 A               7.440  0.00     2 fB
       0.05453       323 A         27.00%    43 A              -7.069  2.00     2 fB
                                   12.01%    61 A               4.793  0.00     2 fB
                                    9.68%    53 A               1.410  0.00     2 fB
                                    6.48%    58 A               3.728  0.00     2 fB
                                    5.89%    44 A              -6.985  2.00     2 fB
                                    5.82%    60 A               4.513  0.00     2 fB
                                    4.01%    54 A               1.838  0.00     2 fB
                                    2.68%    36 A             -10.821  2.00     2 fB
                                    2.49%    39 A              -8.346  2.00     2 fB
                                    1.77%     6 A               7.775  0.00     1 fA
                                    1.70%    66 A               5.928  0.00     2 fB
                                    1.58%    41 A              -7.776  2.00     2 fB
                                    1.24%    70 A               7.440  0.00     2 fB
                                    1.21%    38 A              -8.662  2.00     2 fB
                                    1.19%    32 A             -13.442  2.00     2 fB
                                    1.11%    65 A               5.494  0.00     2 fB
      -0.05281         9 A         23.14%     7 A              22.094  0.00     1 fA
                                   14.64%    37 A             -10.181  2.00     2 fB
                                    8.06%    45 A              -6.346  2.00     2 fB
                                    6.47%    34 A             -12.902  2.00     2 fB
                                    6.30%    50 A               0.318  0.00     2 fB
                                    4.06%    38 A              -8.662  2.00     2 fB
                                    3.46%     8 A              22.094  0.00     1 fA
                                    2.26%    56 A               3.183  0.00     2 fB
                                    1.90%    54 A               1.838  0.00     2 fB
                                    1.84%     3 A               2.943  2.00     1 fA
                                    1.47%    53 A               1.410  0.00     2 fB
                                    1.44%    32 A             -13.442  2.00     2 fB
                                    1.44%    35 A             -12.014  2.00     2 fB
                                    1.35%    83 A              12.079  0.00     2 fB
                                    1.33%    42 A              -7.209  2.00     2 fB
                                    1.19%    79 A              10.271  0.00     2 fB
                                    1.15%    39 A              -8.346  2.00     2 fB
                                    1.12%    77 A               9.690  0.00     2 fB
       0.05281       322 A         15.95%    37 A             -10.181  2.00     2 fB
                                   12.71%     7 A              22.094  0.00     1 fA
                                    8.17%    34 A             -12.902  2.00     2 fB
                                    8.00%    45 A              -6.346  2.00     2 fB
                                    5.55%    50 A               0.318  0.00     2 fB
                                    4.70%    38 A              -8.662  2.00     2 fB
                                    3.59%     3 A               2.943  2.00     1 fA
                                    2.38%    54 A               1.838  0.00     2 fB
                                    2.24%    13 A              42.594  0.00     1 fA
                                    2.23%    56 A               3.183  0.00     2 fB
                                    2.02%    11 A              42.594  0.00     1 fA
                                    1.99%     8 A              22.094  0.00     1 fA
                                    1.89%    32 A             -13.442  2.00     2 fB
                                    1.75%    39 A              -8.346  2.00     2 fB
                                    1.57%    52 A               1.169  0.00     2 fB
                                    1.52%    53 A               1.410  0.00     2 fB
                                    1.50%    31 A             -14.190  2.00     2 fB
                                    1.44%    30 A             -14.441  2.00     2 fB
                                    1.39%    35 A             -12.014  2.00     2 fB
                                    1.27%    83 A              12.079  0.00     2 fB
                                    1.11%    79 A              10.271  0.00     2 fB
                                    1.09%    42 A              -7.209  2.00     2 fB
 Mulliken charges used for AMS results%charges...


    =====================
     CALCULATION RESULTS
    =====================

Energy (hartree)            -0.09690042


--------------
Atomic charges
--------------
  Index   Atom    Charge
      1      F   -0.6166
      2      C    0.4074
      3      H   -0.1684
      4     Br   -0.5323
      5      C    0.6529
      6      H   -0.1791
      7      N   -0.0666
      8      H   -0.0488
      9      H   -0.0077
     10      N    0.6214
     11      O   -0.4275
     12      O   -0.4341
     13      N   -0.1196
     14      H   -0.0358
     15      H   -0.0453


Dipole moment vector    (Debye):    -2.30833671   -0.16130413   -2.91646915
              magnitude (Debye):     3.72293295


-----------------------
Molecular orbitals info
-----------------------
n orbitals:              330
n spin:                    1

Note: only printing virtual orbitals with
      energy smaller than HOMO + 100. eV

HOMO (eV):              -2.1221
LUMO (eV):               0.6072
HOMO-LUMO gap (eV):      2.7293

   Index   Energy (eV)    Occupation
     210       97.8623         0.000       
     209       96.6399         0.000       
     208       95.9353         0.000       
     207       95.3965         0.000       
     206       94.2792         0.000       
     205       93.6065         0.000       
     204       93.0129         0.000       
     203       92.3835         0.000       
     202       91.9105         0.000       
     201       91.8326         0.000       
     200       90.4364         0.000       
     199       89.4177         0.000       
     198       88.3120         0.000       
     197       87.9676         0.000       
     196       87.0904         0.000       
     195       86.5082         0.000       
     194       85.5819         0.000       
     193       85.1825         0.000       
     192       84.4186         0.000       
     191       84.0047         0.000       
     190       83.3277         0.000       
     189       82.6490         0.000       
     188       81.6171         0.000       
     187       80.1677         0.000       
     186       79.6501         0.000       
     185       78.6042         0.000       
     184       78.2697         0.000       
     183       77.3919         0.000       
     182       76.5733         0.000       
     181       75.5484         0.000       
     180       74.4884         0.000       
     179       73.9040         0.000       
     178       71.9524         0.000       
     177       70.9257         0.000       
     176       70.7877         0.000       
     175       68.6266         0.000       
     174       68.0650         0.000       
     173       66.3745         0.000       
     172       65.7277         0.000       
     171       64.9346         0.000       
     170       64.2400         0.000       
     169       63.3658         0.000       
     168       62.5895         0.000       
     167       61.9766         0.000       
     166       61.0907         0.000       
     165       60.6991         0.000       
     164       59.9789         0.000       
     163       59.7369         0.000       
     162       59.0747         0.000       
     161       57.5327         0.000       
     160       57.0641         0.000       
     159       56.6699         0.000       
     158       56.0688         0.000       
     157       55.2497         0.000       
     156       54.1169         0.000       
     155       53.7174         0.000       
     154       52.9910         0.000       
     153       51.7863         0.000       
     152       51.2873         0.000       
     151       50.6235         0.000       
     150       49.7643         0.000       
     149       48.9563         0.000       
     148       48.1217         0.000       
     147       47.1904         0.000       
     146       46.7449         0.000       
     145       45.4241         0.000       
     144       45.0220         0.000       
     143       44.7832         0.000       
     142       43.9449         0.000       
     141       43.0427         0.000       
     140       42.7201         0.000       
     139       42.1536         0.000       
     138       41.1594         0.000       
     137       40.8335         0.000       
     136       40.4051         0.000       
     135       39.8732         0.000       
     134       39.6718         0.000       
     133       39.3522         0.000       
     132       38.8480         0.000       
     131       38.5683         0.000       
     130       38.0137         0.000       
     129       37.4312         0.000       
     128       36.8973         0.000       
     127       36.6394         0.000       
     126       36.1321         0.000       
     125       35.6649         0.000       
     124       34.7677         0.000       
     123       34.6119         0.000       
     122       34.4818         0.000       
     121       33.9916         0.000       
     120       33.4274         0.000       
     119       33.0167         0.000       
     118       32.1011         0.000       
     117       31.1881         0.000       
     116       30.8471         0.000       
     115       30.2264         0.000       
     114       29.9575         0.000       
     113       29.1995         0.000       
     112       28.8263         0.000       
     111       28.3460         0.000       
     110       28.0643         0.000       
     109       27.4494         0.000       
     108       27.2001         0.000       
     107       26.9913         0.000       
     106       26.0778         0.000       
     105       25.7533         0.000       
     104       25.1238         0.000       
     103       24.7910         0.000       
     102       23.6697         0.000       
     101       23.1527         0.000       
     100       22.5786         0.000       
      99       21.7234         0.000       
      98       21.5742         0.000       
      97       20.9362         0.000       
      96       20.4340         0.000       
      95       19.6200         0.000       
      94       19.0650         0.000       
      93       18.4390         0.000       
      92       17.7236         0.000       
      91       17.3051         0.000       
      90       16.9568         0.000       
      89       16.7424         0.000       
      88       16.0905         0.000       
      87       16.0396         0.000       
      86       15.4477         0.000       
      85       15.3431         0.000       
      84       14.9125         0.000       
      83       14.5582         0.000       
      82       14.2609         0.000       
      81       14.0170         0.000       
      80       13.0867         0.000       
      79       12.9831         0.000       
      78       12.5561         0.000       
      77       12.1165         0.000       
      76       11.9778         0.000       
      75       11.6074         0.000       
      74       11.3600         0.000       
      73       10.8335         0.000       
      72       10.6351         0.000       
      71       10.1093         0.000       
      70        9.8481         0.000       
      69        9.6419         0.000       
      68        9.2609         0.000       
      67        9.0732         0.000       
      66        8.7640         0.000       
      65        8.5656         0.000       
      64        8.2737         0.000       
      63        8.1946         0.000       
      62        7.7304         0.000       
      61        7.4025         0.000       
      60        6.3584         0.000       
      59        6.1691         0.000       
      58        5.8476         0.000       
      57        5.4866         0.000       
      56        4.5998         0.000       
      55        4.2807         0.000       
      54        4.1087         0.000       
      53        3.2469         0.000       
      52        2.3209         0.000       
      51        0.6072         0.000 < LUMO
      50       -2.1221         2.000 < HOMO
      49       -2.1990         2.000       
      48       -2.4722         2.000       
      47       -2.5626         2.000       
      46       -2.6175         2.000       
      45       -2.6613         2.000       
      44       -2.7468         2.000       
      43       -3.2592         2.000       
      42       -3.6878         2.000       
      41       -3.7808         2.000       
      40       -4.0731         2.000       
      39       -5.7354         2.000       
      38       -6.2432         2.000       
      37       -7.3703         2.000       
      36       -8.3835         2.000       
      35       -8.6083         2.000       
      34       -8.6624         2.000       
      33       -9.3108         2.000       
      32       -9.6422         2.000       
      31      -10.1893         2.000       
      30      -12.7697         2.000       
      29      -14.4841         2.000       
      28      -15.3575         2.000       
      27      -18.1867         2.000       
      26      -19.2532         2.000       
      25      -21.6593         2.000       
      24      -22.4356         2.000       
      23      -26.8120         2.000       
      22      -60.8263         2.000       
      21      -60.8283         2.000       
      20      -60.9719         2.000       
      19      -60.9773         2.000       
      18      -61.0226         2.000       
      17     -167.3782         2.000       
      16     -167.3850         2.000       
      15     -167.5780         2.000       
      14     -231.2182         2.000       
      13     -266.9263         2.000       
      12     -269.8239         2.000       
      11     -377.3990         2.000       
      10     -377.6889         2.000       
       9     -383.6317         2.000       
       8     -508.3485         2.000       
       7     -508.3549         2.000       
       6     -654.1166         2.000       
       5    -1521.4651         2.000       
       4    -1521.4672         2.000       
       3    -1521.5332         2.000       
       2    -1724.5797         2.000       
       1   -13291.1166         2.000       

AMS application finished. Exiting.
NORMAL TERMINATION
     Total cpu time:     116.63
  Total system time:       0.42
 Total elapsed time:     117.36
NORMAL TERMINATION
