srun: Step created for StepId=662412.57

 *******************************************************************************
 *                                                                             *
 *  --------------------------------                                           *
 *   Amsterdam Modeling Suite (AMS)              2026.103                      *
 *  --------------------------------                                           *
 *                                               r260501 2026-05-01 873454b5   *
 *                                                                             *
 *                                                                             *
 *                              =================                              *
 *                              |               |                              *
 *                              |     A M S     |                              *
 *                              |               |                              *
 *                              =================                              *
 *                                                                             *
 *                                                                             *
 *   Online information and documentation:  https://www.scm.com/support/       *
 *   E-mail:  support@scm.com   info@scm.com                                   *
 *                                                                             *
 *   Scientific publications using AMS results must be properly referenced     *
 *   See the User Manuals (or the web site) for recommended citations          *
 *   The terms and conditions of the End User License Agreement apply to       *
 *   the use of AMS, https://www.scm.com/license-terms/                        *
 *                                                                             *
 **********************  x86_64_linux_intel / intelmpi  ************************
 
 Licensed to: Jong-June Jeon / University of Seoul 2026-06-02 13:44:15
 SCM User ID: u30731
  
 AMS 2026.103  RunTime: Jun04-2026 03:49:08  ShM Nodes: 1  Procs: 1

 AMS jobname: c5_fragB_opt
 AMS jobid  : 456857154

 Start   directory: /gpfs/home1/yeseo1ee/projects/eda-asm-prediction/ADF_800/adf_outputs/batch_007/qmrxn20_sn2_E_B_A_E_C_B/
 Results directory: /gpfs/home1/yeseo1ee/projects/eda-asm-prediction/ADF_800/adf_outputs/batch_007/qmrxn20_sn2_E_B_A_E_C_B/c5_fragB_opt.results/
 Scratch directory: /tmp/amstmp_c5_fragB_opt_kid0.456857154/

 RNG seed: -1095625802 -1060152262 -2124712229 -285449893 1934562589 -1827641333 -367224600 -1872825032



                      ************************************************************************
                      *  ADF 2026.103  RunTime: Jun04-2026 03:49:08  ShM Nodes: 1  Procs: 1  *
                      ************************************************************************
  

       ***************************
       *  GEOMETRY OPTIMIZATION  *
       ***************************

Optimization Method                    Quasi Newton
Optimization Coordinates               Delocalized Coordinates
Optimize lattice                       F
 
 ------------------------------------------------------
 Convergence criteria (Hartree,Angstrom)
 ------------------------------------------------------
 Maximum gradient               0.000100000000
 Maximum rms gradient           0.000066666667
 Maximum step allowed           0.010000000000
 Maximum rms step allowed       0.006666666667
 Maximum energy change allowe   0.000140000000
 Maximum stress energy allowe   0.000500000000
 
Initial model Hessian                  Automatic Hessian
 
------------------------------------
Quasi-Newton Optimizer Parameters
------------------------------------
Hessian Update Method                  BFGS
Maximum number of steps                  200
First GDIIS cycle                          0
Maximum GDIIS vectors                      0
Trust radius (bohr)                        0.200000
Trust radius varies                        T
Constraints converged at all steps         T
Use projector                              T
 
 Rigid motions settings for: old optimizer
 Atomic rotations (x,y,z):     T T T
 Atomic translations (x,y,z):  T T T
 Tolerance:                  1.000000000000000E-006

--------
Geometry
--------
Formula: C2H6BrN3O2
Atoms
  Index Symbol   x (angstrom)   y (angstrom)   z (angstrom)
      1      C     0.45824353     0.04761125    -0.01245346
      2      H     1.71788443     1.72153041     0.22384400
      3     Br    -1.86864938     0.04910425     0.28724290
      4      C     0.65167532     1.56270808     0.09632136
      5      H     0.13035735     1.92405705     0.98007065
      6      N     0.44794835    -0.61334947    -1.25725450
      7      H    -0.20683891    -1.38168337    -1.23199800
      8      H     1.40346152    -0.95047997    -1.34135781
      9      N     0.68767649    -0.76518503     1.24235390
     10      O     0.86611018    -0.14502270     2.28292894
     11      O     0.65586423    -1.98404411     1.13247772
     12      N     0.18519987     2.28696588    -1.07418827
     13      H    -0.80678075     2.09315524    -1.16733981
     14      H     0.62034773     1.85351757    -1.88104362

Total System Charge              0.00000


----------------
ADF Engine Input
----------------
 
   Basis
     Type TZ2P
     Core None
   End
   XC
     GGA BLYP
     Dispersion GRIMME3 BJDAMP
   End
   Symmetry NOSYM
   NumericalQuality Normal
   Unrestricted No
   SCF
     Iterations 200
     Converge 1.0e-6
   End
   Save TAPE21
 

 Title: *** (NO TITLE) ***

 Using automatic Hessian for delocalized coordinates.
 *** GO1_GOStep1 ***

 Energy gradients wrt nuclear displacements
 ==========================================

     Atom      Cartesian (a.u./angstrom)
                 X         Y         Z
 ----------------------------------------
     1 C     0.147440 -0.025018  0.006759
     2 H    -0.020207 -0.011081 -0.005457
     3 Br   -0.021988  0.002205  0.000276
     4 C    -0.014538  0.010115  0.009487
     5 H    -0.008882  0.002401 -0.006940
     6 N    -0.044935 -0.031045 -0.024206
     7 H    -0.000425  0.020924  0.001560
     8 H    -0.013692  0.020115  0.028143
     9 N    -0.004451  0.004112 -0.005363
    10 O    -0.012299 -0.025596 -0.029224
    11 O    -0.006913  0.041940  0.010085
    12 N    -0.012566 -0.003577 -0.006860
    13 H     0.015677 -0.002802  0.003898
    14 H    -0.002222 -0.002694  0.017841
 ----------------------------------------
 
----------------------------------------------------------------------
Geometry Convergence after Step   1       (Hartree/Angstrom,Angstrom)
----------------------------------------------------------------------
current energy                               -2.68633901 Hartree
energy change                      -2.68633901     0.00014000    F
constrained gradient max            0.14745126     0.00010000    F
constrained gradient rms            0.02838545     0.00006667    F
gradient max                        0.14745126
gradient rms                        0.02838545
cart. step max                      0.07268375     0.01000000    F
cart. step rms                      0.02262602     0.00666667    F
 

--------
Geometry
--------
Formula: C2H6BrN3O2
Atoms
  Index Symbol   x (angstrom)   y (angstrom)   z (angstrom)
      1      C     0.41794321     0.03977681    -0.00331971
      2      H     1.72092156     1.70025019     0.22270462
      3     Br    -1.89677300     0.01266733     0.30128385
      4      C     0.64334752     1.55670679     0.09063681
      5      H     0.13552003     1.92407721     0.98002384
      6      N     0.45039098    -0.62847704    -1.24804631
      7      H    -0.18998055    -1.41763897    -1.23939861
      8      H     1.40968840    -0.96812398    -1.37769894
      9      N     0.67488706    -0.77123919     1.26557108
     10      O     0.87377025    -0.12641086     2.30526123
     11      O     0.68186376    -2.00642792     1.15320518
     12      N     0.20181579     2.31490645    -1.07686961
     13      H    -0.80289977     2.16583899    -1.18381981
     14      H     0.62200474     1.90297928    -1.90992960

Total System Charge              0.00000

 *** GO1_GOStep2 ***

 Energy gradients wrt nuclear displacements
 ==========================================

     Atom      Cartesian (a.u./angstrom)
                 X         Y         Z
 ----------------------------------------
     1 C     0.128653 -0.014100  0.014141
     2 H    -0.009200 -0.006065 -0.003893
     3 Br   -0.029486 -0.000224  0.003343
     4 C    -0.019972  0.008282  0.010983
     5 H    -0.006856  0.000791 -0.005127
     6 N    -0.037783 -0.016419 -0.022222
     7 H    -0.003859  0.010584  0.000033
     8 H    -0.001277  0.005379  0.015053
     9 N    -0.013242  0.011874 -0.015534
    10 O    -0.003100  0.000101  0.000516
    11 O    -0.004819 -0.001173  0.000692
    12 N    -0.003690  0.006834 -0.004722
    13 H     0.006007 -0.003317  0.000633
    14 H    -0.001374 -0.002546  0.006102
 ----------------------------------------

 dE(predicted):    -0.81442E-02, dE(actual):    -0.79991E-02, Trust radius:    0.400000, all in a.u.
 
----------------------------------------------------------------------
Geometry Convergence after Step   2       (Hartree/Angstrom,Angstrom)
----------------------------------------------------------------------
current energy                               -2.69433808 Hartree
energy change                      -0.00799907     0.00014000    F
constrained gradient max            0.12865126     0.00010000    F
constrained gradient rms            0.02287273     0.00006667    F
gradient max                        0.12865126
gradient rms                        0.02287273
cart. step max                      0.09072461     0.01000000    F
cart. step rms                      0.02930776     0.00666667    F
 

--------
Geometry
--------
Formula: C2H6BrN3O2
Atoms
  Index Symbol   x (angstrom)   y (angstrom)   z (angstrom)
      1      C     0.32721860     0.03591125     0.00304740
      2      H     1.73099520     1.63607521     0.20906487
      3     Br    -1.95541787    -0.01190927     0.30163382
      4      C     0.63800727     1.53925218     0.08411430
      5      H     0.17082470     1.93348862     0.98493913
      6      N     0.45264261    -0.62810915    -1.23282772
      7      H    -0.13795306    -1.46125593    -1.25146176
      8      H     1.42540589    -0.92919183    -1.38898422
      9      N     0.65733844    -0.77010691     1.28119005
     10      O     0.87932802    -0.11430019     2.31010258
     11      O     0.72360244    -2.00338127     1.16940884
     12      N     0.22249668     2.32035380    -1.07961084
     13      H    -0.79637363     2.24631550    -1.17657497
     14      H     0.60438467     1.90574308    -1.93443749

Total System Charge              0.00000

 *** GO1_GOStep3 ***

 Energy gradients wrt nuclear displacements
 ==========================================

     Atom      Cartesian (a.u./angstrom)
                 X         Y         Z
 ----------------------------------------
     1 C     0.093676 -0.010606  0.013325
     2 H     0.000751 -0.000637 -0.000947
     3 Br   -0.042420 -0.001716  0.006393
     4 C    -0.016867  0.007254  0.008979
     5 H    -0.003646 -0.000581 -0.003022
     6 N    -0.018020  0.001613 -0.013481
     7 H    -0.004732  0.002269 -0.000440
     8 H     0.003474 -0.006115  0.003736
     9 N    -0.013436  0.009063 -0.013888
    10 O     0.001199  0.001719  0.002967
    11 O    -0.000885 -0.003739  0.001008
    12 N     0.003553  0.006277 -0.000489
    13 H    -0.002240 -0.003122 -0.001576
    14 H    -0.000408 -0.001678 -0.002565
 ----------------------------------------

 dE(predicted):    -0.85546E-02, dE(actual):    -0.92422E-02, Trust radius:    0.800000, all in a.u.
 
----------------------------------------------------------------------
Geometry Convergence after Step   3       (Hartree/Angstrom,Angstrom)
----------------------------------------------------------------------
current energy                               -2.70358029 Hartree
energy change                      -0.00924221     0.00014000    F
constrained gradient max            0.09366242     0.00010000    F
constrained gradient rms            0.01726152     0.00006667    F
gradient max                        0.09366242
gradient rms                        0.01726152
cart. step max                      0.17748506     0.01000000    F
cart. step rms                      0.06885875     0.00666667    F
 

--------
Geometry
--------
Formula: C2H6BrN3O2
Atoms
  Index Symbol   x (angstrom)   y (angstrom)   z (angstrom)
      1      C     0.16338791     0.02617373    -0.00067796
      2      H     1.74523055     1.46661117     0.13116045
      3     Br    -2.02606512    -0.05055605     0.28284543
      4      C     0.63439125     1.48626866     0.05270877
      5      H     0.27817903     1.92452334     0.98560050
      6      N     0.44925711    -0.63638461    -1.19683975
      7      H     0.02122062    -1.56918663    -1.21829230
      8      H     1.45204976    -0.77891051    -1.39130474
      9      N     0.63955345    -0.75621443     1.29192520
     10      O     0.82317225    -0.07778521     2.31707306
     11      O     0.76003645    -1.98836037     1.18740265
     12      N     0.25197665     2.32822488    -1.07802946
     13      H    -0.77197227     2.42380056    -1.11323747
     14      H     0.52208232     1.90068055    -1.97073039

Total System Charge              0.00000

 *** GO1_GOStep4 ***

 Energy gradients wrt nuclear displacements
 ==========================================

     Atom      Cartesian (a.u./angstrom)
                 X         Y         Z
 ----------------------------------------
     1 C     0.026210 -0.006814  0.010779
     2 H     0.011300  0.002936  0.002813
     3 Br   -0.053111 -0.003897  0.008849
     4 C    -0.007194 -0.004481 -0.001399
     5 H     0.000170 -0.002371  0.000315
     6 N     0.007639  0.028303  0.006814
     7 H    -0.001455 -0.006820 -0.000656
     8 H     0.007834 -0.016478 -0.006681
     9 N     0.017112  0.009649 -0.024020
    10 O    -0.003724  0.011512  0.010766
    11 O    -0.005971 -0.014137 -0.001154
    12 N     0.009902  0.002870  0.003839
    13 H    -0.008844 -0.000261 -0.002791
    14 H     0.000131 -0.000014 -0.007475
 ----------------------------------------

 dE(predicted):    -0.93068E-02, dE(actual):    -0.95774E-02, Trust radius:    1.000000, all in a.u.
 
----------------------------------------------------------------------
Geometry Convergence after Step   4       (Hartree/Angstrom,Angstrom)
----------------------------------------------------------------------
current energy                               -2.71315766 Hartree
energy change                      -0.00957737     0.00014000    F
constrained gradient max            0.05312123     0.00010000    F
constrained gradient rms            0.01295137     0.00006667    F
gradient max                        0.05312123
gradient rms                        0.01295137
cart. step max                      0.17839671     0.01000000    F
cart. step rms                      0.08110756     0.00666667    F
 

--------
Geometry
--------
Formula: C2H6BrN3O2
Atoms
  Index Symbol   x (angstrom)   y (angstrom)   z (angstrom)
      1      C     0.01803950     0.01349586    -0.01408917
      2      H     1.72651123     1.28821446     0.07215028
      3     Br    -2.06973929    -0.00566601     0.15249362
      4      C     0.62100575     1.42248844     0.03606982
      5      H     0.36387464     1.88737657     0.99057200
      6      N     0.42497163    -0.67574532    -1.14739648
      7      H     0.19329493    -1.67504742    -1.10691992
      8      H     1.42088352    -0.61906891    -1.38641622
      9      N     0.49446673    -0.75807978     1.33033171
     10      O     0.84879214    -0.03268681     2.26692587
     11      O     0.90767399    -1.90820063     1.14528536
     12      N     0.27693532     2.31535334    -1.06162579
     13      H    -0.71585174     2.57232880    -1.02520932
     14      H     0.43164160     1.87412248    -1.97256776

Total System Charge              0.00000

 *** GO1_GOStep5 ***

 Energy gradients wrt nuclear displacements
 ==========================================

     Atom      Cartesian (a.u./angstrom)
                 X         Y         Z
 ----------------------------------------
     1 C     0.013443 -0.001236  0.008963
     2 H     0.013319  0.001087  0.004169
     3 Br   -0.032406 -0.003571  0.003584
     4 C    -0.006015 -0.018553 -0.010135
     5 H     0.003950 -0.000830  0.003250
     6 N     0.012467  0.034470  0.015020
     7 H     0.005851 -0.009218  0.001788
     8 H     0.006312 -0.015067 -0.009086
     9 N    -0.071982 -0.016833  0.020540
    10 O     0.029376  0.001956 -0.024244
    11 O     0.023925  0.024974 -0.012624
    12 N     0.008130  0.000931  0.004708
    13 H    -0.006453  0.002118 -0.001631
    14 H     0.000083 -0.000228 -0.004300
 ----------------------------------------

 dE(predicted):    -0.64055E-02, dE(actual):     0.27476E-02, Trust radius:    0.250000, all in a.u.
 
----------------------------------------------------------------------
Geometry Convergence after Step   5       (Hartree/Angstrom,Angstrom)
----------------------------------------------------------------------
current energy                               -2.71041007 Hartree
energy change                       0.00274759     0.00014000    F
constrained gradient max            0.07189838     0.00010000    F
constrained gradient rms            0.01755146     0.00006667    F
gradient max                        0.07189838
gradient rms                        0.01755146
cart. step max                      0.06428653     0.01000000    F
cart. step rms                      0.02779926     0.00666667    F
 

--------
Geometry
--------
Formula: C2H6BrN3O2
Atoms
  Index Symbol   x (angstrom)   y (angstrom)   z (angstrom)
      1      C     0.05521465     0.01702848    -0.02032009
      2      H     1.73985015     1.32699958     0.04307648
      3     Br    -2.01043115     0.00576873     0.16573137
      4      C     0.63468977     1.44151833     0.02418297
      5      H     0.37982489     1.90374955     0.98004528
      6      N     0.43266881    -0.68103325    -1.16227503
      7      H     0.19688073    -1.67799273    -1.12090456
      8      H     1.42247980    -0.61508287    -1.42064025
      9      N     0.52700787    -0.76578949     1.33467961
     10      O     0.79041755    -0.07385500     2.33121240
     11      O     0.84879297    -1.95860796     1.20103399
     12      N     0.25706010     2.32469820    -1.07158873
     13      H    -0.73813316     2.56446107    -1.01948692
     14      H     0.40617699     1.88702243    -1.98514254

Total System Charge              0.00000

 *** GO1_GOStep6 ***

 Energy gradients wrt nuclear displacements
 ==========================================

     Atom      Cartesian (a.u./angstrom)
                 X         Y         Z
 ----------------------------------------
     1 C     0.007793  0.001167  0.003794
     2 H     0.009724  0.000938  0.003828
     3 Br   -0.025180 -0.002132  0.001934
     4 C    -0.007168 -0.008609 -0.006335
     5 H     0.004096  0.000421  0.001645
     6 N     0.005087  0.025650  0.009380
     7 H     0.005095 -0.007842 -0.000075
     8 H     0.005044 -0.012354 -0.007655
     9 N    -0.046618  0.001253 -0.009278
    10 O     0.021839  0.003890  0.004507
    11 O     0.019834 -0.004455  0.000768
    12 N     0.005916 -0.000078  0.003886
    13 H    -0.005251  0.001941 -0.001483
    14 H    -0.000213  0.000209 -0.004916
 ----------------------------------------

 dE(predicted):    -0.77993E-02, dE(actual):    -0.76451E-02, Trust radius:    0.500000, all in a.u.
 
----------------------------------------------------------------------
Geometry Convergence after Step   6       (Hartree/Angstrom,Angstrom)
----------------------------------------------------------------------
current energy                               -2.71805516 Hartree
energy change                      -0.00764510     0.00014000    F
constrained gradient max            0.04667849     0.00010000    F
constrained gradient rms            0.01134416     0.00006667    F
gradient max                        0.04667849
gradient rms                        0.01134416
cart. step max                      0.12428259     0.01000000    F
cart. step rms                      0.03616318     0.00666667    F
 

--------
Geometry
--------
Formula: C2H6BrN3O2
Atoms
  Index Symbol   x (angstrom)   y (angstrom)   z (angstrom)
      1      C     0.10176770     0.01675754    -0.03382759
      2      H     1.76469433     1.35461500    -0.02338128
      3     Br    -1.92435809     0.03112719     0.18382309
      4      C     0.66515799     1.45250514     0.00586034
      5      H     0.42467301     1.89929073     0.97211687
      6      N     0.45401425    -0.70803030    -1.17062160
      7      H     0.22386438    -1.70111173    -1.10988598
      8      H     1.43369954    -0.59840835    -1.44170993
      9      N     0.54772810    -0.76683351     1.34036173
     10      O     0.66613495    -0.08800815     2.36659557
     11      O     0.77326142    -1.97852526     1.21783780
     12      N     0.22880056     2.33289999    -1.07005367
     13      H    -0.76346627     2.55473342    -0.97042314
     14      H     0.34652809     1.89787336    -1.98708822

Total System Charge              0.00000

 *** GO1_GOStep7 ***

 Energy gradients wrt nuclear displacements
 ==========================================

     Atom      Cartesian (a.u./angstrom)
                 X         Y         Z
 ----------------------------------------
     1 C     0.003242  0.001656 -0.001180
     2 H     0.002277  0.000318  0.002046
     3 Br   -0.007646 -0.000488  0.002067
     4 C    -0.003258  0.001258  0.000447
     5 H     0.002568  0.000870  0.000573
     6 N    -0.000120  0.003526  0.004136
     7 H     0.002243 -0.003212 -0.000866
     8 H     0.002727 -0.003725 -0.002534
     9 N    -0.003495 -0.001764  0.000081
    10 O     0.000800  0.007981  0.002284
    11 O     0.000629 -0.005543 -0.006079
    12 N     0.000894 -0.002474  0.001334
    13 H    -0.000718  0.000752 -0.000446
    14 H    -0.000144  0.000843 -0.001864
 ----------------------------------------

 dE(predicted):    -0.35755E-02, dE(actual):    -0.38774E-02, Trust radius:    0.500000, all in a.u.
 
----------------------------------------------------------------------
Geometry Convergence after Step   7       (Hartree/Angstrom,Angstrom)
----------------------------------------------------------------------
current energy                               -2.72193253 Hartree
energy change                      -0.00387737     0.00014000    F
constrained gradient max            0.00795999     0.00010000    F
constrained gradient rms            0.00287635     0.00006667    F
gradient max                        0.00795999
gradient rms                        0.00287635
cart. step max                      0.02926281     0.01000000    F
cart. step rms                      0.00943195     0.00666667    F
 

--------
Geometry
--------
Formula: C2H6BrN3O2
Atoms
  Index Symbol   x (angstrom)   y (angstrom)   z (angstrom)
      1      C     0.10207168     0.01387724    -0.03417177
      2      H     1.76735471     1.34693703    -0.04178606
      3     Br    -1.90884545     0.03668825     0.17371803
      4      C     0.67034630     1.44782684     0.00007073
      5      H     0.43097345     1.89023020     0.96837660
      6      N     0.45014671    -0.70718933    -1.17374093
      7      H     0.22404302    -1.69947575    -1.11342325
      8      H     1.42423398    -0.57615867    -1.44941555
      9      N     0.55177295    -0.76609078     1.34853744
     10      O     0.63687214    -0.09748099     2.38143718
     11      O     0.78688043    -1.97486171     1.23906841
     12      N     0.22895191     2.33275640    -1.07055455
     13      H    -0.76117833     2.55642070    -0.96183229
     14      H     0.33887646     1.89540565    -1.98667998

Total System Charge              0.00000

 *** GO1_GOStep8 ***

 Energy gradients wrt nuclear displacements
 ==========================================

     Atom      Cartesian (a.u./angstrom)
                 X         Y         Z
 ----------------------------------------
     1 C     0.000956 -0.000793  0.000702
     2 H     0.000469  0.000111  0.000751
     3 Br   -0.001376  0.000149 -0.000125
     4 C    -0.001456  0.000885 -0.000948
     5 H     0.000885 -0.000125  0.000048
     6 N    -0.000935  0.001137  0.001326
     7 H     0.000929 -0.000481  0.000255
     8 H     0.000694 -0.000238 -0.000993
     9 N     0.000381  0.001153 -0.002404
    10 O    -0.000292 -0.001091  0.000029
    11 O    -0.000819 -0.000106  0.001558
    12 N    -0.000085 -0.001652  0.000193
    13 H     0.000397  0.000427 -0.000036
    14 H     0.000251  0.000624 -0.000356
 ----------------------------------------

 dE(predicted):    -0.26089E-03, dE(actual):    -0.27901E-03, Trust radius:    0.500000, all in a.u.
 
----------------------------------------------------------------------
Geometry Convergence after Step   8       (Hartree/Angstrom,Angstrom)
----------------------------------------------------------------------
current energy                               -2.72221155 Hartree
energy change                      -0.00027901     0.00014000    F
constrained gradient max            0.00243998     0.00010000    F
constrained gradient rms            0.00085988     0.00006667    F
gradient max                        0.00243998
gradient rms                        0.00085988
cart. step max                      0.02286945     0.01000000    F
cart. step rms                      0.00630986     0.00666667    T
 

--------
Geometry
--------
Formula: C2H6BrN3O2
Atoms
  Index Symbol   x (angstrom)   y (angstrom)   z (angstrom)
      1      C     0.10500716     0.01515088    -0.03409979
      2      H     1.76797325     1.35106402    -0.04007262
      3     Br    -1.90621097     0.03916723     0.17404039
      4      C     0.67142011     1.44967704     0.00173993
      5      H     0.42545735     1.89121403     0.96881166
      6      N     0.44911790    -0.70491952    -1.17602139
      7      H     0.20117357    -1.69203392    -1.12534213
      8      H     1.42844954    -0.58841991    -1.43678189
      9      N     0.55588659    -0.76496747     1.34835666
     10      O     0.63038762    -0.09881288     2.38381403
     11      O     0.80406645    -1.97067618     1.23433250
     12      N     0.22916901     2.33279532    -1.07041196
     13      H    -0.76309144     2.54821950    -0.96485823
     14      H     0.34369382     1.89142694    -1.98390317

Total System Charge              0.00000

 *** GO1_GOStep9 ***

 Energy gradients wrt nuclear displacements
 ==========================================

     Atom      Cartesian (a.u./angstrom)
                 X         Y         Z
 ----------------------------------------
     1 C     0.003164 -0.000875  0.000489
     2 H    -0.000188 -0.000038  0.000210
     3 Br   -0.001848  0.000359 -0.000092
     4 C    -0.000399  0.000992 -0.000627
     5 H    -0.000019 -0.000102 -0.000130
     6 N    -0.000104 -0.000711  0.000186
     7 H    -0.000040  0.000118  0.000319
     8 H    -0.000331  0.000687  0.000049
     9 N     0.000301  0.001064 -0.001984
    10 O    -0.000285 -0.000690  0.000231
    11 O    -0.000781 -0.000046  0.000994
    12 N    -0.000439 -0.001231  0.000066
    13 H     0.000630  0.000108  0.000023
    14 H     0.000339  0.000365  0.000266
 ----------------------------------------

 dE(predicted):    -0.30794E-04, dE(actual):    -0.38674E-04, Trust radius:    0.500000, all in a.u.
 
----------------------------------------------------------------------
Geometry Convergence after Step   9       (Hartree/Angstrom,Angstrom)
----------------------------------------------------------------------
current energy                               -2.72225022 Hartree
energy change                      -0.00003867     0.00014000    T
constrained gradient max            0.00318247     0.00010000    F
constrained gradient rms            0.00080273     0.00006667    F
gradient max                        0.00318247
gradient rms                        0.00080273
cart. step max                      0.03919435     0.01000000    F
cart. step rms                      0.01007164     0.00666667    F
 

--------
Geometry
--------
Formula: C2H6BrN3O2
Atoms
  Index Symbol   x (angstrom)   y (angstrom)   z (angstrom)
      1      C     0.09984340     0.01661621    -0.03512236
      2      H     1.76842149     1.34564849    -0.04433522
      3     Br    -1.90252473     0.03689541     0.17093166
      4      C     0.67257248     1.44867389     0.00191176
      5      H     0.42652497     1.89045267     0.96910800
      6      N     0.44748699    -0.70223606    -1.17721759
      7      H     0.17408183    -1.68307794    -1.14204616
      8      H     1.43349628    -0.60579845    -1.41829702
      9      N     0.55906251    -0.76175583     1.35067723
     10      O     0.60706739    -0.09980140     2.39095162
     11      O     0.84326080    -1.95896951     1.22820943
     12      N     0.23175419     2.33455614    -1.06996188
     13      H    -0.76083022     2.55025932    -0.96367375
     14      H     0.34228258     1.88742215    -1.98153173

Total System Charge              0.00000

 *** GO1_GOStep10 ***

 Energy gradients wrt nuclear displacements
 ==========================================

     Atom      Cartesian (a.u./angstrom)
                 X         Y         Z
 ----------------------------------------
     1 C     0.000732 -0.000785  0.000240
     2 H    -0.000159 -0.000141 -0.000428
     3 Br   -0.000024  0.000149 -0.000069
     4 C     0.000929 -0.000058 -0.000279
     5 H    -0.000828 -0.000042 -0.000114
     6 N     0.001444 -0.000944  0.000483
     7 H    -0.000735  0.000208  0.000266
     8 H    -0.001006  0.001142  0.000333
     9 N    -0.000178  0.000961 -0.001580
    10 O    -0.000147  0.000767  0.001100
    11 O    -0.000349 -0.000918 -0.000268
    12 N    -0.000110 -0.000218  0.000079
    13 H     0.000140 -0.000023 -0.000089
    14 H     0.000291 -0.000097  0.000327
 ----------------------------------------

 dE(predicted):    -0.38746E-04, dE(actual):    -0.44445E-04, Trust radius:    0.500000, all in a.u.
 
----------------------------------------------------------------------
Geometry Convergence after Step  10       (Hartree/Angstrom,Angstrom)
----------------------------------------------------------------------
current energy                               -2.72229467 Hartree
energy change                      -0.00004445     0.00014000    T
constrained gradient max            0.00162802     0.00010000    F
constrained gradient rms            0.00061441     0.00006667    F
gradient max                        0.00162802
gradient rms                        0.00061441
cart. step max                      0.03298936     0.01000000    F
cart. step rms                      0.00889931     0.00666667    F
 

--------
Geometry
--------
Formula: C2H6BrN3O2
Atoms
  Index Symbol   x (angstrom)   y (angstrom)   z (angstrom)
      1      C     0.09778369     0.01732434    -0.03669106
      2      H     1.76862314     1.34336164    -0.04678536
      3     Br    -1.90044205     0.03470868     0.16578945
      4      C     0.67305802     1.44866712     0.00204626
      5      H     0.43020124     1.89023979     0.97020636
      6      N     0.44685501    -0.70159533    -1.17949706
      7      H     0.15160083    -1.67634273    -1.15663994
      8      H     1.43929558    -0.62897988    -1.40335538
      9      N     0.56098864    -0.75944102     1.35252019
     10      O     0.58720471    -0.10068100     2.39502082
     11      O     0.87625017    -1.94808920     1.22656819
     12      N     0.23264235     2.33741428    -1.06892255
     13      H    -0.75969198     2.55455021    -0.96037352
     14      H     0.33813059     1.88774819    -1.98028239

Total System Charge              0.00000

 *** GO1_GOStep11 ***

 Energy gradients wrt nuclear displacements
 ==========================================

     Atom      Cartesian (a.u./angstrom)
                 X         Y         Z
 ----------------------------------------
     1 C     0.000193 -0.000386  0.000334
     2 H    -0.000161 -0.000105 -0.000409
     3 Br    0.000525  0.000009  0.000009
     4 C     0.000769 -0.000471  0.000490
     5 H    -0.000675  0.000102 -0.000064
     6 N     0.001298 -0.001173  0.000559
     7 H    -0.000621  0.000306 -0.000048
     8 H    -0.000737  0.000734  0.000111
     9 N    -0.001062  0.000486 -0.000598
    10 O     0.000284  0.000413  0.000106
    11 O     0.000154 -0.000220 -0.000154
    12 N     0.000218  0.000689 -0.000134
    13 H    -0.000219 -0.000116 -0.000208
    14 H     0.000035 -0.000266  0.000005
 ----------------------------------------

 dE(predicted):    -0.18192E-04, dE(actual):    -0.15947E-04, Trust radius:    0.500000, all in a.u.
 
----------------------------------------------------------------------
Geometry Convergence after Step  11       (Hartree/Angstrom,Angstrom)
----------------------------------------------------------------------
current energy                               -2.72231061 Hartree
energy change                      -0.00001595     0.00014000    T
constrained gradient max            0.00127950     0.00010000    F
constrained gradient rms            0.00048712     0.00006667    F
gradient max                        0.00127950
gradient rms                        0.00048712
cart. step max                      0.01939396     0.01000000    F
cart. step rms                      0.00578773     0.00666667    T
 

--------
Geometry
--------
Formula: C2H6BrN3O2
Atoms
  Index Symbol   x (angstrom)   y (angstrom)   z (angstrom)
      1      C     0.09635019     0.01798376    -0.03804838
      2      H     1.76962970     1.34091073    -0.05155814
      3     Br    -1.89984762     0.03436511     0.16065571
      4      C     0.67432440     1.44839271     0.00074540
      5      H     0.43739720     1.88989971     0.97033503
      6      N     0.44719094    -0.70117984    -1.18090170
      7      H     0.14223201    -1.67310141    -1.16293464
      8      H     1.44354603    -0.64283263    -1.39356069
      9      N     0.56180843    -0.75799038     1.35377578
     10      O     0.57035908    -0.10268621     2.39844701
     11      O     0.89564413    -1.94096801     1.22563926
     12      N     0.23202926     2.33871213    -1.06831562
     13      H    -0.75895595     2.55930470    -0.95459096
     14      H     0.33079216     1.88807472    -1.98008409

Total System Charge              0.00000

 *** GO1_GOStep12 ***

 Energy gradients wrt nuclear displacements
 ==========================================

     Atom      Cartesian (a.u./angstrom)
                 X         Y         Z
 ----------------------------------------
     1 C    -0.000613 -0.000277  0.000319
     2 H    -0.000120  0.000019 -0.000165
     3 Br    0.000563 -0.000047 -0.000032
     4 C     0.000488 -0.000484  0.000677
     5 H    -0.000218  0.000089 -0.000107
     6 N     0.000752 -0.000629  0.000754
     7 H    -0.000276  0.000237 -0.000142
     8 H    -0.000232  0.000207 -0.000120
     9 N    -0.000458  0.000046 -0.000161
    10 O     0.000277  0.000231 -0.000238
    11 O     0.000004  0.000296 -0.000110
    12 N     0.000214  0.000723 -0.000303
    13 H    -0.000258 -0.000178 -0.000201
    14 H    -0.000122 -0.000232 -0.000171
 ----------------------------------------

 dE(predicted):    -0.76059E-05, dE(actual):    -0.10439E-04, Trust radius:    0.500000, all in a.u.
 
----------------------------------------------------------------------
Geometry Convergence after Step  12       (Hartree/Angstrom,Angstrom)
----------------------------------------------------------------------
current energy                               -2.72232105 Hartree
energy change                      -0.00001044     0.00014000    T
constrained gradient max            0.00076154     0.00010000    F
constrained gradient rms            0.00034681     0.00006667    F
gradient max                        0.00076154
gradient rms                        0.00034681
cart. step max                      0.02460003     0.01000000    F
cart. step rms                      0.00714403     0.00666667    F
 

--------
Geometry
--------
Formula: C2H6BrN3O2
Atoms
  Index Symbol   x (angstrom)   y (angstrom)   z (angstrom)
      1      C     0.09607605     0.01838872    -0.04025684
      2      H     1.77158763     1.33791804    -0.05973060
      3     Br    -1.89855840     0.03469562     0.15523718
      4      C     0.67664314     1.44784164    -0.00200985
      5      H     0.44745904     1.88853479     0.96977939
      6      N     0.44745937    -0.70156944    -1.18334526
      7      H     0.13420973    -1.67106987    -1.16768109
      8      H     1.44750182    -0.65747701    -1.38415997
      9      N     0.56173742    -0.75647264     1.35553956
     10      O     0.54575906    -0.10601155     2.40295214
     11      O     0.91885888    -1.93232033     1.22609928
     12      N     0.23088679     2.34043011    -1.06726665
     13      H    -0.75784317     2.56633122    -0.94567056
     14      H     0.32072261     1.88966575    -1.97988274

Total System Charge              0.00000

 *** GO1_GOStep13 ***

 Energy gradients wrt nuclear displacements
 ==========================================

     Atom      Cartesian (a.u./angstrom)
                 X         Y         Z
 ----------------------------------------
     1 C    -0.000648 -0.000092  0.000236
     2 H    -0.000091  0.000123  0.000080
     3 Br    0.000621 -0.000113  0.000025
     4 C    -0.000107 -0.000269  0.000398
     5 H     0.000237  0.000084 -0.000166
     6 N    -0.000049  0.000001  0.000322
     7 H     0.000108  0.000110 -0.000100
     8 H     0.000142 -0.000292 -0.000159
     9 N    -0.000082 -0.000270  0.000150
    10 O     0.000251  0.000059 -0.000257
    11 O    -0.000123  0.000473  0.000149
    12 N     0.000119  0.000549 -0.000388
    13 H    -0.000171 -0.000175 -0.000119
    14 H    -0.000208 -0.000186 -0.000171
 ----------------------------------------

 dE(predicted):    -0.63379E-05, dE(actual):     0.29788E-05, Trust radius:    0.020000, all in a.u.
 
----------------------------------------------------------------------
Geometry Convergence after Step  13       (Hartree/Angstrom,Angstrom)
----------------------------------------------------------------------
current energy                               -2.72231807 Hartree
energy change                       0.00000298     0.00014000    T
constrained gradient max            0.00065482     0.00010000    F
constrained gradient rms            0.00024592     0.00006667    F
gradient max                        0.00065482
gradient rms                        0.00024592
cart. step max                      0.00758395     0.01000000    T
cart. step rms                      0.00200625     0.00666667    T
 

--------
Geometry
--------
Formula: C2H6BrN3O2
Atoms
  Index Symbol   x (angstrom)   y (angstrom)   z (angstrom)
      1      C     0.09555194     0.01836945    -0.04094657
      2      H     1.77202956     1.33607337    -0.06227982
      3     Br    -1.89954955     0.03561573     0.15412264
      4      C     0.67722729     1.44727041    -0.00300930
      5      H     0.44985520     1.88752969     0.96946434
      6      N     0.44669897    -0.70220172    -1.18383427
      7      H     0.13420816    -1.67205142    -1.16613044
      8      H     1.44717226    -0.65872910    -1.38286265
      9      N     0.56188034    -0.75594182     1.35555422
     10      O     0.53817511    -0.10736368     2.40397833
     11      O     0.92620328    -1.92961971     1.22557870
     12      N     0.23095406     2.34057689    -1.06682972
     13      H    -0.75689999     2.56873058    -0.94328543
     14      H     0.31899332     1.89062642    -1.97991601

Total System Charge              0.00000

 *** GO1_GOStep14 ***

 Energy gradients wrt nuclear displacements
 ==========================================

     Atom      Cartesian (a.u./angstrom)
                 X         Y         Z
 ----------------------------------------
     1 C    -0.000454  0.000022  0.000183
     2 H    -0.000070  0.000091  0.000072
     3 Br    0.000284 -0.000084  0.000006
     4 C    -0.000202 -0.000153  0.000107
     5 H     0.000237  0.000071 -0.000141
     6 N    -0.000127  0.000145  0.000082
     7 H     0.000104 -0.000004  0.000025
     8 H     0.000123 -0.000256 -0.000028
     9 N     0.000284 -0.000123  0.000064
    10 O     0.000179  0.000039 -0.000138
    11 O    -0.000152  0.000276  0.000198
    12 N     0.000017  0.000261 -0.000277
    13 H    -0.000067 -0.000133 -0.000066
    14 H    -0.000156 -0.000152 -0.000086
 ----------------------------------------
 
----------------------------------------------------------------------
Geometry Convergence after Step  14       (Hartree/Angstrom,Angstrom)
----------------------------------------------------------------------
current energy                               -2.72231811 Hartree
energy change                      -0.00000004     0.00014000    T
constrained gradient max            0.00046107     0.00010000    F
constrained gradient rms            0.00015625     0.00006667    F
gradient max                        0.00046107
gradient rms                        0.00015625
cart. step max                      0.00750164     0.01000000    T
cart. step rms                      0.00188172     0.00666667    T
 

--------
Geometry
--------
Formula: C2H6BrN3O2
Atoms
  Index Symbol   x (angstrom)   y (angstrom)   z (angstrom)
      1      C     0.09550140     0.01813393    -0.04157621
      2      H     1.77266019     1.33457709    -0.06451441
      3     Br    -1.90022535     0.03676759     0.15429919
      4      C     0.67791392     1.44664362    -0.00388862
      5      H     0.45127717     1.88617036     0.96919913
      6      N     0.44570843    -0.70320020    -1.18428618
      7      H     0.13465669    -1.67360125    -1.16402700
      8      H     1.44606568    -0.65881430    -1.38356516
      9      N     0.56154370    -0.75549497     1.35569602
     10      O     0.53067346    -0.10852892     2.40499152
     11      O     0.93308582    -1.92703989     1.22525591
     12      N     0.23113568     2.34064408    -1.06626731
     13      H    -0.75614602     2.57034490    -0.94162348
     14      H     0.31864919     1.89228302    -1.98008939

Total System Charge              0.00000

 *** GO1_GOStep15 ***

 Energy gradients wrt nuclear displacements
 ==========================================

     Atom      Cartesian (a.u./angstrom)
                 X         Y         Z
 ----------------------------------------
     1 C     0.000011  0.000145  0.000094
     2 H     0.000008  0.000023 -0.000010
     3 Br    0.000047 -0.000058  0.000081
     4 C    -0.000266 -0.000007 -0.000166
     5 H     0.000098  0.000057 -0.000077
     6 N    -0.000126  0.000175 -0.000282
     7 H     0.000023 -0.000132  0.000160
     8 H     0.000044 -0.000147  0.000095
     9 N     0.000222  0.000045  0.000029
    10 O     0.000167  0.000143  0.000092
    11 O    -0.000069 -0.000028  0.000153
    12 N    -0.000039 -0.000052 -0.000088
    13 H    -0.000025 -0.000052 -0.000035
    14 H    -0.000095 -0.000113 -0.000045
 ----------------------------------------

 dE(predicted):    -0.24630E-05, dE(actual):     0.27487E-05, Trust radius:    0.020000, all in a.u.
 
----------------------------------------------------------------------
Geometry Convergence after Step  15       (Hartree/Angstrom,Angstrom)
----------------------------------------------------------------------
current energy                               -2.72231536 Hartree
energy change                       0.00000275     0.00014000    T
constrained gradient max            0.00032817     0.00010000    F
constrained gradient rms            0.00009727     0.00006667    F
gradient max                        0.00032817
gradient rms                        0.00009727
cart. step max                      0.00787727     0.01000000    T
cart. step rms                      0.00194306     0.00666667    T
 

--------
Geometry
--------
Formula: C2H6BrN3O2
Atoms
  Index Symbol   x (angstrom)   y (angstrom)   z (angstrom)
      1      C     0.09500903     0.01792901    -0.04202287
      2      H     1.77319358     1.33295455    -0.06655630
      3     Br    -1.90073074     0.03774968     0.15394971
      4      C     0.67858102     1.44599575    -0.00451831
      5      H     0.45287915     1.88505774     0.96906808
      6      N     0.44480537    -0.70410713    -1.18435792
      7      H     0.13396351    -1.67458359    -1.16312705
      8      H     1.44509857    -0.65958936    -1.38373539
      9      N     0.56135594    -0.75494297     1.35596436
     10      O     0.52311408    -0.10973983     2.40605934
     11      O     0.94096310    -1.92388327     1.22486978
     12      N     0.23144040     2.34080441    -1.06573633
     13      H    -0.75540686     2.57165561    -0.94012287
     14      H     0.31823381     1.89358447    -1.98013025

Total System Charge              0.00000

 *** GO1_GOStep16 ***

 Energy gradients wrt nuclear displacements
 ==========================================

     Atom      Cartesian (a.u./angstrom)
                 X         Y         Z
 ----------------------------------------
     1 C     0.000118  0.000239  0.000033
     2 H     0.000051 -0.000005 -0.000081
     3 Br   -0.000016 -0.000043  0.000099
     4 C    -0.000213  0.000045 -0.000250
     5 H     0.000010  0.000052 -0.000046
     6 N    -0.000108  0.000121 -0.000385
     7 H    -0.000010 -0.000171  0.000224
     8 H    -0.000004 -0.000074  0.000140
     9 N     0.000220  0.000089  0.000090
    10 O     0.000166  0.000144  0.000115
    11 O    -0.000071 -0.000090  0.000108
    12 N    -0.000073 -0.000220  0.000001
    13 H     0.000001 -0.000007 -0.000024
    14 H    -0.000071 -0.000080 -0.000023
 ----------------------------------------

 dE(predicted):    -0.18116E-05, dE(actual):     0.35391E-05, Trust radius:    0.020000, all in a.u.
 
----------------------------------------------------------------------
Geometry Convergence after Step  16       (Hartree/Angstrom,Angstrom)
----------------------------------------------------------------------
current energy                               -2.72231182 Hartree
energy change                       0.00000354     0.00014000    T
constrained gradient max            0.00043051     0.00010000    F
constrained gradient rms            0.00011527     0.00006667    F
gradient max                        0.00043051
gradient rms                        0.00011527
cart. step max                      0.00857118     0.01000000    T
cart. step rms                      0.00194699     0.00666667    T
 

--------
Geometry
--------
Formula: C2H6BrN3O2
Atoms
  Index Symbol   x (angstrom)   y (angstrom)   z (angstrom)
      1      C     0.09434823     0.01756068    -0.04224265
      2      H     1.77355273     1.33133539    -0.06781163
      3     Br    -1.90137955     0.03854507     0.15389551
      4      C     0.67908855     1.44527381    -0.00479253
      5      H     0.45385527     1.88396276     0.96912340
      6      N     0.44367793    -0.70499118    -1.18419785
      7      H     0.13247640    -1.67530243    -1.16301104
      8      H     1.44369605    -0.66023815    -1.38448664
      9      N     0.56130746    -0.75430767     1.35626445
     10      O     0.51603508    -0.11066543     2.40696848
     11      O     0.94953427    -1.92037150     1.22457002
     12      N     0.23206425     2.34092834    -1.06520579
     13      H    -0.75460418     2.57235292    -0.93936717
     14      H     0.31884749     1.89480249    -1.98010255

Total System Charge              0.00000

 *** GO1_GOStep17 ***

 Energy gradients wrt nuclear displacements
 ==========================================

     Atom      Cartesian (a.u./angstrom)
                 X         Y         Z
 ----------------------------------------
     1 C     0.000189  0.000252 -0.000026
     2 H     0.000063 -0.000019 -0.000158
     3 Br   -0.000063 -0.000030  0.000109
     4 C    -0.000086  0.000044 -0.000212
     5 H    -0.000078  0.000048 -0.000023
     6 N    -0.000044  0.000007 -0.000343
     7 H    -0.000043 -0.000144  0.000242
     8 H    -0.000068 -0.000000  0.000137
     9 N     0.000125  0.000086  0.000185
    10 O     0.000205  0.000140  0.000044
    11 O    -0.000074 -0.000075  0.000056
    12 N    -0.000077 -0.000279  0.000034
    13 H     0.000009  0.000024 -0.000028
    14 H    -0.000058 -0.000052 -0.000018
 ----------------------------------------

 dE(predicted):    -0.21583E-05, dE(actual):     0.25226E-05, Trust radius:    0.020000, all in a.u.
 
----------------------------------------------------------------------
Geometry Convergence after Step  17       (Hartree/Angstrom,Angstrom)
----------------------------------------------------------------------
current energy                               -2.72230930 Hartree
energy change                       0.00000252     0.00014000    T
constrained gradient max            0.00038672     0.00010000    F
constrained gradient rms            0.00011132     0.00006667    F
gradient max                        0.00038672
gradient rms                        0.00011132
cart. step max                      0.00906103     0.01000000    T
cart. step rms                      0.00198949     0.00666667    T
 

--------
Geometry
--------
Formula: C2H6BrN3O2
Atoms
  Index Symbol   x (angstrom)   y (angstrom)   z (angstrom)
      1      C     0.09353639     0.01699573    -0.04220257
      2      H     1.77373451     1.32973259    -0.06817294
      3     Br    -1.90211274     0.03903985     0.15403126
      4      C     0.67943507     1.44449131    -0.00467191
      5      H     0.45431229     1.88294525     0.96939171
      6      N     0.44242231    -0.70580775    -1.18376489
      7      H     0.13013072    -1.67565562    -1.16398718
      8      H     1.44194589    -0.66084190    -1.38585120
      9      N     0.56141091    -0.75354575     1.35661588
     10      O     0.50954530    -0.11116790     2.40771103
     11      O     0.95859531    -1.91652723     1.22446898
     12      N     0.23300130     2.34099833    -1.06470688
     13      H    -0.75372251     2.57248998    -0.93927492
     14      H     0.32026520     1.89573818    -1.97998237

Total System Charge              0.00000

 *** GO1_GOStep18 ***

 Energy gradients wrt nuclear displacements
 ==========================================

     Atom      Cartesian (a.u./angstrom)
                 X         Y         Z
 ----------------------------------------
     1 C     0.000182  0.000134 -0.000095
     2 H     0.000033 -0.000012 -0.000220
     3 Br   -0.000079 -0.000017  0.000102
     4 C     0.000108 -0.000003 -0.000020
     5 H    -0.000133  0.000041 -0.000017
     6 N     0.000045 -0.000140 -0.000098
     7 H    -0.000059 -0.000049  0.000194
     8 H    -0.000140  0.000052  0.000062
     9 N    -0.000030  0.000061  0.000302
    10 O     0.000277  0.000137 -0.000122
    11 O    -0.000084 -0.000006  0.000007
    12 N    -0.000049 -0.000203 -0.000012
    13 H    -0.000009  0.000038 -0.000043
    14 H    -0.000063 -0.000033 -0.000039
 ----------------------------------------

 dE(predicted):    -0.26929E-05, dE(actual):     0.12740E-05, Trust radius:    0.020000, all in a.u.
 
----------------------------------------------------------------------
Geometry Convergence after Step  18       (Hartree/Angstrom,Angstrom)
----------------------------------------------------------------------
current energy                               -2.72230803 Hartree
energy change                       0.00000127     0.00014000    T
constrained gradient max            0.00026301     0.00010000    F
constrained gradient rms            0.00009721     0.00006667    F
gradient max                        0.00026301
gradient rms                        0.00009721
cart. step max                      0.00897203     0.01000000    T
cart. step rms                      0.00197940     0.00666667    T
 

--------
Geometry
--------
Formula: C2H6BrN3O2
Atoms
  Index Symbol   x (angstrom)   y (angstrom)   z (angstrom)
      1      C     0.09276945     0.01648451    -0.04214198
      2      H     1.77394789     1.32817030    -0.06858441
      3     Br    -1.90281875     0.03951424     0.15424415
      4      C     0.67980765     1.44377223    -0.00460123
      5      H     0.45489811     1.88204612     0.96960351
      6      N     0.44123332    -0.70653447    -1.18333876
      7      H     0.12778292    -1.67590620    -1.16500083
      8      H     1.44031519    -0.66149702    -1.38703107
      9      N     0.56149784    -0.75280883     1.35693620
     10      O     0.50292632    -0.11189652     2.40852441
     11      O     0.96756734    -1.91264129     1.22428727
     12      N     0.23391073     2.34102816    -1.06428461
     13      H    -0.75282662     2.57266740    -0.93912798
     14      H     0.32148857     1.89648645    -1.97988067

Total System Charge              0.00000

 *** GO1_GOStep19 ***

 Energy gradients wrt nuclear displacements
 ==========================================

     Atom      Cartesian (a.u./angstrom)
                 X         Y         Z
 ----------------------------------------
     1 C     0.000190  0.000015 -0.000171
     2 H     0.000010 -0.000006 -0.000271
     3 Br   -0.000105 -0.000011  0.000108
     4 C     0.000273 -0.000021  0.000137
     5 H    -0.000172  0.000033 -0.000018
     6 N     0.000133 -0.000261  0.000147
     7 H    -0.000072  0.000034  0.000147
     8 H    -0.000200  0.000098 -0.000008
     9 N    -0.000174  0.000017  0.000355
    10 O     0.000334  0.000131 -0.000234
    11 O    -0.000113  0.000078 -0.000032
    12 N    -0.000021 -0.000139 -0.000053
    13 H    -0.000018  0.000048 -0.000053
    14 H    -0.000066 -0.000017 -0.000055
 ----------------------------------------

 dE(predicted):    -0.27772E-05, dE(actual):     0.24987E-05, Trust radius:    0.020000, all in a.u.
 
----------------------------------------------------------------------
Geometry Convergence after Step  19       (Hartree/Angstrom,Angstrom)
----------------------------------------------------------------------
current energy                               -2.72230553 Hartree
energy change                       0.00000250     0.00014000    T
constrained gradient max            0.00031856     0.00010000    F
constrained gradient rms            0.00013346     0.00006667    F
gradient max                        0.00031856
gradient rms                        0.00013346
cart. step max                      0.00909015     0.01000000    T
cart. step rms                      0.00199946     0.00666667    T
 

--------
Geometry
--------
Formula: C2H6BrN3O2
Atoms
  Index Symbol   x (angstrom)   y (angstrom)   z (angstrom)
      1      C     0.09198502     0.01596514    -0.04198458
      2      H     1.77411235     1.32662172    -0.06867785
      3     Br    -1.90351933     0.03989880     0.15442601
      4      C     0.68012115     1.44309887    -0.00443972
      5      H     0.45547005     1.88129192     0.96985386
      6      N     0.44003140    -0.70711978    -1.18289665
      7      H     0.12511748    -1.67591720    -1.16644493
      8      H     1.43869838    -0.66228515    -1.38816305
      9      N     0.56169013    -0.75202101     1.35722886
     10      O     0.49642690    -0.11263712     2.40934981
     11      O     0.97665749    -1.90862275     1.22411448
     12      N     0.23487913     2.34098735    -1.06393366
     13      H    -0.75188999     2.57273856    -0.93909625
     14      H     0.32271981     1.89688573    -1.97973231

Total System Charge              0.00000

 *** GO1_GOStep20 ***

 Energy gradients wrt nuclear displacements
 ==========================================

     Atom      Cartesian (a.u./angstrom)
                 X         Y         Z
 ----------------------------------------
     1 C     0.000184 -0.000153 -0.000242
     2 H    -0.000014  0.000001 -0.000291
     3 Br   -0.000128 -0.000003  0.000101
     4 C     0.000401 -0.000017  0.000295
     5 H    -0.000169  0.000024 -0.000029
     6 N     0.000196 -0.000344  0.000443
     7 H    -0.000072  0.000112  0.000081
     8 H    -0.000244  0.000126 -0.000097
     9 N    -0.000293 -0.000026  0.000331
    10 O     0.000377  0.000125 -0.000304
    11 O    -0.000153  0.000167 -0.000052
    12 N     0.000010 -0.000047 -0.000106
    13 H    -0.000025  0.000048 -0.000057
    14 H    -0.000069 -0.000013 -0.000074
 ----------------------------------------

 dE(predicted):    -0.28823E-05, dE(actual):     0.29787E-05, Trust radius:    0.020000, all in a.u.
 
----------------------------------------------------------------------
Geometry Convergence after Step  20       (Hartree/Angstrom,Angstrom)
----------------------------------------------------------------------
current energy                               -2.72230255 Hartree
energy change                       0.00000298     0.00014000    T
constrained gradient max            0.00040572     0.00010000    F
constrained gradient rms            0.00018185     0.00006667    F
gradient max                        0.00040572
gradient rms                        0.00018185
cart. step max                      0.00917270     0.01000000    T
cart. step rms                      0.00203787     0.00666667    T
 

--------
Geometry
--------
Formula: C2H6BrN3O2
Atoms
  Index Symbol   x (angstrom)   y (angstrom)   z (angstrom)
      1      C     0.09114650     0.01542950    -0.04160016
      2      H     1.77415808     1.32510570    -0.06808395
      3     Br    -1.90414721     0.04005306     0.15463239
      4      C     0.68029460     1.44252926    -0.00409188
      5      H     0.45611601     1.88087877     0.97018558
      6      N     0.43880460    -0.70733612    -1.18247168
      7      H     0.12188116    -1.67538209    -1.16887013
      8      H     1.43713792    -0.66331681    -1.38921697
      9      N     0.56207415    -0.75114492     1.35747777
     10      O     0.49021139    -0.11330910     2.41021145
     11      O     0.98583019    -1.90448891     1.22402040
     12      N     0.23594739     2.34080739    -1.06375347
     13      H    -0.75091088     2.57252381    -0.93933550
     14      H     0.32395606     1.89653556    -1.97949984

Total System Charge              0.00000

 *** GO1_GOStep21 ***

 Energy gradients wrt nuclear displacements
 ==========================================

     Atom      Cartesian (a.u./angstrom)
                 X         Y         Z
 ----------------------------------------
     1 C     0.000104 -0.000426 -0.000275
     2 H    -0.000049  0.000010 -0.000231
     3 Br   -0.000117  0.000009  0.000073
     4 C     0.000425  0.000023  0.000452
     5 H    -0.000061  0.000006 -0.000067
     6 N     0.000184 -0.000335  0.000831
     7 H    -0.000031  0.000181 -0.000031
     8 H    -0.000240  0.000095 -0.000237
     9 N    -0.000349 -0.000069  0.000093
    10 O     0.000397  0.000163 -0.000232
    11 O    -0.000194  0.000239 -0.000029
    12 N     0.000042  0.000119 -0.000194
    13 H    -0.000033  0.000023 -0.000048
    14 H    -0.000079 -0.000038 -0.000106
 ----------------------------------------

 dE(predicted):    -0.30225E-05, dE(actual):     0.32818E-05, Trust radius:    0.020000, all in a.u.
 
----------------------------------------------------------------------
Geometry Convergence after Step  21       (Hartree/Angstrom,Angstrom)
----------------------------------------------------------------------
current energy                               -2.72229927 Hartree
energy change                       0.00000328     0.00014000    T
constrained gradient max            0.00079722     0.00010000    F
constrained gradient rms            0.00022770     0.00006667    F
gradient max                        0.00079722
gradient rms                        0.00022770
cart. step max                      0.00900004     0.01000000    T
cart. step rms                      0.00199151     0.00666667    T
 

--------
Geometry
--------
Formula: C2H6BrN3O2
Atoms
  Index Symbol   x (angstrom)   y (angstrom)   z (angstrom)
      1      C     0.09042094     0.01498821    -0.04152362
      2      H     1.77435989     1.32362398    -0.06845941
      3     Br    -1.90468914     0.04044164     0.15488613
      4      C     0.68063952     1.44188667    -0.00405917
      5      H     0.45681039     1.88011030     0.97036645
      6      N     0.43763556    -0.70784977    -1.18226048
      7      H     0.11920401    -1.67531880    -1.17019452
      8      H     1.43574819    -0.66443951    -1.38981602
      9      N     0.56228092    -0.75043360     1.35775444
     10      O     0.48351887    -0.11428871     2.41095767
     11      O     0.99483022    -1.90046690     1.22390849
     12      N     0.23680244     2.34083037    -1.06339393
     13      H    -0.75005643     2.57270879    -0.93917604
     14      H     0.32499458     1.89709242    -1.97938599

Total System Charge              0.00000

 *** GO1_GOStep22 ***

 Energy gradients wrt nuclear displacements
 ==========================================

     Atom      Cartesian (a.u./angstrom)
                 X         Y         Z
 ----------------------------------------
     1 C     0.000105 -0.000511 -0.000298
     2 H    -0.000065  0.000017 -0.000257
     3 Br   -0.000121  0.000010  0.000087
     4 C     0.000525  0.000011  0.000543
     5 H    -0.000074 -0.000003 -0.000068
     6 N     0.000232 -0.000416  0.000999
     7 H    -0.000031  0.000248 -0.000068
     8 H    -0.000282  0.000125 -0.000289
     9 N    -0.000442 -0.000076  0.000152
    10 O     0.000411  0.000121 -0.000371
    11 O    -0.000208  0.000287 -0.000031
    12 N     0.000075  0.000188 -0.000227
    13 H    -0.000041  0.000027 -0.000055
    14 H    -0.000084 -0.000027 -0.000117
 ----------------------------------------

 dE(predicted):    -0.28743E-05, dE(actual):     0.47162E-05, Trust radius:    0.020000, all in a.u.
 
----------------------------------------------------------------------
Geometry Convergence after Step  22       (Hartree/Angstrom,Angstrom)
----------------------------------------------------------------------
current energy                               -2.72229455 Hartree
energy change                       0.00000472     0.00014000    T
constrained gradient max            0.00096716     0.00010000    F
constrained gradient rms            0.00027604     0.00006667    F
gradient max                        0.00096716
gradient rms                        0.00027604
cart. step max                      0.00741541     0.01000000    T
cart. step rms                      0.00191746     0.00666667    T
 

--------
Geometry
--------
Formula: C2H6BrN3O2
Atoms
  Index Symbol   x (angstrom)   y (angstrom)   z (angstrom)
      1      C     0.08984600     0.01488982    -0.04080587
      2      H     1.77436954     1.32267471    -0.06760502
      3     Br    -1.90424212     0.04024846     0.15582297
      4      C     0.68069954     1.44186102    -0.00392047
      5      H     0.45863456     1.88089959     0.97042861
      6      N     0.43669419    -0.70668729    -1.18280318
      7      H     0.11575591    -1.67337242    -1.17391717
      8      H     1.43535729    -0.66631240    -1.38903896
      9      N     0.56288772    -0.74996873     1.35792094
     10      O     0.47733012    -0.11570649     2.41176928
     11      O     1.00224563    -1.89750418     1.22428124
     12      N     0.23745649     2.34049690    -1.06382093
     13      H    -0.74947033     2.57214645    -0.93949352
     14      H     0.32493540     1.89521966    -1.97921394

Total System Charge              0.00000

 *** GO1_GOStep23 ***

 Energy gradients wrt nuclear displacements
 ==========================================

     Atom      Cartesian (a.u./angstrom)
                 X         Y         Z
 ----------------------------------------
     1 C    -0.000214 -0.000633  0.000037
     2 H    -0.000084  0.000038  0.000005
     3 Br    0.000139  0.000010  0.000106
     4 C     0.000147  0.000104  0.000377
     5 H     0.000291 -0.000023 -0.000155
     6 N     0.000014 -0.000156  0.000998
     7 H     0.000090  0.000195 -0.000182
     8 H    -0.000094 -0.000017 -0.000433
     9 N    -0.000332  0.000102 -0.000149
    10 O     0.000299  0.000005 -0.000357
    11 O    -0.000235  0.000113  0.000251
    12 N     0.000113  0.000419 -0.000332
    13 H    -0.000029 -0.000062 -0.000026
    14 H    -0.000105 -0.000095 -0.000139
 ----------------------------------------

 dE(predicted):    -0.44297E-05, dE(actual):     0.59828E-05, Trust radius:    0.020000, all in a.u.
 
----------------------------------------------------------------------
Geometry Convergence after Step  23       (Hartree/Angstrom,Angstrom)
----------------------------------------------------------------------
current energy                               -2.72228857 Hartree
energy change                       0.00000598     0.00014000    T
constrained gradient max            0.00096754     0.00010000    F
constrained gradient rms            0.00025868     0.00006667    F
gradient max                        0.00096754
gradient rms                        0.00025868
cart. step max                      0.00799955     0.01000000    T
cart. step rms                      0.00186025     0.00666667    T
 

--------
Geometry
--------
Formula: C2H6BrN3O2
Atoms
  Index Symbol   x (angstrom)   y (angstrom)   z (angstrom)
      1      C     0.08908511     0.01514482    -0.04105175
      2      H     1.77459517     1.32137167    -0.06892209
      3     Br    -1.90436521     0.04147838     0.15566038
      4      C     0.68102645     1.44149564    -0.00436169
      5      H     0.45997921     1.88057611     0.97028593
      6      N     0.43534980    -0.70676394    -1.18363473
      7      H     0.11423715    -1.67353618    -1.17322674
      8      H     1.43461809    -0.66781614    -1.38766043
      9      N     0.56328024    -0.74975204     1.35803422
     10      O     0.47061044    -0.11802168     2.41268073
     11      O     1.01024518    -1.89438095     1.22353974
     12      N     0.23771845     2.34054408    -1.06356463
     13      H    -0.74902800     2.57268453    -0.93896843
     14      H     0.32514788     1.89586079    -1.97920651

Total System Charge              0.00000

 *** GO1_GOStep24 ***

 Energy gradients wrt nuclear displacements
 ==========================================

     Atom      Cartesian (a.u./angstrom)
                 X         Y         Z
 ----------------------------------------
     1 C    -0.000272 -0.000224  0.000282
     2 H    -0.000034  0.000012 -0.000004
     3 Br    0.000233  0.000035  0.000074
     4 C     0.000045  0.000059  0.000167
     5 H     0.000282  0.000010 -0.000130
     6 N    -0.000047 -0.000196  0.000464
     7 H     0.000057  0.000053 -0.000061
     8 H    -0.000041  0.000058 -0.000344
     9 N    -0.000243  0.000240  0.000042
    10 O     0.000211 -0.000074 -0.000439
    11 O    -0.000195 -0.000113  0.000295
    12 N     0.000081  0.000269 -0.000218
    13 H    -0.000004 -0.000046 -0.000026
    14 H    -0.000073 -0.000083 -0.000102
 ----------------------------------------

 dE(predicted):    -0.45277E-05, dE(actual):     0.67161E-05, Trust radius:    0.020000, all in a.u.
 
----------------------------------------------------------------------
Geometry Convergence after Step  24       (Hartree/Angstrom,Angstrom)
----------------------------------------------------------------------
current energy                               -2.72228185 Hartree
energy change                       0.00000672     0.00014000    T
constrained gradient max            0.00045073     0.00010000    F
constrained gradient rms            0.00017862     0.00006667    F
gradient max                        0.00045073
gradient rms                        0.00017862
cart. step max                      0.00832364     0.01000000    T
cart. step rms                      0.00198911     0.00666667    T
 

--------
Geometry
--------
Formula: C2H6BrN3O2
Atoms
  Index Symbol   x (angstrom)   y (angstrom)   z (angstrom)
      1      C     0.08821925     0.01561854    -0.04138511
      2      H     1.77421344     1.32077921    -0.06845894
      3     Br    -1.90518839     0.04211152     0.15510184
      4      C     0.68062521     1.44143442    -0.00426428
      5      H     0.45869868     1.88040996     0.97038234
      6      N     0.43393407    -0.70674045    -1.18436921
      7      H     0.11010833    -1.67274715    -1.17309292
      8      H     1.43428707    -0.67159306    -1.38380290
      9      N     0.56469688    -0.74929806     1.35754077
     10      O     0.46741026    -0.12021907     2.41344576
     11      O     1.01856882    -1.89096035     1.22081907
     12      N     0.23841280     2.34065836    -1.06342212
     13      H    -0.74834458     2.57321983    -0.93986507
     14      H     0.32685811     1.89621139    -1.97902523

Total System Charge              0.00000

 *** GO1_GOStep25 ***

 Energy gradients wrt nuclear displacements
 ==========================================

     Atom      Cartesian (a.u./angstrom)
                 X         Y         Z
 ----------------------------------------
     1 C     0.000012  0.000073  0.000327
     2 H     0.000015 -0.000024 -0.000097
     3 Br   -0.000026  0.000051  0.000003
     4 C     0.000029 -0.000043 -0.000017
     5 H     0.000130  0.000050 -0.000050
     6 N     0.000105 -0.000359  0.000026
     7 H    -0.000074 -0.000052  0.000097
     8 H    -0.000124  0.000192 -0.000129
     9 N    -0.000093  0.000177  0.000062
    10 O     0.000185  0.000052 -0.000190
    11 O    -0.000231 -0.000133  0.000101
    12 N     0.000111  0.000113 -0.000056
    13 H     0.000011 -0.000024 -0.000045
    14 H    -0.000049 -0.000072 -0.000030
 ----------------------------------------

 dE(predicted):    -0.55187E-05, dE(actual):     0.24790E-05, Trust radius:    0.020000, all in a.u.
 
----------------------------------------------------------------------
Geometry Convergence after Step  25       (Hartree/Angstrom,Angstrom)
----------------------------------------------------------------------
current energy                               -2.72227937 Hartree
energy change                       0.00000248     0.00014000    T
constrained gradient max            0.00032415     0.00010000    F
constrained gradient rms            0.00011134     0.00006667    F
gradient max                        0.00032415
gradient rms                        0.00011134
cart. step max                      0.00878100     0.01000000    T
cart. step rms                      0.00198405     0.00666667    T
 

--------
Geometry
--------
Formula: C2H6BrN3O2
Atoms
  Index Symbol   x (angstrom)   y (angstrom)   z (angstrom)
      1      C     0.08736745     0.01572089    -0.04156660
      2      H     1.77390915     1.31999078    -0.06754280
      3     Br    -1.90565210     0.04238638     0.15507010
      4      C     0.68029957     1.44122287    -0.00397047
      5      H     0.45777338     1.88007332     0.97066297
      6      N     0.43252453    -0.70655791    -1.18493626
      7      H     0.10588353    -1.67166275    -1.17441422
      8      H     1.43360605    -0.67512107    -1.38149548
      9      N     0.56582219    -0.74868761     1.35730770
     10      O     0.46337593    -0.12178281     2.41412042
     11      O     1.02734982    -1.88712539     1.21927748
     12      N     0.23923808     2.34057751    -1.06331857
     13      H    -0.74751731     2.57362859    -0.94069950
     14      H     0.32851969     1.89622226    -1.97889078

Total System Charge              0.00000

 *** GO1_GOStep26 ***

 Energy gradients wrt nuclear displacements
 ==========================================

     Atom      Cartesian (a.u./angstrom)
                 X         Y         Z
 ----------------------------------------
     1 C     0.000140  0.000112  0.000228
     2 H     0.000064 -0.000047 -0.000119
     3 Br   -0.000082  0.000062 -0.000021
     4 C    -0.000027 -0.000076 -0.000035
     5 H     0.000089  0.000042 -0.000003
     6 N     0.000085 -0.000315 -0.000061
     7 H    -0.000068 -0.000068  0.000151
     8 H    -0.000143  0.000175 -0.000075
     9 N    -0.000118  0.000121 -0.000026
    10 O     0.000180  0.000163  0.000009
    11 O    -0.000228 -0.000140  0.000040
    12 N     0.000128  0.000052  0.000012
    13 H     0.000009 -0.000003 -0.000052
    14 H    -0.000030 -0.000078 -0.000047
 ----------------------------------------

 dE(predicted):    -0.46711E-05, dE(actual):     0.34672E-05, Trust radius:    0.020000, all in a.u.
 
----------------------------------------------------------------------
Geometry Convergence after Step  26       (Hartree/Angstrom,Angstrom)
----------------------------------------------------------------------
current energy                               -2.72227591 Hartree
energy change                       0.00000347     0.00014000    T
constrained gradient max            0.00028044     0.00010000    F
constrained gradient rms            0.00010109     0.00006667    F
gradient max                        0.00028044
gradient rms                        0.00010109
cart. step max                      0.00867985     0.01000000    T
cart. step rms                      0.00197797     0.00666667    T
 

--------
Geometry
--------
Formula: C2H6BrN3O2
Atoms
  Index Symbol   x (angstrom)   y (angstrom)   z (angstrom)
      1      C     0.08643723     0.01577307    -0.04160902
      2      H     1.77351856     1.31927152    -0.06634700
      3     Br    -1.90601796     0.04251927     0.15539238
      4      C     0.67990719     1.44106202    -0.00361052
      5      H     0.45675563     1.87992991     0.97089450
      6      N     0.43109941    -0.70623150    -1.18537543
      7      H     0.10159820    -1.67038824    -1.17620052
      8      H     1.43284481    -0.67849918    -1.37936963
      9      N     0.56699506    -0.74816364     1.35712127
     10      O     0.45947557    -0.12344589     2.41475144
     11      O     1.03602967    -1.88336732     1.21793213
     12      N     0.24012699     2.34041694    -1.06336593
     13      H    -0.74661166     2.57399226    -0.94178773
     14      H     0.33034128     1.89601586    -1.97882193

Total System Charge              0.00000

 *** GO1_GOStep27 ***

 Energy gradients wrt nuclear displacements
 ==========================================

     Atom      Cartesian (a.u./angstrom)
                 X         Y         Z
 ----------------------------------------
     1 C     0.000165  0.000093  0.000112
     2 H     0.000079 -0.000056 -0.000117
     3 Br   -0.000076  0.000071 -0.000031
     4 C    -0.000067 -0.000079 -0.000014
     5 H     0.000084  0.000021  0.000008
     6 N    -0.000005 -0.000226 -0.000009
     7 H    -0.000026 -0.000068  0.000165
     8 H    -0.000122  0.000116 -0.000056
     9 N    -0.000117  0.000078 -0.000077
    10 O     0.000185  0.000172  0.000065
    11 O    -0.000237 -0.000080  0.000037
    12 N     0.000113  0.000023  0.000025
    13 H     0.000031  0.000011 -0.000052
    14 H    -0.000008 -0.000077 -0.000057
 ----------------------------------------

 dE(predicted):    -0.45725E-05, dE(actual):     0.31061E-05, Trust radius:    0.020000, all in a.u.
 
----------------------------------------------------------------------
Geometry Convergence after Step  27       (Hartree/Angstrom,Angstrom)
----------------------------------------------------------------------
current energy                               -2.72227280 Hartree
energy change                       0.00000311     0.00014000    T
constrained gradient max            0.00019365     0.00010000    F
constrained gradient rms            0.00008532     0.00006667    F
gradient max                        0.00019365
gradient rms                        0.00008532
cart. step max                      0.00847126     0.01000000    T
cart. step rms                      0.00195166     0.00666667    T
 

--------
Geometry
--------
Formula: C2H6BrN3O2
Atoms
  Index Symbol   x (angstrom)   y (angstrom)   z (angstrom)
      1      C     0.08565646     0.01577116    -0.04143576
      2      H     1.77329170     1.31864344    -0.06525691
      3     Br    -1.90623875     0.04260014     0.15597864
      4      C     0.67971306     1.44093866    -0.00325055
      5      H     0.45604952     1.88004477     0.97103298
      6      N     0.42982369    -0.70575568    -1.18574566
      7      H     0.09722565    -1.66885775    -1.17857703
      8      H     1.43211171    -0.68147530    -1.37755627
      9      N     0.56804853    -0.74773441     1.35711286
     10      O     0.45515798    -0.12517567     2.41542792
     11      O     1.04450093    -1.87973364     1.21697028
     12      N     0.24098133     2.34013791    -1.06350782
     13      H    -0.74579009     2.57399739    -0.94283350
     14      H     0.33196822     1.89548405    -1.97875518

Total System Charge              0.00000

 *** GO1_GOStep28 ***

 Energy gradients wrt nuclear displacements
 ==========================================

     Atom      Cartesian (a.u./angstrom)
                 X         Y         Z
 ----------------------------------------
     1 C     0.000142  0.000063  0.000083
     2 H     0.000067 -0.000052 -0.000104
     3 Br   -0.000058  0.000071 -0.000023
     4 C    -0.000045 -0.000071  0.000004
     5 H     0.000088  0.000012 -0.000006
     6 N    -0.000050 -0.000169  0.000021
     7 H    -0.000004 -0.000059  0.000149
     8 H    -0.000110  0.000080 -0.000052
     9 N    -0.000122  0.000085 -0.000036
    10 O     0.000170  0.000142  0.000015
    11 O    -0.000223 -0.000063  0.000050
    12 N     0.000099  0.000020 -0.000000
    13 H     0.000044  0.000013 -0.000051
    14 H     0.000002 -0.000070 -0.000050
 ----------------------------------------

 dE(predicted):    -0.42166E-05, dE(actual):     0.35599E-05, Trust radius:    0.020000, all in a.u.
 
----------------------------------------------------------------------
Geometry Convergence after Step  28       (Hartree/Angstrom,Angstrom)
----------------------------------------------------------------------
current energy                               -2.72226924 Hartree
energy change                       0.00000356     0.00014000    T
constrained gradient max            0.00015839     0.00010000    F
constrained gradient rms            0.00007033     0.00006667    F
gradient max                        0.00015839
gradient rms                        0.00007033
cart. step max                      0.00824962     0.01000000    T
cart. step rms                      0.00193508     0.00666667    T
 

--------
Geometry
--------
Formula: C2H6BrN3O2
Atoms
  Index Symbol   x (angstrom)   y (angstrom)   z (angstrom)
      1      C     0.08485078     0.01581768    -0.04128099
      2      H     1.77298900     1.31817465    -0.06397358
      3     Br    -1.90633461     0.04279364     0.15658009
      4      C     0.67943502     1.44090791    -0.00285128
      5      H     0.45513347     1.88031534     0.97114372
      6      N     0.42858196    -0.70517642    -1.18613967
      7      H     0.09278631    -1.66718432    -1.18106336
      8      H     1.43146843    -0.68466579    -1.37556410
      9      N     0.56917526    -0.74743328     1.35714651
[...]
                                    1.62%     1 S              -6.532  1.00     6 H
                                    1.56%     2 S             -18.450  2.00    11 N
                                    1.36%     3 S              40.869  0.00     5 H
                                    1.21%     4 P:x             3.720  0.00     9 Br
                                    1.12%     1 P:y            11.051  0.00     5 H
                                   -1.10%     5 S               6.099  0.00     9 Br
       0.734  0.00    52 A         32.11%     2 S               2.394  0.00     4 H
                                   25.55%     1 S              -6.532  1.00     4 H
                                   14.28%     1 S              -6.532  1.00     8 H
                                  -11.38%     2 P:z             4.589  0.00     2 C
                                   10.00%     2 S               2.394  0.00     3 H
                                    7.78%     1 P:z            -5.239  0.67     1 C
                                    5.10%     1 S              -6.532  1.00     3 H
                                   -4.00%     2 P:y             4.589  0.00     1 C
                                   -3.87%     2 P:y             4.589  0.00     2 C
                                    3.46%     2 S               2.394  0.00     8 H
                                   -3.03%     3 S              10.158  0.00     2 C
                                    2.97%     2 S               2.394  0.00     7 H
                                    2.92%     2 S             -13.620  2.00     2 C
                                    2.75%     1 P:z            -7.062  1.00    11 N
                                    2.74%     1 P:y            -5.239  0.67     1 C
                                   -2.68%     1 P:z            -5.239  0.67     2 C
                                    2.57%     2 S             -18.450  2.00    11 N
                                   -2.56%     2 P:z             7.649  0.00    12 N
                                    2.24%     1 P:y            -5.239  0.67     2 C
                                    2.11%     1 S              -6.532  1.00     7 H
                                   -2.10%     3 S              14.073  0.00    11 N
                                    1.79%     1 P:y            -7.062  1.00    12 N
                                   -1.53%     5 S               6.099  0.00     9 Br
                                    1.36%     3 S              40.869  0.00     8 H
                                   -1.19%     2 P:z             7.649  0.00    10 N
                                    1.15%     1 P:x            -7.062  1.00    12 N
       1.344  0.00    53 A         31.33%     1 S              -6.532  1.00     6 H
                                   20.16%     1 S              -6.532  1.00     3 H
                                   12.98%     1 S              -6.532  1.00     5 H
                                   11.11%     1 S              -6.532  1.00     8 H
                                   10.14%     2 S               2.394  0.00     3 H
                                   10.10%     1 S              -6.532  1.00     7 H
                                   -8.76%     2 P:x             7.649  0.00    10 N
                                   -7.15%     2 P:x             4.589  0.00     2 C
                                   -6.68%     2 S               2.394  0.00     6 H
                                    4.83%     2 S               2.394  0.00     8 H
                                    4.14%     1 P:x            -7.062  1.00    10 N
                                    4.05%     1 P:y            -5.239  0.67     2 C
                                   -3.85%     2 P:x             7.649  0.00    12 N
                                    3.27%     2 S               2.394  0.00     5 H
                                    2.89%     3 S              40.869  0.00     6 H
                                   -2.57%     2 S               2.394  0.00     4 H
                                    2.54%     4 P:y             3.720  0.00     9 Br
                                   -2.15%     3 S              10.158  0.00     2 C
                                    1.75%     2 S             -13.620  2.00     2 C
                                    1.61%     1 P:y            -7.062  1.00    10 N
                                    1.48%     1 S              -6.532  1.00     4 H
                                    1.13%     1 P:z            -7.062  1.00    12 N
                                    1.12%     2 S             -13.620  2.00     1 C
       1.855  0.00    54 A         32.68%     1 S              -6.532  1.00     4 H
                                   14.39%     2 S               2.394  0.00     4 H
                                    9.06%     1 P:x            -5.239  0.67     2 C
                                    8.85%     1 S              -6.532  1.00     3 H
                                    8.38%     2 P:y             4.589  0.00     2 C
                                   -8.24%     2 S               2.394  0.00     3 H
                                   -7.63%     2 P:z             4.589  0.00     2 C
                                    7.42%     1 S              -6.532  1.00     7 H
                                   -6.35%     2 P:x             7.649  0.00    12 N
                                    5.41%     4 P:x             3.720  0.00     9 Br
                                    5.35%     1 S              -6.532  1.00     8 H
                                   -5.28%     2 P:x             4.589  0.00     2 C
                                    5.18%     2 S             -13.620  2.00     1 C
                                    4.98%     1 P:z            -5.239  0.67     2 C
                                   -3.80%     3 S              10.158  0.00     1 C
                                    3.36%     1 P:z            -5.239  0.67     1 C
                                    3.21%     1 P:x            -7.062  1.00    12 N
                                    2.68%     2 P:y             4.589  0.00     1 C
                                   -2.67%     5 S               6.099  0.00     9 Br
                                    2.54%     1 P:y            -5.239  0.67     2 C
                                   -2.49%     2 P:y             7.649  0.00    10 N
                                    2.44%     2 P:x             4.589  0.00     1 C
                                    2.22%     1 P:y            -7.062  1.00    10 N
                                    1.91%     2 P:z             7.649  0.00    10 N
                                    1.81%     3 S              40.869  0.00     4 H
                                    1.73%     2 D:x2-y2         7.341  0.00     9 Br
                                    1.56%     3 S              40.869  0.00     7 H
                                    1.53%     3 S              40.869  0.00     3 H
                                   -1.44%     3 S              10.158  0.00     2 C
                                    1.40%     2 S             -18.450  2.00    10 N
                                    1.38%     1 P:x            -5.239  0.67     1 C
                                    1.32%     1 P:z            -7.062  1.00    10 N
                                    1.32%     2 S               2.394  0.00     5 H
                                   -1.20%     3 S              14.073  0.00    10 N

 Energy gradients wrt nuclear displacements
 ==========================================

     Atom      Cartesian (a.u./angstrom)
                 X         Y         Z
 ----------------------------------------
     1 C    -0.000003  0.000013  0.000033
     2 H     0.000028 -0.000057 -0.000053
     3 Br   -0.000026  0.000098  0.000003
     4 C     0.000071  0.000013 -0.000017
     5 H     0.000071  0.000024 -0.000040
     6 N    -0.000025 -0.000110  0.000045
     7 H    -0.000077 -0.000043  0.000080
     8 H    -0.000069  0.000007 -0.000024
     9 N    -0.000070  0.000034  0.000058
    10 O     0.000023  0.000097  0.000020
    11 O    -0.000079 -0.000018  0.000052
    12 N     0.000066 -0.000012 -0.000049
    13 H     0.000061  0.000009 -0.000060
    14 H     0.000029 -0.000056 -0.000048
 ----------------------------------------



 =======================================================================
 Electrostatic potential at the Nuclei due to electrons and other nuclei
 =======================================================================
  
         Atom                  Potential
         ----                  ---------
     1)   C                  14.64281258
     2)   H                   1.07948506
     3)   Br                180.51594671
     4)   C                  14.72381680
     5)   H                   1.08800273
     6)   N                  18.37441307
     7)   H                   1.00290099
     8)   H                   0.99674786
     9)   N                  18.19869172
    10)   O                  22.35750467
    11)   O                  22.35501058
    12)   N                  18.41003147
    13)   H                   1.04105330
    14)   H                   1.04084669
 Mulliken charges used for AMS results%charges...


    =====================
     CALCULATION RESULTS
    =====================

Energy (hartree)            -2.72225326

Gradients (hartree/bohr)
  Index   Atom            d/dx            d/dy            d/dz
      1      C   -0.0000013315    0.0000066381    0.0000175421
      2      H    0.0000148615   -0.0000301340   -0.0000280252
      3     Br   -0.0000135556    0.0000518492    0.0000013521
      4      C    0.0000376828    0.0000068704   -0.0000092485
      5      H    0.0000375905    0.0000127183   -0.0000210684
      6      N   -0.0000133914   -0.0000580604    0.0000240631
      7      H   -0.0000406734   -0.0000228598    0.0000421140
      8      H   -0.0000366235    0.0000038258   -0.0000127842
      9      N   -0.0000368974    0.0000178507    0.0000306135
     10      O    0.0000119304    0.0000515339    0.0000107424
     11      O   -0.0000415765   -0.0000092822    0.0000276527
     12      N    0.0000347047   -0.0000061201   -0.0000257586
     13      H    0.0000321301    0.0000047953   -0.0000316258
     14      H    0.0000151492   -0.0000296250   -0.0000255692


--------------
Atomic charges
--------------
  Index   Atom    Charge
      1      C    0.3039
      2      H   -0.1729
      3     Br   -0.2157
      4      C    0.5917
      5      H   -0.1352
      6      N    0.0181
      7      H   -0.0178
      8      H   -0.0363
      9      N    0.5342
     10      O   -0.3680
     11      O   -0.3829
     12      N   -0.0578
     13      H   -0.0324
     14      H   -0.0288


Dipole moment vector    (Debye):     0.33933695    0.25019976   -3.07954384
              magnitude (Debye):     3.10826957


-----------------------
Molecular orbitals info
-----------------------
n orbitals:              304
n spin:                    1

Note: only printing virtual orbitals with
      energy smaller than HOMO + 100. eV

HOMO (eV):              -6.2283
LUMO (eV):              -3.4015
HOMO-LUMO gap (eV):      2.8268

   Index   Energy (eV)    Occupation
     195       92.5685         0.000       
     194       92.0613         0.000       
     193       91.2922         0.000       
     192       90.5468         0.000       
     191       89.7023         0.000       
     190       89.0428         0.000       
     189       87.9330         0.000       
     188       87.3021         0.000       
     187       85.7970         0.000       
     186       85.0613         0.000       
     185       84.5447         0.000       
     184       83.4301         0.000       
     183       83.0851         0.000       
     182       82.9631         0.000       
     181       81.8502         0.000       
     180       80.9808         0.000       
     179       79.8679         0.000       
     178       79.5477         0.000       
     177       78.6425         0.000       
     176       77.9681         0.000       
     175       77.1693         0.000       
     174       76.5063         0.000       
     173       75.8708         0.000       
     172       75.3841         0.000       
     171       74.3162         0.000       
     170       73.5124         0.000       
     169       72.4769         0.000       
     168       71.6457         0.000       
     167       70.5952         0.000       
     166       69.0781         0.000       
     165       67.8111         0.000       
     164       67.2257         0.000       
     163       64.9328         0.000       
     162       64.4709         0.000       
     161       62.8151         0.000       
     160       61.7034         0.000       
     159       61.0158         0.000       
     158       60.2880         0.000       
     157       59.8809         0.000       
     156       58.9581         0.000       
     155       57.6108         0.000       
     154       57.1068         0.000       
     153       56.3245         0.000       
     152       56.0577         0.000       
     151       54.8541         0.000       
     150       54.4642         0.000       
     149       52.7795         0.000       
     148       52.7159         0.000       
     147       52.6114         0.000       
     146       51.1214         0.000       
     145       50.0733         0.000       
     144       49.5887         0.000       
     143       48.8843         0.000       
     142       47.4855         0.000       
     141       46.1556         0.000       
     140       46.0437         0.000       
     139       44.8231         0.000       
     138       43.8522         0.000       
     137       42.5510         0.000       
     136       41.8326         0.000       
     135       41.4443         0.000       
     134       41.2313         0.000       
     133       40.0312         0.000       
     132       39.9580         0.000       
     131       38.7981         0.000       
     130       38.4743         0.000       
     129       37.3823         0.000       
     128       37.1315         0.000       
     127       36.0746         0.000       
     126       35.3334         0.000       
     125       35.1542         0.000       
     124       34.9136         0.000       
     123       34.3505         0.000       
     122       34.1628         0.000       
     121       33.7284         0.000       
     120       33.1352         0.000       
     119       32.5127         0.000       
     118       31.7286         0.000       
     117       31.4199         0.000       
     116       31.1739         0.000       
     115       30.8607         0.000       
     114       30.1319         0.000       
     113       29.7534         0.000       
     112       29.0454         0.000       
     111       27.8162         0.000       
     110       27.6629         0.000       
     109       27.3009         0.000       
     108       26.3992         0.000       
     107       25.8797         0.000       
     106       25.2721         0.000       
     105       24.7117         0.000       
     104       24.2167         0.000       
     103       24.0579         0.000       
     102       23.3388         0.000       
     101       23.2576         0.000       
     100       22.7838         0.000       
      99       21.6575         0.000       
      98       20.6649         0.000       
      97       20.5337         0.000       
      96       20.1892         0.000       
      95       18.6640         0.000       
      94       18.3277         0.000       
      93       17.7159         0.000       
      92       17.2084         0.000       
      91       16.0203         0.000       
      90       15.5315         0.000       
      89       15.1838         0.000       
      88       14.4751         0.000       
      87       13.8236         0.000       
      86       13.3095         0.000       
      85       13.0513         0.000       
      84       12.5997         0.000       
      83       12.2971         0.000       
      82       12.0824         0.000       
      81       11.5691         0.000       
      80       11.1300         0.000       
      79       10.7750         0.000       
      78       10.5839         0.000       
      77        9.7487         0.000       
      76        9.6491         0.000       
      75        9.0668         0.000       
      74        8.5450         0.000       
      73        8.4289         0.000       
      72        8.1499         0.000       
      71        7.8283         0.000       
      70        7.2598         0.000       
      69        6.9122         0.000       
      68        6.4975         0.000       
      67        6.2544         0.000       
      66        6.0961         0.000       
      65        5.7794         0.000       
      64        5.4440         0.000       
      63        5.0456         0.000       
      62        4.9737         0.000       
      61        4.6972         0.000       
      60        4.5385         0.000       
      59        4.2303         0.000       
      58        3.8661         0.000       
      57        3.4534         0.000       
      56        3.1872         0.000       
      55        2.4810         0.000       
      54        1.8553         0.000       
      53        1.3442         0.000       
      52        0.7340         0.000       
      51        0.4051         0.000       
      50        0.1395         0.000       
      49       -0.0179         0.000       
      48       -0.9263         0.000       
      47       -1.9553         0.000       
      46       -3.4015         0.000 < LUMO
      45       -6.2283         2.000 < HOMO
      44       -6.6621         2.000       
      43       -7.0285         2.000       
      42       -7.3941         2.000       
      41       -7.5678         2.000       
      40       -8.0270         2.000       
      39       -8.4665         2.000       
      38       -9.5291         2.000       
      37      -10.0192         2.000       
      36      -11.0689         2.000       
      35      -11.7838         2.000       
      34      -12.6391         2.000       
      33      -12.8413         2.000       
      32      -12.9582         2.000       
      31      -13.6612         2.000       
      30      -13.9694         2.000       
      29      -14.9946         2.000       
      28      -16.7866         2.000       
      27      -18.5936         2.000       
      26      -20.5649         2.000       
      25      -22.4177         2.000       
      24      -24.1016         2.000       
      23      -26.5702         2.000       
      22      -30.7167         2.000       
      21      -66.0902         2.000       
      20      -66.0947         2.000       
      19      -66.3571         2.000       
      18      -66.3692         2.000       
      17      -66.4546         2.000       
      16     -172.6687         2.000       
      15     -172.6835         2.000       
      14     -173.0377         2.000       
      13     -236.5687         2.000       
      12     -271.6630         2.000       
      11     -273.9850         2.000       
      10     -381.7227         2.000       
       9     -382.6576         2.000       
       8     -387.5893         2.000       
       7     -512.7967         2.000       
       6     -512.8574         2.000       
       5    -1526.7806         2.000       
       4    -1526.7851         2.000       
       3    -1526.9064         2.000       
       2    -1729.9136         2.000       
       1   -13296.3937         2.000       

AMS application finished. Exiting.
NORMAL TERMINATION
     Total cpu time:    1329.68
  Total system time:       6.38
 Total elapsed time:    1339.96
NORMAL TERMINATION
