
 *******************************************************************************
 *                                                                             *
 *  --------------------------------                                           *
 *   Amsterdam Modeling Suite (AMS)              2026.103                      *
 *  --------------------------------                                           *
 *                                               r260501 2026-05-01 873454b5   *
 *                                                                             *
 *                                                                             *
 *                              =================                              *
 *                              |               |                              *
 *                              |     A M S     |                              *
 *                              |               |                              *
 *                              =================                              *
 *                                                                             *
 *                                                                             *
 *   Online information and documentation:  https://www.scm.com/support/       *
 *   E-mail:  support@scm.com   info@scm.com                                   *
 *                                                                             *
 *   Scientific publications using AMS results must be properly referenced     *
 *   See the User Manuals (or the web site) for recommended citations          *
 *   The terms and conditions of the End User License Agreement apply to       *
 *   the use of AMS, https://www.scm.com/license-terms/                        *
 *                                                                             *
 **********************  x86_64_linux_intel / intelmpi  ************************
 
 Licensed to: Jong-June Jeon / University of Seoul 2026-06-02 13:44:15
 SCM User ID: u30731
  
 AMS 2026.103  RunTime: Jun03-2026 22:25:24  ShM Nodes: 1  Procs: 1

 AMS jobname: c3_eda
 AMS jobid  : 1803452079

 Start   directory: /gpfs/home1/yeseo1ee/projects/eda-asm-prediction/ADF_800/adf_outputs/batch_007/qmrxn20_sn2_D_E_E_A_B_B/
 Results directory: /gpfs/home1/yeseo1ee/projects/eda-asm-prediction/ADF_800/adf_outputs/batch_007/qmrxn20_sn2_D_E_E_A_B_B/c3_eda.results/
 Scratch directory: /tmp/amstmp_c3_eda_kid0.1803452079/

 RNG seed: 1896171465 -1962156273 954578117 260443644 -1658766705 -15792444 -460994463 1895806151



                      ************************************************************************
                      *  ADF 2026.103  RunTime: Jun03-2026 22:25:24  ShM Nodes: 1  Procs: 1  *
                      ************************************************************************
  

       ****************************
       * SINGLE POINT CALCULATION *
       ****************************

--------
Geometry
--------
Formula: C3H9ClFN2
Atoms
  Index Symbol   x (angstrom)   y (angstrom)   z (angstrom)
      1     Cl    -2.42411145    -0.43952696    -0.80424830 adf.f=fA
      2      C     0.57702181    -0.03149569    -0.04049745 adf.f=fB
      3      H     1.29424890     1.75725383    -0.83046808 adf.f=fB
      4      F     2.79721565     0.35088702     0.98201372 adf.f=fB
      5      C     0.57073230     1.46802111    -0.06558892 adf.f=fB
      6      H    -0.43334322     1.72290274    -0.42641211 adf.f=fB
      7      C     0.72204975    -0.77282851    -1.31164295 adf.f=fB
      8      H     0.28082221    -1.76620673    -1.26037984 adf.f=fB
      9      H     0.25118658    -0.23206114    -2.12829519 adf.f=fB
     10      H     1.80713941    -0.83274012    -1.45735257 adf.f=fB
     11      N     0.44292985    -0.66258382     1.07543307 adf.f=fB
     12      H     0.77590894    -0.16523163     1.88848603 adf.f=fB
     13      H     0.48413209    -1.66777967     1.08673179 adf.f=fB
     14      N     0.90372353     2.14641768     1.16475294 adf.f=fB
     15      H     1.78671127     1.68080784     1.43668861 adf.f=fB
     16      H     0.17394238     2.01274404     1.85464926 adf.f=fB

Total System Charge             -1.00000


----------------
ADF Engine Input
----------------
 
   Basis
     Type TZ2P
     Core None
   End
   XC
     GGA BLYP
     Dispersion GRIMME3 BJDAMP
   End
   Symmetry NOSYM
   NumericalQuality Normal
   Unrestricted No
   SCF
     Iterations 200
     Converge 1.0e-6
   End
   fragments
     fA c1_fragA_ts.results/adf.rkf
     fB c2_fragB_ts.results/adf.rkf
   end
   etsnocv
     enocv 0.05
     ekmin 0.5
   end
   print etslowdin
   Save TAPE21
 

 Title: *** (NO TITLE) ***

 *** adf ***



 ===========================
 A T T A C H E D   F I L E S
 ===========================
  



 ===============================
 M O D E L   P A R A M E T E R S
 ===============================
  
 DENSITY FUNCTIONAL POTENTIAL (scf)
    LDA:                               Exchange only                           == Not Default ==
    Gradient Corrections:              Becke88 LYP                             == Not Default ==

 SPIN  (restricted / unrestr.)
    Molecule:                          Restricted                               
    Fragments:                         Restricted                               

 OTHER ASPECTS
    Relativistic Corrections:          scalar (ZORA,MAPA)                       

    Nuclear Charge Density Model:      Point Charge Nuclei                      
    Core Treatment:                    Frozen Orbital(s)                        

    Hyperfine or Zeeman Interaction:   ---                                      

 Settings for Grimme D3 dispersion correction

      damping                        BJ
      s6                          1.000
      s8                          2.700
      a1                          0.430
      a2                          4.236

 Other (technical) parameters

      alpha                      14.000
      version                         4
 


 Fragment File(s)
 ----------------
 fA:
         file : c1_fragA_ts.results/adf.rkf
         jobid: 1426941741
         title: *** adf ***
 fB:
         file : c2_fragB_ts.results/adf.rkf
         jobid: 1846967398
         title: *** adf ***



 ===============
 G E O M E T R Y  ***  3D  Molecule  ***
 ===============
  

 ATOMS
 =====                            X Y Z                    CHARGE
                                (Angstrom)             Nucl     +Core       At.Mass
                       --------------------------    ----------------       -------
    1  Cl             -2.4241   -0.4395   -0.8042     17.00     17.00       34.9689
    2  C               0.5770   -0.0315   -0.0405      6.00      6.00       12.0000
    3  H               1.2942    1.7573   -0.8305      1.00      1.00        1.0078
    4  F               2.7972    0.3509    0.9820      9.00      9.00       18.9984
    5  C               0.5707    1.4680   -0.0656      6.00      6.00       12.0000
    6  H              -0.4333    1.7229   -0.4264      1.00      1.00        1.0078
    7  C               0.7220   -0.7728   -1.3116      6.00      6.00       12.0000
    8  H               0.2808   -1.7662   -1.2604      1.00      1.00        1.0078
    9  H               0.2512   -0.2321   -2.1283      1.00      1.00        1.0078
   10  H               1.8071   -0.8327   -1.4574      1.00      1.00        1.0078
   11  N               0.4429   -0.6626    1.0754      7.00      7.00       14.0031
   12  H               0.7759   -0.1652    1.8885      1.00      1.00        1.0078
   13  H               0.4841   -1.6678    1.0867      1.00      1.00        1.0078
   14  N               0.9037    2.1464    1.1648      7.00      7.00       14.0031
   15  H               1.7867    1.6808    1.4367      1.00      1.00        1.0078
   16  H               0.1739    2.0127    1.8546      1.00      1.00        1.0078


 FRAGMENTS
 =========                                     Atoms in this Fragment     Cart. coord.s (Angstrom)
                                               -------------------------------------------------------
    1  fA                                                1  Cl          -2.4241   -0.4395   -0.8042
    2  fB                                                2  C            0.5770   -0.0315   -0.0405
                                                         5  C            0.5707    1.4680   -0.0656
                                                         7  C            0.7220   -0.7728   -1.3116
                                                         3  H            1.2942    1.7573   -0.8305
                                                         6  H           -0.4333    1.7229   -0.4264
                                                         8  H            0.2808   -1.7662   -1.2604
                                                         9  H            0.2512   -0.2321   -2.1283
                                                        10  H            1.8071   -0.8327   -1.4574
                                                        12  H            0.7759   -0.1652    1.8885
                                                        13  H            0.4841   -1.6678    1.0867
                                                        15  H            1.7867    1.6808    1.4367
                                                        16  H            0.1739    2.0127    1.8546
                                                         4  F            2.7972    0.3509    0.9820
                                                        11  N            0.4429   -0.6626    1.0754
                                                        14  N            0.9037    2.1464    1.1648


 Interatomic Distance Matrix (Angstrom)
 --------------------------------------

   1)     0.000
   2)     3.124   0.000
   3)     4.319   2.083   0.000
   4)     5.575   2.474   2.743   0.000
   5)     3.627   1.500   1.092   2.702   0.000
   6)     2.963   2.061   1.775   3.782   1.097   0.000
   7)     3.204   1.479   2.638   3.291   2.568   2.889   0.000
   8)     3.047   2.141   3.691   3.980   3.460   3.658   1.088   0.000
   9)     2.992   2.123   2.594   4.062   2.692   2.681   1.087   1.763   0.000
  10)     4.299   2.040   2.714   2.886   2.960   3.552   1.096   1.800   1.798   0.000
  11)     3.436   1.289   3.196   2.565   2.420   2.952   2.406   2.588   3.238   2.882
          0.000
  12)     4.191   1.944   3.370   2.275   2.555   3.223   3.258   3.567   4.051   3.564
          1.010   0.000
  13)     3.680   1.989   4.008   3.072   3.342   3.825   2.571   2.358   3.529   2.987
          1.006   1.728   0.000
  14)     4.652   2.511   2.070   2.616   1.444   2.121   3.832   4.645   4.114   4.070
          2.848   2.426   3.838   0.000
  15)     5.220   2.565   2.321   1.731   1.944   2.899   3.835   4.629   4.327   3.833
          2.725   2.153   3.610   1.035   0.000
  16)     4.453   2.817   2.921   3.226   2.035   2.378   4.253   4.898   4.573   4.662
          2.799   2.260   3.773   1.013   1.699   0.000

 Min. Distance =    1.0061
 Max. Distance =    5.5747



 =====================================
 S Y M M E T R Y ,   E L E C T R O N S
 =====================================
  
 Symmetry: NOSYM

 Irreducible Representations, including subspecies
 -------------------------------------------------
 A


 Configuration of Valence Electrons
 ==================================
 ( determined in the SCF procedure )

 Total:   68

 Net Charge: -1 (Nuclei minus Electrons)

 Aufbau principle for MO occupations will be applied through SCF cycle no.     100
 Thereafter, the program will assign electrons to MOs that are spatially
 similar to the occupied MOs in a "reference" cycle ("KeepOrbitals").
 The reference cycle is always the PREVIOUS cycle: it will evolve with
 the SCF procedure.
 ***************************************************************************************************



                                      ****************************************
                                      *  B U I L D : (Fragments, Functions)  *
                                      ****************************************
  

 The individual fragments are copies of the corresponding 'Master' fragments defined on the fragment files.
 However, they may have been rotated (and translated) with respect to the Master. The local coordinate axes
 of each fragment (which define for instance the spatial orientation in the current molecule of a fragment
 P:x orbital) are not necessarily those of the molecule.
 The local frame (if different from the molecular one) is printed to enable an interpretation of the expan-
 sion of an MO in Fragment Orbitals.



                                              ************************
                                              *  Fragment Type : fA  *
                                              ************************
  

 Fragment no.    1   (in the list of all fragments)
 -----------------
 The local coordinate frame is identical to the molecular frame.

 Check Atomic Coordinates:

                  Master (on file)          After Computed Tranformation               As specified on Input
           ----------------------------     ----------------------------     ---------------------------------
     1)    -2.42411  -0.43953  -0.80425     -2.42411  -0.43953  -0.80425       1  -2.42411  -0.43953  -0.80425



                                              ************************
                                              *  Fragment Type : fB  *
                                              ************************
  

 Fragment no.    2   (in the list of all fragments)
 -----------------
 The local coordinate frame is identical to the molecular frame.

 Check Atomic Coordinates:

                  Master (on file)          After Computed Tranformation               As specified on Input
           ----------------------------     ----------------------------     ---------------------------------
     1)     0.57702  -0.03150  -0.04050      0.57702  -0.03150  -0.04050       2   0.57702  -0.03150  -0.04050
     2)     0.57073   1.46802  -0.06559      0.57073   1.46802  -0.06559       5   0.57073   1.46802  -0.06559
     3)     0.72205  -0.77283  -1.31164      0.72205  -0.77283  -1.31164       7   0.72205  -0.77283  -1.31164
     4)     1.29425   1.75725  -0.83047      1.29425   1.75725  -0.83047       3   1.29425   1.75725  -0.83047
     5)    -0.43334   1.72290  -0.42641     -0.43334   1.72290  -0.42641       6  -0.43334   1.72290  -0.42641
     6)     0.28082  -1.76621  -1.26038      0.28082  -1.76621  -1.26038       8   0.28082  -1.76621  -1.26038
     7)     0.25119  -0.23206  -2.12830      0.25119  -0.23206  -2.12830       9   0.25119  -0.23206  -2.12830
     8)     1.80714  -0.83274  -1.45735      1.80714  -0.83274  -1.45735      10   1.80714  -0.83274  -1.45735
     9)     0.77591  -0.16523   1.88849      0.77591  -0.16523   1.88849      12   0.77591  -0.16523   1.88849
    10)     0.48413  -1.66778   1.08673      0.48413  -1.66778   1.08673      13   0.48413  -1.66778   1.08673
    11)     1.78671   1.68081   1.43669      1.78671   1.68081   1.43669      15   1.78671   1.68081   1.43669
    12)     0.17394   2.01274   1.85465      0.17394   2.01274   1.85465      16   0.17394   2.01274   1.85465
    13)     2.79722   0.35089   0.98201      2.79722   0.35089   0.98201       4   2.79722   0.35089   0.98201
    14)     0.44293  -0.66258   1.07543      0.44293  -0.66258   1.07543      11   0.44293  -0.66258   1.07543
    15)     0.90372   2.14642   1.16475      0.90372   2.14642   1.16475      14   0.90372   2.14642   1.16475



 =======
 S F O s  ***  (Symmetrized Fragment Orbitals)  ***
 =======
  
 SFOs are linear combinations of (valence) Fragment Orbitals (FOs), such that the SFOs transform as the
 irreducible representations of the (molecular) symmetry group. Each SFO is therefore characterized by
 an irrep of the molecule and by a few (or only one) generating FOs.
 The SFOs constitute a symmetry-adapted basis for the Fock matrix. The MO eigenvector coefficients in
 this basis provide a direct interpretation of the MOs in terms of Frontier Orbital Theory.

 The SFOs are combined with auxiliary Core Functions (CFs) to ensure orthogonalization on the (frozen)
 Core Orbitals (COs). The Core-orthogonalized SFOs (CSFOs) constitute the true Fock basis.

 The FOs, and hence also the (C)SFOs are combinations of the elementary basis functions (BAS). The basis
 functions that participate in the description of the SFOs depend on the irrep. The indices of the
 involved functions are printed below for each irrep.
 (The complete list of primitive basis functions is printed in another section)

 Total nr. of (C)SFOs (summation over all irreps) :   289

 NOTE: a (C)SFO that is defined as a combination of more than one FO is usually NOT normalized.



                                       === A ===
 Nr. of SFOs :  289
 Cartesian basis functions that participate in this irrep (total number =   326) :
      1     2     3     4    11    12    13     5     8    14
     17    20     6     9    15    18    21     7    10    16
     19    22    23    24    25    26    27    28    29    30
     31    32    33    34    35    36    37    38    39    40
     41    42    43    44    47    50    45    48    51    46
     49    52    53    54    55    56    57    58    59    60
     61    62    63    64    65    66    67    68    69    70
     71    72    73    74    77    80    75    78    81    76
     79    82    83    84    85    86    87    88    89    90
     91    92    93    94    95    96    97    98    99   100
    101   102   103   104   107   110   105   108   111   106
    109   112   113   114   115   116   117   118   119   120
    121   122   123   124   125   126   127   128   129   130
    131   132   133   134   135   136   137   138   139   140
    141   142   143   144   145   146   147   148   149   150
    151   152   153   154   155   156   157   158   159   160
    161   162   163   164   165   166   167   168   169   170
    171   172   173   174   175   176   177   178   179   180
    181   182   183   184   185   186   187   188   189   190
    191   192   193   194   195   196   197   198   199   200
    201   202   203   204   205   206   207   208   209   210
    211   212   213   214   215   216   217   218   219   220
    221   222   223   224   225   226   227   228   229   230
    231   232   233   234   235   236   237   238   239   240
    241   242   245   248   243   246   249   244   247   250
    251   252   253   254   255   256   257   258   259   260
    261   262   263   264   265   266   267   268   269   270
    271   272   275   278   273   276   279   274   277   280
    281   282   283   284   285   286   287   288   289   290
    291   292   293   294   295   296   297   298   299   300
    301   302   305   308   303   306   309   304   307   310
    311   312   313   314   315   316   317   318   319   320
    321   322   323   324   325   326

    SFO  (index         Fragment          Generating    Expansion in Fragment Orbitals
  indx  incl.CFs)   Occup   Orb.Energy   FragmentType  Coeff.   Orbital     on Fragment
 --------------------------------------------------------------------------------------
     1       1      2.000    -100.735 au  fA            1.00      1 A               1
                        (   -2741.135 eV)
     2       2      2.000      -8.888 au  fA            1.00      2 A               1
                        (    -241.848 eV)
     3       3      2.000      -6.648 au  fA            1.00      3 A               1
                        (    -180.901 eV)
     4       4      2.000      -6.648 au  fA            1.00      4 A               1
                        (    -180.901 eV)
     5       5      2.000      -6.648 au  fA            1.00      5 A               1
                        (    -180.901 eV)
     6       6      2.000      -0.390 au  fA            1.00      6 A               1
                        (     -10.619 eV)
     7       7      2.000       0.034 au  fA            1.00      7 A               1
                        (       0.928 eV)
     8       8      2.000       0.034 au  fA            1.00      8 A               1
                        (       0.928 eV)
     9       9      2.000       0.034 au  fA            1.00      9 A               1
                        (       0.928 eV)
    10      10       --         0.473 au  fA            1.00     10 A               1
                        (      12.862 eV)
    11      11       --         0.489 au  fA            1.00     11 A               1
                        (      13.303 eV)
    12      12       --         0.489 au  fA            1.00     12 A               1
                        (      13.303 eV)
    13      13       --         0.489 au  fA            1.00     13 A               1
                        (      13.303 eV)
    14      14       --         0.743 au  fA            1.00     14 A               1
                        (      20.220 eV)
    15      15       --         0.743 au  fA            1.00     15 A               1
                        (      20.220 eV)
    16      16       --         0.743 au  fA            1.00     16 A               1
                        (      20.220 eV)
    17      17       --         0.743 au  fA            1.00     17 A               1
                        (      20.220 eV)
    18      18       --         0.743 au  fA            1.00     18 A               1
                        (      20.220 eV)
    19      19       --         1.518 au  fA            1.00     19 A               1
                        (      41.317 eV)
    20      20       --         1.518 au  fA            1.00     20 A               1
                        (      41.317 eV)
    21      21       --         1.518 au  fA            1.00     21 A               1
                        (      41.317 eV)
    22      22       --         1.518 au  fA            1.00     22 A               1
                        (      41.317 eV)
    23      23       --         1.518 au  fA            1.00     23 A               1
                        (      41.317 eV)
    24      24       --         1.518 au  fA            1.00     24 A               1
                        (      41.317 eV)
    25      25       --         1.518 au  fA            1.00     25 A               1
                        (      41.317 eV)
    26      26       --         2.339 au  fA            1.00     26 A               1
                        (      63.651 eV)
    27      27       --         2.448 au  fA            1.00     27 A               1
                        (      66.624 eV)
    28      28       --         2.448 au  fA            1.00     28 A               1
                        (      66.624 eV)
    29      29       --         2.448 au  fA            1.00     29 A               1
                        (      66.624 eV)
    30      30       --        12.992 au  fA            1.00     30 A               1
                        (     353.542 eV)
    31      31       --        19.044 au  fA            1.00     31 A               1
                        (     518.220 eV)
    32      32       --        19.044 au  fA            1.00     32 A               1
                        (     518.220 eV)
    33      33       --        19.044 au  fA            1.00     33 A               1
                        (     518.220 eV)
    34      34       --       205.706 au  fA            1.00     34 A               1
                        (    5597.551 eV)
    35      35      2.000     -24.116 au  fB            1.00      1 A               2
                        (    -656.222 eV)
    36      36      2.000     -14.099 au  fB            1.00      2 A               2
                        (    -383.645 eV)
    37      37      2.000     -13.990 au  fB            1.00      3 A               2
                        (    -380.682 eV)
    38      38      2.000     -10.037 au  fB            1.00      4 A               2
                        (    -273.128 eV)
    39      39      2.000      -9.967 au  fB            1.00      5 A               2
                        (    -271.221 eV)
    40      40      2.000      -9.961 au  fB            1.00      6 A               2
                        (    -271.039 eV)
    41      41      2.000      -0.925 au  fB            1.00      7 A               2
                        (     -25.177 eV)
    42      42      2.000      -0.860 au  fB            1.00      8 A               2
                        (     -23.412 eV)
    43      43      2.000      -0.803 au  fB            1.00      9 A               2
                        (     -21.859 eV)
    44      44      2.000      -0.730 au  fB            1.00     10 A               2
                        (     -19.876 eV)
    45      45      2.000      -0.640 au  fB            1.00     11 A               2
                        (     -17.416 eV)
    46      46      2.000      -0.575 au  fB            1.00     12 A               2
                        (     -15.647 eV)
    47      47      2.000      -0.538 au  fB            1.00     13 A               2
                        (     -14.649 eV)
    48      48      2.000      -0.469 au  fB            1.00     14 A               2
                        (     -12.768 eV)
    49      49      2.000      -0.461 au  fB            1.00     15 A               2
                        (     -12.536 eV)
    50      50      2.000      -0.426 au  fB            1.00     16 A               2
                        (     -11.595 eV)
    51      51      2.000      -0.396 au  fB            1.00     17 A               2
                        (     -10.766 eV)
    52      52      2.000      -0.383 au  fB            1.00     18 A               2
                        (     -10.432 eV)
    53      53      2.000      -0.366 au  fB            1.00     19 A               2
                        (      -9.961 eV)
    54      54      2.000      -0.354 au  fB            1.00     20 A               2
                        (      -9.622 eV)
    55      55      2.000      -0.333 au  fB            1.00     21 A               2
                        (      -9.071 eV)
    56      56      2.000      -0.213 au  fB            1.00     22 A               2
                        (      -5.801 eV)
    57      57      2.000      -0.189 au  fB            1.00     23 A               2
                        (      -5.146 eV)
    58      58      2.000      -0.181 au  fB            1.00     24 A               2
                        (      -4.915 eV)
    59      59      2.000      -0.177 au  fB            1.00     25 A               2
                        (      -4.821 eV)
    60      60       --        -0.102 au  fB            1.00     26 A               2
                        (      -2.779 eV)
    61      61       --        -0.037 au  fB            1.00     27 A               2
                        (      -1.008 eV)
    62      62       --        -0.007 au  fB            1.00     28 A               2
                        (      -0.187 eV)
    63      63       --        -0.002 au  fB            1.00     29 A               2
                        (      -0.063 eV)
    64      64       --         0.027 au  fB            1.00     30 A               2
                        (       0.735 eV)
    65      65       --         0.036 au  fB            1.00     31 A               2
                        (       0.992 eV)
    66      66       --         0.047 au  fB            1.00     32 A               2
                        (       1.270 eV)
    67      67       --         0.064 au  fB            1.00     33 A               2
                        (       1.734 eV)
    68      68       --         0.077 au  fB            1.00     34 A               2
                        (       2.102 eV)
    69      69       --         0.092 au  fB            1.00     35 A               2
                        (       2.505 eV)
    70      70       --         0.112 au  fB            1.00     36 A               2
                        (       3.061 eV)
    71      71       --         0.121 au  fB            1.00     37 A               2
                        (       3.297 eV)
    72      72       --         0.143 au  fB            1.00     38 A               2
                        (       3.886 eV)
    73      73       --         0.150 au  fB            1.00     39 A               2
                        (       4.069 eV)
    74      74       --         0.167 au  fB            1.00     40 A               2
                        (       4.548 eV)
    75      75       --         0.187 au  fB            1.00     41 A               2
                        (       5.091 eV)
    76      76       --         0.206 au  fB            1.00     42 A               2
                        (       5.599 eV)
    77      77       --         0.209 au  fB            1.00     43 A               2
                        (       5.680 eV)
    78      78       --         0.219 au  fB            1.00     44 A               2
                        (       5.949 eV)
    79      79       --         0.243 au  fB            1.00     45 A               2
                        (       6.613 eV)
    80      80       --         0.255 au  fB            1.00     46 A               2
                        (       6.940 eV)
    81      81       --         0.271 au  fB            1.00     47 A               2
                        (       7.370 eV)
    82      82       --         0.296 au  fB            1.00     48 A               2
                        (       8.057 eV)
    83      83       --         0.314 au  fB            1.00     49 A               2
                        (       8.549 eV)
    84      84       --         0.321 au  fB            1.00     50 A               2
                        (       8.745 eV)
    85      85       --         0.346 au  fB            1.00     51 A               2
                        (       9.417 eV)
    86      86       --         0.351 au  fB            1.00     52 A               2
                        (       9.546 eV)
    87      87       --         0.361 au  fB            1.00     53 A               2
                        (       9.814 eV)
    88      88       --         0.379 au  fB            1.00     54 A               2
                        (      10.303 eV)
    89      89       --         0.389 au  fB            1.00     55 A               2
                        (      10.579 eV)
    90      90       --         0.397 au  fB            1.00     56 A               2
                        (      10.792 eV)
    91      91       --         0.410 au  fB            1.00     57 A               2
                        (      11.166 eV)
    92      92       --         0.431 au  fB            1.00     58 A               2
                        (      11.737 eV)
    93      93       --         0.453 au  fB            1.00     59 A               2
                        (      12.323 eV)
    94      94       --         0.463 au  fB            1.00     60 A               2
                        (      12.598 eV)
    95      95       --         0.502 au  fB            1.00     61 A               2
                        (      13.665 eV)
    96      96       --         0.520 au  fB            1.00     62 A               2
                        (      14.159 eV)
    97      97       --         0.535 au  fB            1.00     63 A               2
                        (      14.553 eV)
    98      98       --         0.568 au  fB            1.00     64 A               2
                        (      15.449 eV)
    99      99       --         0.615 au  fB            1.00     65 A               2
                        (      16.728 eV)
   100     100       --         0.638 au  fB            1.00     66 A               2
                        (      17.353 eV)
   101     101       --         0.668 au  fB            1.00     67 A               2
                        (      18.188 eV)
   102     102       --         0.733 au  fB            1.00     68 A               2
                        (      19.941 eV)
   103     103       --         0.754 au  fB            1.00     69 A               2
                        (      20.528 eV)
   104     104       --         0.786 au  fB            1.00     70 A               2
                        (      21.381 eV)
   105     105       --         0.804 au  fB            1.00     71 A               2
                        (      21.879 eV)
   106     106       --         0.825 au  fB            1.00     72 A               2
                        (      22.447 eV)
   107     107       --         0.847 au  fB            1.00     73 A               2
                        (      23.039 eV)
   108     108       --         0.877 au  fB            1.00     74 A               2
                        (      23.853 eV)
   109     109       --         0.925 au  fB            1.00     75 A               2
                        (      25.165 eV)
   110     110       --         0.945 au  fB            1.00     76 A               2
                        (      25.718 eV)
   111     111       --         0.982 au  fB            1.00     77 A               2
                        (      26.714 eV)
   112     112       --         0.992 au  fB            1.00     78 A               2
                        (      27.003 eV)
   113     113       --         1.001 au  fB            1.00     79 A               2
                        (      27.252 eV)
   114     114       --         1.027 au  fB            1.00     80 A               2
                        (      27.946 eV)
   115     115       --         1.055 au  fB            1.00     81 A               2
                        (      28.713 eV)
   116     116       --         1.075 au  fB            1.00     82 A               2
                        (      29.249 eV)
   117     117       --         1.082 au  fB            1.00     83 A               2
                        (      29.441 eV)
   118     118       --         1.096 au  fB            1.00     84 A               2
                        (      29.821 eV)
   119     119       --         1.130 au  fB            1.00     85 A               2
                        (      30.744 eV)
   120     120       --         1.152 au  fB            1.00     86 A               2
                        (      31.345 eV)
   121     121       --         1.163 au  fB            1.00     87 A               2
                        (      31.642 eV)
   122     122       --         1.179 au  fB            1.00     88 A               2
                        (      32.071 eV)
   123     123       --         1.207 au  fB            1.00     89 A               2
                        (      32.832 eV)
   124     124       --         1.237 au  fB            1.00     90 A               2
                        (      33.658 eV)
   125     125       --         1.260 au  fB            1.00     91 A               2
                        (      34.288 eV)
   126     126       --         1.279 au  fB            1.00     92 A               2
                        (      34.814 eV)
   127     127       --         1.283 au  fB            1.00     93 A               2
                        (      34.924 eV)
   128     128       --         1.324 au  fB            1.00     94 A               2
                        (      36.026 eV)
   129     129       --         1.346 au  fB            1.00     95 A               2
                        (      36.614 eV)
   130     130       --         1.355 au  fB            1.00     96 A               2
                        (      36.863 eV)
   131     131       --         1.388 au  fB            1.00     97 A               2
                        (      37.775 eV)
   132     132       --         1.433 au  fB            1.00     98 A               2
                        (      39.001 eV)
   133     133       --         1.449 au  fB            1.00     99 A               2
                        (      39.432 eV)
   134     134       --         1.465 au  fB            1.00    100 A               2
                        (      39.859 eV)
   135     135       --         1.496 au  fB            1.00    101 A               2
                        (      40.710 eV)
   136     136       --         1.523 au  fB            1.00    102 A               2
                        (      41.440 eV)
   137     137       --         1.534 au  fB            1.00    103 A               2
                        (      41.743 eV)
   138     138       --         1.546 au  fB            1.00    104 A               2
                        (      42.055 eV)
   139     139       --         1.584 au  fB            1.00    105 A               2
                        (      43.109 eV)
   140     140       --         1.631 au  fB            1.00    106 A               2
                        (      44.382 eV)
   141     141       --         1.648 au  fB            1.00    107 A               2
                        (      44.855 eV)
   142     142       --         1.654 au  fB            1.00    108 A               2
                        (      45.002 eV)
   143     143       --         1.726 au  fB            1.00    109 A               2
                        (      46.971 eV)
   144     144       --         1.756 au  fB            1.00    110 A               2
                        (      47.775 eV)
   145     145       --         1.789 au  fB            1.00    111 A               2
                        (      48.674 eV)
   146     146       --         1.839 au  fB            1.00    112 A               2
                        (      50.040 eV)
   147     147       --         1.851 au  fB            1.00    113 A               2
                        (      50.380 eV)
   148     148       --         1.869 au  fB            1.00    114 A               2
                        (      50.863 eV)
   149     149       --         1.896 au  fB            1.00    115 A               2
                        (      51.598 eV)
   150     150       --         1.935 au  fB            1.00    116 A               2
                        (      52.651 eV)
   151     151       --         1.962 au  fB            1.00    117 A               2
                        (      53.384 eV)
   152     152       --         2.006 au  fB            1.00    118 A               2
                        (      54.580 eV)
   153     153       --         2.028 au  fB            1.00    119 A               2
                        (      55.175 eV)
   154     154       --         2.060 au  fB            1.00    120 A               2
                        (      56.042 eV)
   155     155       --         2.105 au  fB            1.00    121 A               2
                        (      57.280 eV)
   156     156       --         2.112 au  fB            1.00    122 A               2
                        (      57.466 eV)
   157     157       --         2.165 au  fB            1.00    123 A               2
                        (      58.911 eV)
   158     158       --         2.175 au  fB            1.00    124 A               2
                        (      59.192 eV)
   159     159       --         2.223 au  fB            1.00    125 A               2
                        (      60.498 eV)
   160     160       --         2.254 au  fB            1.00    126 A               2
                        (      61.347 eV)
   161     161       --         2.295 au  fB            1.00    127 A               2
                        (      62.448 eV)
   162     162       --         2.330 au  fB            1.00    128 A               2
                        (      63.391 eV)
   163     163       --         2.379 au  fB            1.00    129 A               2
                        (      64.738 eV)
   164     164       --         2.395 au  fB            1.00    130 A               2
                        (      65.164 eV)
   165     165       --         2.471 au  fB            1.00    131 A               2
                        (      67.236 eV)
   166     166       --         2.547 au  fB            1.00    132 A               2
                        (      69.310 eV)
   167     167       --         2.572 au  fB            1.00    133 A               2
                        (      69.997 eV)
   168     168       --         2.604 au  fB            1.00    134 A               2
                        (      70.865 eV)
   169     169       --         2.648 au  fB            1.00    135 A               2
                        (      72.042 eV)
   170     170       --         2.664 au  fB            1.00    136 A               2
                        (      72.495 eV)
   171     171       --         2.672 au  fB            1.00    137 A               2
                        (      72.698 eV)
   172     172       --         2.705 au  fB            1.00    138 A               2
                        (      73.612 eV)
   173     173       --         2.746 au  fB            1.00    139 A               2
                        (      74.735 eV)
   174     174       --         2.780 au  fB            1.00    140 A               2
                        (      75.650 eV)
   175     175       --         2.792 au  fB            1.00    141 A               2
                        (      75.976 eV)
   176     176       --         2.836 au  fB            1.00    142 A               2
                        (      77.160 eV)
   177     177       --         2.846 au  fB            1.00    143 A               2
                        (      77.442 eV)
   178     178       --         2.878 au  fB            1.00    144 A               2
                        (      78.327 eV)
   179     179       --         2.911 au  fB            1.00    145 A               2
                        (      79.221 eV)
   180     180       --         2.941 au  fB            1.00    146 A               2
                        (      80.031 eV)
   181     181       --         2.958 au  fB            1.00    147 A               2
                        (      80.478 eV)
   182     182       --         2.974 au  fB            1.00    148 A               2
                        (      80.928 eV)
   183     183       --         3.018 au  fB            1.00    149 A               2
                        (      82.114 eV)
   184     184       --         3.027 au  fB            1.00    150 A               2
                        (      82.364 eV)
   185     185       --         3.065 au  fB            1.00    151 A               2
                        (      83.414 eV)
   186     186       --         3.077 au  fB            1.00    152 A               2
                        (      83.736 eV)
   187     187       --         3.123 au  fB            1.00    153 A               2
                        (      84.981 eV)
   188     188       --         3.168 au  fB            1.00    154 A               2
                        (      86.217 eV)
   189     189       --         3.208 au  fB            1.00    155 A               2
                        (      87.283 eV)
   190     190       --         3.216 au  fB            1.00    156 A               2
                        (      87.509 eV)
   191     191       --         3.237 au  fB            1.00    157 A               2
                        (      88.092 eV)
   192     192       --         3.328 au  fB            1.00    158 A               2
                        (      90.562 eV)
   193     193       --         3.346 au  fB            1.00    159 A               2
                        (      91.049 eV)
   194     194       --         3.401 au  fB            1.00    160 A               2
                        (      92.545 eV)
   195     195       --         3.420 au  fB            1.00    161 A               2
                        (      93.071 eV)
   196     196       --         3.443 au  fB            1.00    162 A               2
                        (      93.701 eV)
   197     197       --         3.455 au  fB            1.00    163 A               2
                        (      94.012 eV)
   198     198       --         3.507 au  fB            1.00    164 A               2
                        (      95.430 eV)
   199     199       --         3.535 au  fB            1.00    165 A               2
                        (      96.195 eV)
   200     200       --         3.542 au  fB            1.00    166 A               2
                        (      96.379 eV)
   201     201       --         3.577 au  fB            1.00    167 A               2
                        (      97.339 eV)
   202     202       --         3.614 au  fB            1.00    168 A               2
                        (      98.341 eV)
   203     203       --         3.631 au  fB            1.00    169 A               2
                        (      98.799 eV)
   204     204       --         3.648 au  fB            1.00    170 A               2
                        (      99.279 eV)
   205     205       --         3.658 au  fB            1.00    171 A               2
                        (      99.539 eV)
   206     206       --         3.663 au  fB            1.00    172 A               2
                        (      99.672 eV)
   207     207       --         3.716 au  fB            1.00    173 A               2
                        (     101.106 eV)
   208     208       --         3.766 au  fB            1.00    174 A               2
                        (     102.466 eV)
   209     209       --         3.787 au  fB            1.00    175 A               2
                        (     103.036 eV)
   210     210       --         3.811 au  fB            1.00    176 A               2
                        (     103.700 eV)
   211     211       --         3.832 au  fB            1.00    177 A               2
                        (     104.278 eV)
   212     212       --         3.911 au  fB            1.00    178 A               2
                        (     106.422 eV)
   213     213       --         3.948 au  fB            1.00    179 A               2
                        (     107.427 eV)
   214     214       --         4.002 au  fB            1.00    180 A               2
                        (     108.899 eV)
   215     215       --         4.026 au  fB            1.00    181 A               2
                        (     109.559 eV)
   216     216       --         4.043 au  fB            1.00    182 A               2
                        (     110.014 eV)
   217     217       --         4.066 au  fB            1.00    183 A               2
                        (     110.646 eV)
   218     218       --         4.148 au  fB            1.00    184 A               2
                        (     112.870 eV)
   219     219       --         4.267 au  fB            1.00    185 A               2
                        (     116.108 eV)
   220     220       --         4.294 au  fB            1.00    186 A               2
                        (     116.834 eV)
   221     221       --         4.302 au  fB            1.00    187 A               2
                        (     117.061 eV)
   222     222       --         4.400 au  fB            1.00    188 A               2
                        (     119.742 eV)
   223     223       --         4.437 au  fB            1.00    189 A               2
                        (     120.734 eV)
   224     224       --         4.450 au  fB            1.00    190 A               2
                        (     121.102 eV)
   225     225       --         4.547 au  fB            1.00    191 A               2
                        (     123.738 eV)
   226     226       --         4.571 au  fB            1.00    192 A               2
                        (     124.389 eV)
   227     227       --         4.661 au  fB            1.00    193 A               2
                        (     126.819 eV)
   228     228       --         4.672 au  fB            1.00    194 A               2
                        (     127.127 eV)
   229     229       --         4.749 au  fB            1.00    195 A               2
                        (     129.224 eV)
   230     230       --         4.779 au  fB            1.00    196 A               2
                        (     130.039 eV)
   231     231       --         4.805 au  fB            1.00    197 A               2
                        (     130.753 eV)
   232     232       --         4.887 au  fB            1.00    198 A               2
                        (     132.971 eV)
   233     233       --         4.907 au  fB            1.00    199 A               2
                        (     133.523 eV)
   234     234       --         4.943 au  fB            1.00    200 A               2
                        (     134.508 eV)
   235     235       --         4.976 au  fB            1.00    201 A               2
                        (     135.402 eV)
   236     236       --         5.065 au  fB            1.00    202 A               2
                        (     137.837 eV)
   237     237       --         5.132 au  fB            1.00    203 A               2
                        (     139.650 eV)
   238     238       --         5.162 au  fB            1.00    204 A               2
                        (     140.462 eV)
   239     239       --         5.213 au  fB            1.00    205 A               2
                        (     141.842 eV)
   240     240       --         5.244 au  fB            1.00    206 A               2
                        (     142.691 eV)
   241     241       --         5.264 au  fB            1.00    207 A               2
                        (     143.238 eV)
   242     242       --         5.338 au  fB            1.00    208 A               2
                        (     145.249 eV)
   243     243       --         5.342 au  fB            1.00    209 A               2
                        (     145.376 eV)
   244     244       --         5.382 au  fB            1.00    210 A               2
                        (     146.454 eV)
   245     245       --         5.472 au  fB            1.00    211 A               2
                        (     148.914 eV)
   246     246       --         5.497 au  fB            1.00    212 A               2
                        (     149.581 eV)
   247     247       --         5.611 au  fB            1.00    213 A               2
                        (     152.684 eV)
   248     248       --         5.653 au  fB            1.00    214 A               2
                        (     153.825 eV)
   249     249       --         5.696 au  fB            1.00    215 A               2
                        (     154.998 eV)
   250     250       --         5.727 au  fB            1.00    216 A               2
                        (     155.851 eV)
   251     251       --         5.821 au  fB            1.00    217 A               2
                        (     158.410 eV)
   252     252       --         5.884 au  fB            1.00    218 A               2
                        (     160.111 eV)
   253     253       --         6.138 au  fB            1.00    219 A               2
                        (     167.034 eV)
   254     254       --         6.214 au  fB            1.00    220 A               2
                        (     169.086 eV)
   255     255       --         6.267 au  fB            1.00    221 A               2
                        (     170.538 eV)
   256     256       --         6.309 au  fB            1.00    222 A               2
                        (     171.685 eV)
   257     257       --         6.390 au  fB            1.00    223 A               2
                        (     173.884 eV)
   258     258       --         6.473 au  fB            1.00    224 A               2
                        (     176.133 eV)
   259     259       --         6.502 au  fB            1.00    225 A               2
                        (     176.929 eV)
   260     260       --         6.570 au  fB            1.00    226 A               2
                        (     178.780 eV)
   261     261       --         6.587 au  fB            1.00    227 A               2
                        (     179.253 eV)
   262     262       --         6.613 au  fB            1.00    228 A               2
                        (     179.942 eV)
   263     263       --         6.643 au  fB            1.00    229 A               2
                        (     180.757 eV)
   264     264       --         6.697 au  fB            1.00    230 A               2
                        (     182.246 eV)
   265     265       --         6.718 au  fB            1.00    231 A               2
                        (     182.798 eV)
   266     266       --         6.745 au  fB            1.00    232 A               2
                        (     183.540 eV)
   267     267       --         6.933 au  fB            1.00    233 A               2
                        (     188.652 eV)
   268     268       --         7.080 au  fB            1.00    234 A               2
                        (     192.648 eV)
   269     269       --         7.148 au  fB            1.00    235 A               2
                        (     194.513 eV)
   270     270       --         7.229 au  fB            1.00    236 A               2
                        (     196.705 eV)
   271     271       --         7.349 au  fB            1.00    237 A               2
                        (     199.977 eV)
   272     272       --         7.371 au  fB            1.00    238 A               2
                        (     200.579 eV)
   273     273       --         7.498 au  fB            1.00    239 A               2
                        (     204.045 eV)
   274     274       --         7.594 au  fB            1.00    240 A               2
                        (     206.642 eV)
   275     275       --         7.641 au  fB            1.00    241 A               2
                        (     207.910 eV)
   276     276       --         7.832 au  fB            1.00    242 A               2
                        (     213.121 eV)
   277     277       --         8.241 au  fB            1.00    243 A               2
                        (     224.239 eV)
   278     278       --         8.791 au  fB            1.00    244 A               2
                        (     239.219 eV)
   279     279       --         8.999 au  fB            1.00    245 A               2
                        (     244.867 eV)
   280     280       --         9.091 au  fB            1.00    246 A               2
                        (     247.384 eV)
   281     281       --         9.302 au  fB            1.00    247 A               2
                        (     253.128 eV)
   282     282       --         9.937 au  fB            1.00    248 A               2
                        (     270.398 eV)
   283     283       --        10.475 au  fB            1.00    249 A               2
                        (     285.030 eV)
   284     284       --        49.714 au  fB            1.00    250 A               2
                        (    1352.780 eV)
   285     285       --        55.102 au  fB            1.00    251 A               2
                        (    1499.402 eV)
   286     286       --        58.715 au  fB            1.00    252 A               2
                        (    1597.730 eV)
   287     287       --        59.091 au  fB            1.00    253 A               2
                        (    1607.940 eV)
   288     288       --        71.376 au  fB            1.00    254 A               2
                        (    1942.247 eV)
   289     289       --        72.323 au  fB            1.00    255 A               2
                        (    1968.012 eV)



 ================================
 (Slater-type)  F U N C T I O N S  ***  (Basis and Fit)  ***
 ================================
  

 Atom Type    1  (Cl)
 ==============

 Valence Basis Sets:  14
 -----------------------
   1 S   20.300000
   1 S   15.250000
   2 S    6.250000
   2 S    4.450000
   2 P    8.850000
   2 P    5.050000
   3 S    3.450000
   3 S    2.300000
   3 S    1.600000
   3 P    3.350000
   3 P    2.050000
   3 P    1.200000
   3 D    2.000000
   4 F    2.000000

 Atom Type    2  (C)
 ==============

 Valence Basis Sets:  10
 -----------------------
   1 S    7.680000
   1 S    5.000000
   2 S    1.280000
   2 S    2.100000
   2 S    4.600000
   2 P    0.820000
   2 P    1.480000
   2 P    2.940000
   3 D    2.200000
   4 F    3.300000

 Atom Type    3  (H)
 ==============

 Valence Basis Sets:   5
 -----------------------
   1 S    0.690000
   1 S    0.920000
   1 S    1.580000
   2 P    1.250000
   3 D    2.500000

 Atom Type    4  (F)
 ==============

 Valence Basis Sets:  10
 -----------------------
   1 S   10.880000
   1 S    7.700000
   2 S    3.240000
   2 S    1.940000
   2 S    0.740000
   2 P    4.540000
   2 P    2.300000
   2 P    1.240000
   3 D    2.000000
   4 F    3.000000

 Atom Type    5  (N)
 ==============

 Valence Basis Sets:  10
 -----------------------
   1 S    8.740000
   1 S    5.900000
   2 S    5.150000
   2 S    2.500000
   2 S    1.500000
   2 P    3.680000
   2 P    1.880000
   2 P    1.000000
   3 D    2.200000
   4 F    3.300000


 BAS: List of all Elementary Cartesian Basis Functions
 =====================================================

 The numbering in the list below (to the right of the function characteristics) is referred
 to in print-outs of MO eigenvectors and Mulliken populations in the BAS representation
 (as contrasted to the SFO representation).

 Notes:
 1. The functions are characterized by a polynomial prefactor (powers of x,y,z and r) and
    an exponential decay factor alpha.
 2. Since the basis sets are specific for an atom TYPE, the individual functions occur on
    all atoms of that type.
 3. The word 'Core' in the left margin signals that it is a Core Function (CF) : not a
    degree of freedom in the valence set, but only used to ensure orthogonalization of
    the other valence basis functions on the frozen Core Orbitals.


 (power of) X  Y  Z  R     Alpha  on Atom
            ==========     =====     ==========

 Cl                                   1
                                  ---------------------------------------------------------------------------
            0  0  0  0    20.300      1
            0  0  0  0    15.250      2
            0  0  0  1     6.250      3
            0  0  0  1     4.450      4
            1  0  0  0     8.850      5
            0  1  0  0     8.850      6
            0  0  1  0     8.850      7
            1  0  0  0     5.050      8
            0  1  0  0     5.050      9
            0  0  1  0     5.050     10
            0  0  0  2     3.450     11
            0  0  0  2     2.300     12
            0  0  0  2     1.600     13
            1  0  0  1     3.350     14
            0  1  0  1     3.350     15
            0  0  1  1     3.350     16
            1  0  0  1     2.050     17
            0  1  0  1     2.050     18
            0  0  1  1     2.050     19
            1  0  0  1     1.200     20
            0  1  0  1     1.200     21
            0  0  1  1     1.200     22
            2  0  0  0     2.000     23
            1  1  0  0     2.000     24
            1  0  1  0     2.000     25
            0  2  0  0     2.000     26
            0  1  1  0     2.000     27
            0  0  2  0     2.000     28
            3  0  0  0     2.000     29
            2  1  0  0     2.000     30
            2  0  1  0     2.000     31
            1  2  0  0     2.000     32
            1  1  1  0     2.000     33
            1  0  2  0     2.000     34
            0  3  0  0     2.000     35
            0  2  1  0     2.000     36
            0  1  2  0     2.000     37
            0  0  3  0     2.000     38

 C                                    2    3    4
                                  ---------------------------------------------------------------------------
            0  0  0  0     7.680     39   69   99
            0  0  0  0     5.000     40   70  100
            0  0  0  1     1.280     41   71  101
            0  0  0  1     2.100     42   72  102
            0  0  0  1     4.600     43   73  103
            1  0  0  0     0.820     44   74  104
            0  1  0  0     0.820     45   75  105
            0  0  1  0     0.820     46   76  106
            1  0  0  0     1.480     47   77  107
            0  1  0  0     1.480     48   78  108
            0  0  1  0     1.480     49   79  109
            1  0  0  0     2.940     50   80  110
            0  1  0  0     2.940     51   81  111
            0  0  1  0     2.940     52   82  112
            2  0  0  0     2.200     53   83  113
            1  1  0  0     2.200     54   84  114
            1  0  1  0     2.200     55   85  115
            0  2  0  0     2.200     56   86  116
            0  1  1  0     2.200     57   87  117
            0  0  2  0     2.200     58   88  118
            3  0  0  0     3.300     59   89  119
            2  1  0  0     3.300     60   90  120
            2  0  1  0     3.300     61   91  121
            1  2  0  0     3.300     62   92  122
            1  1  1  0     3.300     63   93  123
            1  0  2  0     3.300     64   94  124
            0  3  0  0     3.300     65   95  125
            0  2  1  0     3.300     66   96  126
            0  1  2  0     3.300     67   97  127
            0  0  3  0     3.300     68   98  128

 H                                    5    6    7    8    9   10   11   12   13
                                  ---------------------------------------------------------------------------
            0  0  0  0     0.690    129  141  153  165  177  189  201  213  225
            0  0  0  0     0.920    130  142  154  166  178  190  202  214  226
            0  0  0  0     1.580    131  143  155  167  179  191  203  215  227
            1  0  0  0     1.250    132  144  156  168  180  192  204  216  228
            0  1  0  0     1.250    133  145  157  169  181  193  205  217  229
            0  0  1  0     1.250    134  146  158  170  182  194  206  218  230
            2  0  0  0     2.500    135  147  159  171  183  195  207  219  231
            1  1  0  0     2.500    136  148  160  172  184  196  208  220  232
            1  0  1  0     2.500    137  149  161  173  185  197  209  221  233
            0  2  0  0     2.500    138  150  162  174  186  198  210  222  234
            0  1  1  0     2.500    139  151  163  175  187  199  211  223  235
            0  0  2  0     2.500    140  152  164  176  188  200  212  224  236

 F                                   14
                                  ---------------------------------------------------------------------------
            0  0  0  0    10.880    237
            0  0  0  0     7.700    238
            0  0  0  1     3.240    239
            0  0  0  1     1.940    240
            0  0  0  1     0.740    241
            1  0  0  0     4.540    242
            0  1  0  0     4.540    243
            0  0  1  0     4.540    244
            1  0  0  0     2.300    245
            0  1  0  0     2.300    246
            0  0  1  0     2.300    247
            1  0  0  0     1.240    248
            0  1  0  0     1.240    249
            0  0  1  0     1.240    250
            2  0  0  0     2.000    251
            1  1  0  0     2.000    252
            1  0  1  0     2.000    253
            0  2  0  0     2.000    254
            0  1  1  0     2.000    255
            0  0  2  0     2.000    256
            3  0  0  0     3.000    257
            2  1  0  0     3.000    258
            2  0  1  0     3.000    259
            1  2  0  0     3.000    260
            1  1  1  0     3.000    261
            1  0  2  0     3.000    262
            0  3  0  0     3.000    263
            0  2  1  0     3.000    264
            0  1  2  0     3.000    265
            0  0  3  0     3.000    266

 N                                   15   16
                                  ---------------------------------------------------------------------------
            0  0  0  0     8.740    267  297
            0  0  0  0     5.900    268  298
            0  0  0  1     5.150    269  299
            0  0  0  1     2.500    270  300
            0  0  0  1     1.500    271  301
            1  0  0  0     3.680    272  302
            0  1  0  0     3.680    273  303
            0  0  1  0     3.680    274  304
            1  0  0  0     1.880    275  305
            0  1  0  0     1.880    276  306
            0  0  1  0     1.880    277  307
            1  0  0  0     1.000    278  308
            0  1  0  0     1.000    279  309
            0  0  1  0     1.000    280  310
            2  0  0  0     2.200    281  311
            1  1  0  0     2.200    282  312
            1  0  1  0     2.200    283  313
            0  2  0  0     2.200    284  314
            0  1  1  0     2.200    285  315
            0  0  2  0     2.200    286  316
            3  0  0  0     3.300    287  317
            2  1  0  0     3.300    288  318
            2  0  1  0     3.300    289  319
            1  2  0  0     3.300    290  320
            1  1  1  0     3.300    291  321
            1  0  2  0     3.300    292  322
            0  3  0  0     3.300    293  323
            0  2  1  0     3.300    294  324
            0  1  2  0     3.300    295  325
            0  0  3  0     3.300    296  326

 Total number of charge fitting functions (nprimf)      1061
 Total number of Cartesian basis functions (naos)        326
 Total number of Cartesian core functions  (ncos)          0

 ***************************************************************************************************



                                              ***********************
                                              *  T E C H N I C A L  *
                                              ***********************
  



 =============================================================
 P A R A L L E L I Z A T I O N  and  V E C T O R I Z A T I O N
 =============================================================
  
 Nr of parallel processes:                                1
 Maximum vector length in NumInt loops:                 128



 =====================
 S C F   U P D A T E S
 =====================
  
 Max. nr. of cycles:                               200
 Convergence criterion:                              0.0000010000
   secondary criterion:                              0.0010000000

 Mix parameter (when DIIS does not apply):           0.2000000000
 Mixed ADIIS+SDIIS will be used                  
    Max number of expansion vectors:                10
    Pure ADIIS when Max([F,P]) is above              0.1000000000
    Pure SDIIS when Max([F,P]) is below              0.0010000000
 Automatic ElectronSmearing (in case of problematic SCF convergence) disabled



 =================
 P R E C I S I O N  ***  (General: NumInt, NeglectFunctionTails, ...)  ***
 =================
  

 NumInt:           Target precision:                 4.0000000000
 -------           Initial precision:                4.0000000000
                   Min. precision (optimization):    4.0000000000

 Neglect Functions:          Basis functions:        0.1000000000E-05
 ------------------          Fit functions:          0.1000000000E-05



 ===========================
 L I N E A R   S C A L I N G
 ===========================
  

 Cut-off radii density fit:                        0.1000000000E-07
 Overlap cut-off criterion AO matrix elements:     0.1000000000E-05
 Cut-offs for Coulomb potential and fitted density:0.1000000000E-07
 Cut-off criterion for Coulomb multipole terms:    0.1000000000E-07
 Progressive Convergence parameter:                 0.000000000    
 ***************************************************************************************************



                                            ***************************
                                            *  C O M P U T A T I O N  *
                                            ***************************
  

 Number of elements of the density matrix on this node (used, total):     53301     53301



 ===========================================
 Numerical Integration : Fuzzy Cells (Becke)
 ===========================================
  
 Becke grid quality: NORMAL         
  
 Lebedev angular grid order:             min:  11 max:  23
 Nr. of radial points:                   min:  46 max:  67

 Total nr. of points:     105259
 Nr. of blocks:              823
 Block length:               128
 Nr. of dummy points:         85


 Test of Precision of the Numerical Integration Grid
 ===================================================

 Integral of the Total Core Density:                   0.00000000000000



 ========================
 Density Fitting (zlmFit)
 ========================
  
 ZlmFit Fit Quality: NORMAL         
  
 Max L-expansion:                        min:   6 max:   7
 Nr. of radial interpolation points:     min:  39 max:  60



 =====
 S C F  ***  ScaSCF  ***
 =====
  
 Initial density matrix is calculated as sum of fragments

 CYCLE    1
 SCF Error: norm([F,P])=      0.341074829724, max([F,P])=      0.093677097704
 orbitals (Q,E):
 ---------------
 A :25...44          ( 2.00    -0.2263)  ( 2.00    -0.2087)  ( 2.00    -0.1822)  ( 2.00    -0.1032)
                     ( 2.00    -0.0920)  ( 2.00    -0.0820)  ( 2.00    -0.0756)  ( 2.00     0.0019)
                     ( 2.00     0.0028)  ( 2.00     0.0037)  ( 0.00     0.0591)  ( 0.00     0.0940)
                     ( 0.00     0.1183)  ( 0.00     0.1313)  ( 0.00     0.1541)  ( 0.00     0.1684)
                     ( 0.00     0.1775)  ( 0.00     0.1928)  ( 0.00     0.2115)  ( 0.00     0.2250)

 CYCLE    2
   MIX coefficients:  0.8000  0.2000
 SCF Error: norm([F,P])=      0.197943434417, max([F,P])=      0.025524988124
 orbitals (Q,E):
 ---------------
 A :25...35          ( 2.00    -0.2288)  ( 2.00    -0.2103)  ( 2.00    -0.1843)  ( 2.00    -0.0952)
                     ( 2.00    -0.0773)  ( 2.00    -0.0688)  ( 2.00    -0.0646)  ( 2.00    -0.0109)
                     ( 2.00    -0.0098)  ( 2.00    -0.0088)  ( 0.00     0.0534)

 CYCLE    3
  SDIIS (wt  0.000): -0.6057  1.6057
 A-DIIS (wt  1.000):  0.0000  1.0000
  DIIS coefficients:  0.0000  1.0000
 SCF Error: norm([F,P])=      0.093346544916, max([F,P])=      0.013126224360
 orbitals (Q,E):
 ---------------
 A :25...35          ( 2.00    -0.2296)  ( 2.00    -0.2125)  ( 2.00    -0.1911)  ( 2.00    -0.0815)
                     ( 2.00    -0.0504)  ( 2.00    -0.0462)  ( 2.00    -0.0424)  ( 2.00    -0.0411)
                     ( 2.00    -0.0401)  ( 2.00    -0.0372)  ( 0.00     0.0400)

 CYCLE    4
  SDIIS (wt  0.000):  0.6621 -0.3052  0.6431
 A-DIIS (wt  1.000):  0.0000  0.6860  0.3140
  DIIS coefficients:  0.0000  0.6860  0.3140
 SCF Error: norm([F,P])=      0.164902228358, max([F,P])=      0.035169634091
 orbitals (Q,E):
 ---------------
 A :25...35          ( 2.00    -0.2287)  ( 2.00    -0.2104)  ( 2.00    -0.1870)  ( 2.00    -0.0882)
                     ( 2.00    -0.0687)  ( 2.00    -0.0612)  ( 2.00    -0.0572)  ( 2.00    -0.0307)
                     ( 2.00    -0.0292)  ( 2.00    -0.0280)  ( 0.00     0.0483)

 CYCLE    5
  SDIIS (wt  0.874):  0.0405  0.3541  0.2470  0.3584
 A-DIIS (wt  0.126):  0.0000  0.0005  0.0000  0.9995
  DIIS coefficients:  0.0354  0.3096  0.2159  0.4392
 SCF Error: norm([F,P])=      0.058749832284, max([F,P])=      0.013476259029
 orbitals (Q,E):
 ---------------
 A :25...35          ( 2.00    -0.2292)  ( 2.00    -0.2108)  ( 2.00    -0.1868)  ( 2.00    -0.0878)
                     ( 2.00    -0.0630)  ( 2.00    -0.0561)  ( 2.00    -0.0526)  ( 2.00    -0.0266)
                     ( 2.00    -0.0252)  ( 2.00    -0.0241)  ( 0.00     0.0489)

 CYCLE    6
  SDIIS (wt  0.942): -0.0059  0.2140  0.0986  0.3227  0.3706
 A-DIIS (wt  0.058):  0.0000  0.0000  0.0000  0.1977  0.8023
  DIIS coefficients: -0.0055  0.2016  0.0929  0.3155  0.3955
 SCF Error: norm([F,P])=      0.028054111156, max([F,P])=      0.006724132315
 orbitals (Q,E):
 ---------------
 A :25...35          ( 2.00    -0.2292)  ( 2.00    -0.2110)  ( 2.00    -0.1871)  ( 2.00    -0.0882)
                     ( 2.00    -0.0663)  ( 2.00    -0.0590)  ( 2.00    -0.0552)  ( 2.00    -0.0270)
                     ( 2.00    -0.0256)  ( 2.00    -0.0245)  ( 0.00     0.0479)

 CYCLE    7
  SDIIS (wt  1.000): -0.0175  0.1080  0.0290  0.1635  0.2585  0.4585
  DIIS coefficients: -0.0175  0.1080  0.0290  0.1635  0.2585  0.4585
 SCF Error: norm([F,P])=      0.005569611702, max([F,P])=      0.000863959728
 orbitals (Q,E):
 ---------------
 A :25...35          ( 2.00    -0.2293)  ( 2.00    -0.2110)  ( 2.00    -0.1872)  ( 2.00    -0.0884)
                     ( 2.00    -0.0658)  ( 2.00    -0.0586)  ( 2.00    -0.0550)  ( 2.00    -0.0270)
                     ( 2.00    -0.0256)  ( 2.00    -0.0245)  ( 0.00     0.0482)

 CYCLE    8
  SDIIS (wt  1.000): -0.0179  0.0571  0.0046  0.0743  0.1185  0.2863  0.4770
  DIIS coefficients: -0.0179  0.0571  0.0046  0.0743  0.1185  0.2863  0.4770
 SCF Error: norm([F,P])=      0.001634118584, max([F,P])=      0.000358107016
 orbitals (Q,E):
 ---------------
 A :25...35          ( 2.00    -0.2293)  ( 2.00    -0.2110)  ( 2.00    -0.1871)  ( 2.00    -0.0884)
                     ( 2.00    -0.0659)  ( 2.00    -0.0587)  ( 2.00    -0.0550)  ( 2.00    -0.0268)
                     ( 2.00    -0.0255)  ( 2.00    -0.0244)  ( 0.00     0.0482)

 CYCLE    9
  SDIIS (wt  1.000): -0.0091  0.0263  0.0011  0.0320  0.0450  0.1285  0.2869  0.4894
  DIIS coefficients: -0.0091  0.0263  0.0011  0.0320  0.0450  0.1285  0.2869  0.4894
 SCF Error: norm([F,P])=      0.000526668145, max([F,P])=      0.000089415898
 orbitals (Q,E):
 ---------------
 A :25...35          ( 2.00    -0.2293)  ( 2.00    -0.2109)  ( 2.00    -0.1871)  ( 2.00    -0.0883)
                     ( 2.00    -0.0659)  ( 2.00    -0.0587)  ( 2.00    -0.0550)  ( 2.00    -0.0269)
                     ( 2.00    -0.0255)  ( 2.00    -0.0244)  ( 0.00     0.0482)

 CYCLE   10
  SDIIS (wt  1.000): -0.0038  0.0111  0.0004  0.0137  0.0175  0.0551  0.1308  0.2841  0.4910
  DIIS coefficients: -0.0038  0.0111  0.0004  0.0137  0.0175  0.0551  0.1308  0.2841  0.4910
 SCF Error: norm([F,P])=      0.000147245505, max([F,P])=      0.000022436160
 orbitals (Q,E):
 ---------------
 A :25...35          ( 2.00    -0.2293)  ( 2.00    -0.2110)  ( 2.00    -0.1871)  ( 2.00    -0.0883)
                     ( 2.00    -0.0659)  ( 2.00    -0.0587)  ( 2.00    -0.0550)  ( 2.00    -0.0269)
                     ( 2.00    -0.0255)  ( 2.00    -0.0244)  ( 0.00     0.0482)

 CYCLE   11
  SDIIS (wt  1.000): -0.0010  0.0033  0.0002  0.0045  0.0057  0.0182  0.0419  0.0957  0.2652  0.5662
  DIIS coefficients: -0.0010  0.0033  0.0002  0.0045  0.0057  0.0182  0.0419  0.0957  0.2652  0.5662
 SCF Error: norm([F,P])=      0.000040549955, max([F,P])=      0.000006320825
 orbitals (Q,E):
 ---------------
 A :25...35          ( 2.00    -0.2293)  ( 2.00    -0.2110)  ( 2.00    -0.1871)  ( 2.00    -0.0883)
                     ( 2.00    -0.0659)  ( 2.00    -0.0587)  ( 2.00    -0.0550)  ( 2.00    -0.0269)
                     ( 2.00    -0.0255)  ( 2.00    -0.0244)  ( 0.00     0.0482)

 CYCLE   12
  SDIIS (wt  1.000):  0.0002  0.0001  0.0004  0.0006  0.0019  0.0044  0.0119  0.0649  0.2356  0.6801
  DIIS coefficients:  0.0002  0.0001  0.0004  0.0006  0.0019  0.0044  0.0119  0.0649  0.2356  0.6801
 SCF Error: norm([F,P])=      0.000011394858, max([F,P])=      0.000002547103
 orbitals (Q,E):
 ---------------
 A :25...35          ( 2.00    -0.2293)  ( 2.00    -0.2110)  ( 2.00    -0.1871)  ( 2.00    -0.0883)
                     ( 2.00    -0.0659)  ( 2.00    -0.0587)  ( 2.00    -0.0550)  ( 2.00    -0.0269)
                     ( 2.00    -0.0255)  ( 2.00    -0.0244)  ( 0.00     0.0482)

 CYCLE   13
  SDIIS (wt  1.000): -0.0000  0.0000  0.0001  0.0003  0.0009  0.0026  0.0163  0.0687  0.2857  0.6255
  DIIS coefficients: -0.0000  0.0000  0.0001  0.0003  0.0009  0.0026  0.0163  0.0687  0.2857  0.6255
 SCF Error: norm([F,P])=      0.000003588738, max([F,P])=      0.000000800799
 orbitals (Q,E):
 ---------------
 A :25...35          ( 2.00    -0.2293)  ( 2.00    -0.2110)  ( 2.00    -0.1871)  ( 2.00    -0.0883)
                     ( 2.00    -0.0659)  ( 2.00    -0.0587)  ( 2.00    -0.0550)  ( 2.00    -0.0269)
                     ( 2.00    -0.0255)  ( 2.00    -0.0244)  ( 0.00     0.0482)

 SCF CONVERGED

 CYCLE   14
 ***************************************************************************************************



                                                *******************
                                                *  R E S U L T S  *
                                                *******************
  
 *** Using FIT density in Focky
  SDIIS (wt  1.000): -0.0000  0.0000  0.0001  0.0003  0.0012  0.0085  0.0358  0.1303  0.3197  0.5042
  DIIS coefficients: -0.0000  0.0000  0.0001  0.0003  0.0012  0.0085  0.0358  0.1303  0.3197  0.5042
 SCF Error: norm([F,P])=      0.000001057137, max([F,P])=      0.000000202461

 Scaled ZORA Orbital Energies, per Irrep and Spin:
 =================================================
                        Occup              E (au)              E (eV)       Diff (eV) with prev. cycle
                        -----      --------------------        ------       --------------------------
 A
              25        2.000     -0.22928205930292E+00        -6.239               2.44E-06
              26        2.000     -0.21095331279597E+00        -5.740               1.97E-06
              27        2.000     -0.18709618176100E+00        -5.091               2.26E-06
              28        2.000     -0.88338516064500E-01        -2.404               1.34E-06
              29        2.000     -0.65909419900222E-01        -1.793               1.32E-06
              30        2.000     -0.58696117853618E-01        -1.597               1.23E-06
              31        2.000     -0.55014189200185E-01        -1.497               1.23E-06
              32        2.000     -0.26860161571613E-01        -0.731              -3.44E-06
              33        2.000     -0.25516008556964E-01        -0.694              -3.45E-06
              34        2.000     -0.24412629368254E-01        -0.664              -3.50E-06
              35        0.000      0.48232977670036E-01         1.312
              36        0.000      0.95215564315331E-01         2.591
              37        0.000      0.11978628118364E+00         3.260
              38        0.000      0.13310103049717E+00         3.622
              39        0.000      0.15616933969423E+00         4.250
              40        0.000      0.16863518132332E+00         4.589
              41        0.000      0.17736471953332E+00         4.826
              42        0.000      0.19276196189514E+00         5.245
              43        0.000      0.20857060929069E+00         5.675
              44        0.000      0.22842632002759E+00         6.216
  
 HOMO :       34 A                -0.24412629368254E-01
[...]
 or on symmetry-related Fragments. Only the first 'member' of such a combination is
 specified here. A full definition of all SFOs is given in an earlier part of the output.
 The numbering of the SFOs in this table does NOT include the Core Orbitals, and starts
 from one for each symmetry representation, as in the SFO definition list earlier.

       Occ             NOCV          %     SFO (first member)   E(eV)  Occ   Fragment
 -------------------------------------------------------------------------------------

      -0.29743         1 A         37.57%     9 A               0.928  2.00     1 fA
                                   35.49%    26 A              -2.779  0.00     2 fB
                                   19.51%     7 A               0.928  2.00     1 fA
                                    3.36%    23 A              -5.146  2.00     2 fB
                                    1.02%    16 A             -11.595  2.00     2 fB
       0.29743       289 A         53.45%    26 A              -2.779  0.00     2 fB
                                   20.23%     9 A               0.928  2.00     1 fA
                                   10.59%     7 A               0.928  2.00     1 fA
                                    3.30%    27 A              -1.008  0.00     2 fB
                                    2.64%    23 A              -5.146  2.00     2 fB
                                    1.80%    33 A               1.734  0.00     2 fB
                                    1.30%    29 A              -0.063  0.00     2 fB
                                    1.19%    35 A               2.505  0.00     2 fB
      -0.11636         2 A         36.58%     7 A               0.928  2.00     1 fA
                                   20.61%     9 A               0.928  2.00     1 fA
                                   17.52%    29 A              -0.063  0.00     2 fB
                                    4.67%     8 A               0.928  2.00     1 fA
                                    4.34%    30 A               0.735  0.00     2 fB
                                    3.25%    38 A               3.886  0.00     2 fB
                                    2.43%    44 A               5.949  0.00     2 fB
                                   -2.24%    12 A              13.303  0.00     1 fA
                                    2.16%    21 A              -9.071  2.00     2 fB
                                    2.07%    27 A              -1.008  0.00     2 fB
                                    1.90%    20 A              -9.622  2.00     2 fB
                                    1.52%    35 A               2.505  0.00     2 fB
                                    1.37%    32 A               1.270  0.00     2 fB
                                   -1.22%    13 A              13.303  0.00     1 fA
       0.11636       288 A         32.17%    29 A              -0.063  0.00     2 fB
                                   16.79%     7 A               0.928  2.00     1 fA
                                   10.81%    30 A               0.735  0.00     2 fB
                                    8.63%     9 A               0.928  2.00     1 fA
                                    6.79%    38 A               3.886  0.00     2 fB
                                    4.65%    35 A               2.505  0.00     2 fB
                                    3.36%    27 A              -1.008  0.00     2 fB
                                    2.66%    44 A               5.949  0.00     2 fB
                                    2.65%    32 A               1.270  0.00     2 fB
                                    2.29%    37 A               3.297  0.00     2 fB
                                    1.58%     8 A               0.928  2.00     1 fA
                                    1.40%    21 A              -9.071  2.00     2 fB
                                    1.18%    20 A              -9.622  2.00     2 fB
                                   -1.17%    12 A              13.303  0.00     1 fA
                                    1.09%    43 A               5.680  0.00     2 fB
      -0.09532         3 A         46.08%     8 A               0.928  2.00     1 fA
                                   20.91%    28 A              -0.187  0.00     2 fB
                                    4.70%    33 A               1.734  0.00     2 fB
                                    4.19%    16 A             -11.595  2.00     2 fB
                                    3.99%    23 A              -5.146  2.00     2 fB
                                    3.07%    35 A               2.505  0.00     2 fB
                                    2.26%     9 A               0.928  2.00     1 fA
                                    1.67%    18 A             -10.432  2.00     2 fB
                                    1.48%    44 A               5.949  0.00     2 fB
                                    1.36%    21 A              -9.071  2.00     2 fB
                                    1.23%    26 A              -2.779  0.00     2 fB
                                   -1.22%    11 A              13.303  0.00     1 fA
                                   -1.16%    10 A              12.862  0.00     1 fA
                                    1.04%     7 A               0.928  2.00     1 fA
                                    1.03%    38 A               3.886  0.00     2 fB
                                    1.00%    40 A               4.548  0.00     2 fB
       0.09532       287 A         33.69%    28 A              -0.187  0.00     2 fB
                                   21.98%     8 A               0.928  2.00     1 fA
                                    5.18%    44 A               5.949  0.00     2 fB
                                    4.87%    33 A               1.734  0.00     2 fB
                                    4.73%    35 A               2.505  0.00     2 fB
                                    3.47%    23 A              -5.146  2.00     2 fB
                                    3.16%    38 A               3.886  0.00     2 fB
                                    2.65%    36 A               3.061  0.00     2 fB
                                    2.47%    16 A             -11.595  2.00     2 fB
                                    2.27%    40 A               4.548  0.00     2 fB
                                    2.10%     7 A               0.928  2.00     1 fA
                                    1.32%    26 A              -2.779  0.00     2 fB
                                    1.19%    18 A             -10.432  2.00     2 fB
                                    1.18%    45 A               6.613  0.00     2 fB
                                    1.15%    32 A               1.270  0.00     2 fB
                                    1.11%    34 A               2.102  0.00     2 fB
                                    1.11%    29 A              -0.063  0.00     2 fB
                                    1.09%    31 A               0.992  0.00     2 fB
      -0.08317         4 A         19.48%    23 A              -5.146  2.00     2 fB
                                   19.29%    27 A              -1.008  0.00     2 fB
                                    8.49%     8 A               0.928  2.00     1 fA
                                    6.30%    22 A              -5.801  2.00     2 fB
                                    5.74%    24 A              -4.915  2.00     2 fB
                                    5.13%    14 A             -12.768  2.00     2 fB
                                    3.82%    35 A               2.505  0.00     2 fB
                                    3.45%    33 A               1.734  0.00     2 fB
                                    3.38%    25 A              -4.821  2.00     2 fB
                                    3.15%    29 A              -0.063  0.00     2 fB
                                    3.12%     7 A               0.928  2.00     1 fA
                                    2.52%    16 A             -11.595  2.00     2 fB
                                    2.44%    26 A              -2.779  0.00     2 fB
                                    2.08%    38 A               3.886  0.00     2 fB
                                    1.71%    32 A               1.270  0.00     2 fB
                                    1.65%    20 A              -9.622  2.00     2 fB
                                    1.29%    28 A              -0.187  0.00     2 fB
                                    1.08%     6 A             -10.619  2.00     1 fA
                                    1.04%    37 A               3.297  0.00     2 fB
       0.08317       286 A         23.74%    27 A              -1.008  0.00     2 fB
                                   17.56%    23 A              -5.146  2.00     2 fB
                                    5.61%    22 A              -5.801  2.00     2 fB
                                    5.41%    35 A               2.505  0.00     2 fB
                                    4.86%    24 A              -4.915  2.00     2 fB
                                    4.33%    33 A               1.734  0.00     2 fB
                                    3.97%     8 A               0.928  2.00     1 fA
                                    3.79%    29 A              -0.063  0.00     2 fB
                                    3.77%    14 A             -12.768  2.00     2 fB
                                    3.12%    38 A               3.886  0.00     2 fB
                                    2.90%    25 A              -4.821  2.00     2 fB
                                    2.41%    26 A              -2.779  0.00     2 fB
                                    2.01%    32 A               1.270  0.00     2 fB
                                    1.81%    16 A             -11.595  2.00     2 fB
                                    1.76%    37 A               3.297  0.00     2 fB
                                    1.75%    28 A              -0.187  0.00     2 fB
                                    1.54%    31 A               0.992  0.00     2 fB
                                    1.48%    34 A               2.102  0.00     2 fB
                                    1.31%    45 A               6.613  0.00     2 fB
 Mulliken charges used for AMS results%charges...


    =====================
     CALCULATION RESULTS
    =====================

Energy (hartree)            -0.03987184


--------------
Atomic charges
--------------
  Index   Atom    Charge
      1     Cl   -0.8451
      2      C    0.4376
      3      H   -0.2034
      4      F   -0.7401
      5      C    0.6231
      6      H   -0.1896
      7      C    0.6649
      8      H   -0.2210
      9      H   -0.1953
     10      H   -0.2114
     11      N    0.2819
     12      H   -0.0700
     13      H   -0.1120
     14      N   -0.1423
     15      H    0.0139
     16      H   -0.0912


Dipole moment vector    (Debye):     2.01095619   -2.22069249    0.96099482
              magnitude (Debye):     3.14625666


-----------------------
Molecular orbitals info
-----------------------
n orbitals:              289
n spin:                    1

Note: only printing virtual orbitals with
      energy smaller than HOMO + 100. eV

HOMO (eV):              -0.6643
LUMO (eV):               1.3125
HOMO-LUMO gap (eV):      1.9768

   Index   Energy (eV)    Occupation
     192       98.7801         0.000       
     191       98.3319         0.000       
     190       97.5358         0.000       
     189       96.5169         0.000       
     188       96.2635         0.000       
     187       94.7298         0.000       
     186       92.7348         0.000       
     185       91.7833         0.000       
     184       91.6164         0.000       
     183       90.5359         0.000       
     182       89.0995         0.000       
     181       88.5066         0.000       
     180       87.6994         0.000       
     179       86.5949         0.000       
     178       86.3437         0.000       
     177       85.6351         0.000       
     176       84.7903         0.000       
     175       84.6016         0.000       
     174       83.6191         0.000       
     173       82.7606         0.000       
     172       81.7872         0.000       
     171       81.4778         0.000       
     170       80.8605         0.000       
     169       79.8250         0.000       
     168       79.1595         0.000       
     167       78.1583         0.000       
     166       77.0349         0.000       
     165       76.6905         0.000       
     164       76.4080         0.000       
     163       74.9748         0.000       
     162       74.6053         0.000       
     161       74.0989         0.000       
     160       73.2764         0.000       
     159       71.6018         0.000       
     158       70.2170         0.000       
     157       69.0856         0.000       
     156       68.5673         0.000       
     155       68.2544         0.000       
     154       67.4413         0.000       
     153       67.1037         0.000       
     152       65.7240         0.000       
     151       65.5947         0.000       
     150       64.4724         0.000       
     149       63.3757         0.000       
     148       62.8772         0.000       
     147       61.7650         0.000       
     146       61.0753         0.000       
     145       60.4852         0.000       
     144       59.1248         0.000       
     143       58.8260         0.000       
     142       57.5631         0.000       
     141       56.6560         0.000       
     140       56.4304         0.000       
     139       55.1761         0.000       
     138       54.4795         0.000       
     137       53.8219         0.000       
     136       52.8242         0.000       
     135       52.1809         0.000       
     134       51.5664         0.000       
     133       50.6503         0.000       
     132       49.3497         0.000       
     131       48.3180         0.000       
     130       47.5265         0.000       
     129       46.4735         0.000       
     128       46.1288         0.000       
     127       45.9731         0.000       
     126       45.2305         0.000       
     125       44.9357         0.000       
     124       43.9758         0.000       
     123       43.6078         0.000       
     122       43.3299         0.000       
     121       42.0221         0.000       
     120       41.7220         0.000       
     119       41.1334         0.000       
     118       41.0959         0.000       
     117       40.7368         0.000       
     116       40.3294         0.000       
     115       40.0143         0.000       
     114       39.8403         0.000       
     113       39.5052         0.000       
     112       39.2291         0.000       
     111       38.4621         0.000       
     110       38.3004         0.000       
     109       37.9868         0.000       
     108       37.6934         0.000       
     107       36.9527         0.000       
     106       35.9656         0.000       
     105       35.4793         0.000       
     104       35.0248         0.000       
     103       34.8743         0.000       
     102       34.4221         0.000       
     101       33.6176         0.000       
     100       33.0749         0.000       
      99       32.6475         0.000       
      98       32.1691         0.000       
      97       31.4732         0.000       
      96       30.8545         0.000       
      95       30.7904         0.000       
      94       29.5698         0.000       
      93       29.2336         0.000       
      92       28.4716         0.000       
      91       27.5141         0.000       
      90       26.3980         0.000       
      89       26.1526         0.000       
      88       25.5111         0.000       
      87       25.1993         0.000       
      86       24.6829         0.000       
      85       23.4366         0.000       
      84       22.7227         0.000       
      83       22.1095         0.000       
      82       20.6010         0.000       
      81       19.8486         0.000       
      80       19.1321         0.000       
      79       19.0200         0.000       
      78       18.7116         0.000       
      77       18.5500         0.000       
      76       17.9676         0.000       
      75       17.6246         0.000       
      74       17.3617         0.000       
      73       17.1506         0.000       
      72       16.3573         0.000       
      71       15.9492         0.000       
      70       15.6865         0.000       
      69       15.4587         0.000       
      68       14.7306         0.000       
      67       14.4611         0.000       
      66       14.3918         0.000       
      65       14.1353         0.000       
      64       13.8672         0.000       
      63       13.4135         0.000       
      62       13.2623         0.000       
      61       12.9376         0.000       
      60       12.3667         0.000       
      59       12.2023         0.000       
      58       11.8717         0.000       
      57       11.6486         0.000       
      56       10.9555         0.000       
      55       10.5483         0.000       
      54       10.2843         0.000       
      53        9.7833         0.000       
      52        9.4676         0.000       
      51        9.2843         0.000       
      50        8.4893         0.000       
      49        8.3153         0.000       
      48        7.7667         0.000       
      47        7.6360         0.000       
      46        7.2049         0.000       
      45        6.5817         0.000       
      44        6.2158         0.000       
      43        5.6755         0.000       
      42        5.2453         0.000       
      41        4.8263         0.000       
      40        4.5888         0.000       
      39        4.2496         0.000       
      38        3.6219         0.000       
      37        3.2596         0.000       
      36        2.5909         0.000       
      35        1.3125         0.000 < LUMO
      34       -0.6643         2.000 < HOMO
      33       -0.6943         2.000       
      32       -0.7309         2.000       
      31       -1.4970         2.000       
      30       -1.5972         2.000       
      29       -1.7935         2.000       
      28       -2.4038         2.000       
      27       -5.0911         2.000       
      26       -5.7403         2.000       
      25       -6.2391         2.000       
      24       -6.5223         2.000       
      23       -6.6498         2.000       
      22       -7.6066         2.000       
      21       -8.7008         2.000       
      20       -8.9199         2.000       
      19      -10.7103         2.000       
      18      -11.7285         2.000       
      17      -12.3160         2.000       
      16      -13.4988         2.000       
      15      -15.8063         2.000       
      14      -18.2825         2.000       
      13      -20.0393         2.000       
      12      -21.1970         2.000       
      11     -182.5477         2.000       
      10     -182.5520         2.000       
       9     -182.5597         2.000       
       8     -243.5012         2.000       
       7     -266.8682         2.000       
       6     -267.3296         2.000       
       5     -269.1837         2.000       
       4     -377.2499         2.000       
       3     -379.6046         2.000       
       2     -652.8409         2.000       
       1    -2742.7773         2.000       

AMS application finished. Exiting.
NORMAL TERMINATION
     Total cpu time:      90.68
  Total system time:       0.34
 Total elapsed time:      91.33
NORMAL TERMINATION
