srun: Step created for StepId=662412.5

 *******************************************************************************
 *                                                                             *
 *  --------------------------------                                           *
 *   Amsterdam Modeling Suite (AMS)              2026.103                      *
 *  --------------------------------                                           *
 *                                               r260501 2026-05-01 873454b5   *
 *                                                                             *
 *                                                                             *
 *                              =================                              *
 *                              |               |                              *
 *                              |     A M S     |                              *
 *                              |               |                              *
 *                              =================                              *
 *                                                                             *
 *                                                                             *
 *   Online information and documentation:  https://www.scm.com/support/       *
 *   E-mail:  support@scm.com   info@scm.com                                   *
 *                                                                             *
 *   Scientific publications using AMS results must be properly referenced     *
 *   See the User Manuals (or the web site) for recommended citations          *
 *   The terms and conditions of the End User License Agreement apply to       *
 *   the use of AMS, https://www.scm.com/license-terms/                        *
 *                                                                             *
 **********************  x86_64_linux_intel / intelmpi  ************************
 
 Licensed to: Jong-June Jeon / University of Seoul 2026-06-02 13:44:15
 SCM User ID: u30731
  
 AMS 2026.103  RunTime: Jun03-2026 21:54:35  ShM Nodes: 1  Procs: 1

 AMS jobname: c5_fragB_opt
 AMS jobid  : 1881941157

 Start   directory: /gpfs/home1/yeseo1ee/projects/eda-asm-prediction/ADF_800/adf_outputs/batch_007/qmrxn20_sn2_D_E_E_A_B_B/
 Results directory: /gpfs/home1/yeseo1ee/projects/eda-asm-prediction/ADF_800/adf_outputs/batch_007/qmrxn20_sn2_D_E_E_A_B_B/c5_fragB_opt.results/
 Scratch directory: /tmp/amstmp_c5_fragB_opt_kid0.1881941157/

 RNG seed: -1274967230 -1403093556 1252069035 613279844 1936400850 301433798 -381818582 495001418



                      ************************************************************************
                      *  ADF 2026.103  RunTime: Jun03-2026 21:54:36  ShM Nodes: 1  Procs: 1  *
                      ************************************************************************
  

       ***************************
       *  GEOMETRY OPTIMIZATION  *
       ***************************

Optimization Method                    Quasi Newton
Optimization Coordinates               Delocalized Coordinates
Optimize lattice                       F
 
 ------------------------------------------------------
 Convergence criteria (Hartree,Angstrom)
 ------------------------------------------------------
 Maximum gradient               0.000100000000
 Maximum rms gradient           0.000066666667
 Maximum step allowed           0.010000000000
 Maximum rms step allowed       0.006666666667
 Maximum energy change allowe   0.000150000000
 Maximum stress energy allowe   0.000500000000
 
Initial model Hessian                  Automatic Hessian
 
------------------------------------
Quasi-Newton Optimizer Parameters
------------------------------------
Hessian Update Method                  BFGS
Maximum number of steps                  200
First GDIIS cycle                          0
Maximum GDIIS vectors                      0
Trust radius (bohr)                        0.200000
Trust radius varies                        T
Constraints converged at all steps         T
Use projector                              T
 
 Rigid motions settings for: old optimizer
 Atomic rotations (x,y,z):     T T T
 Atomic translations (x,y,z):  T T T
 Tolerance:                  1.000000000000000E-006

--------
Geometry
--------
Formula: C3H9FN2
Atoms
  Index Symbol   x (angstrom)   y (angstrom)   z (angstrom)
      1      C     0.57702181    -0.03149569    -0.04049745
      2      H     1.29424890     1.75725383    -0.83046808
      3      F     2.79721565     0.35088702     0.98201372
      4      C     0.57073230     1.46802111    -0.06558892
      5      H    -0.43334322     1.72290274    -0.42641211
      6      C     0.72204975    -0.77282851    -1.31164295
      7      H     0.28082221    -1.76620673    -1.26037984
      8      H     0.25118658    -0.23206114    -2.12829519
      9      H     1.80713941    -0.83274012    -1.45735257
     10      N     0.44292985    -0.66258382     1.07543307
     11      H     0.77590894    -0.16523163     1.88848603
     12      H     0.48413209    -1.66777967     1.08673179
     13      N     0.90372353     2.14641768     1.16475294
     14      H     1.78671127     1.68080784     1.43668861
     15      H     0.17394238     2.01274404     1.85464926

Total System Charge              0.00000


----------------
ADF Engine Input
----------------
 
   Basis
     Type TZ2P
     Core None
   End
   XC
     GGA BLYP
     Dispersion GRIMME3 BJDAMP
   End
   Symmetry NOSYM
   NumericalQuality Normal
   Unrestricted No
   SCF
     Iterations 200
     Converge 1.0e-6
   End
   Save TAPE21
 

 Title: *** (NO TITLE) ***

 Using automatic Hessian for delocalized coordinates.
 *** GO1_GOStep1 ***

 Energy gradients wrt nuclear displacements
 ==========================================

     Atom      Cartesian (a.u./angstrom)
                 X         Y         Z
 ----------------------------------------
     1 C    -0.035075 -0.015373  0.015136
     2 H     0.001268 -0.003376  0.008571
     3 F     0.004463  0.004848  0.005633
     4 C    -0.000433 -0.002310  0.000437
     5 H     0.009019 -0.011209  0.005206
     6 C     0.011182  0.001982 -0.001220
     7 H    -0.003057  0.011583 -0.000285
     8 H    -0.002678 -0.006461  0.011278
     9 H    -0.001377  0.003216  0.007089
    10 N     0.025271  0.018847 -0.012068
    11 H    -0.004769 -0.007018 -0.021896
    12 H    -0.004693  0.014875 -0.004931
    13 N     0.011767 -0.009760  0.011778
    14 H    -0.017160  0.003463 -0.010752
    15 H     0.006270 -0.003309 -0.013974
 ----------------------------------------
 
----------------------------------------------------------------------
Geometry Convergence after Step   1       (Hartree/Angstrom,Angstrom)
----------------------------------------------------------------------
current energy                               -2.82605186 Hartree
energy change                      -2.82605186     0.00015000    F
constrained gradient max            0.03508252     0.00010000    F
constrained gradient rms            0.01116361     0.00006667    F
gradient max                        0.03508252
gradient rms                        0.01116361
cart. step max                      0.03976130     0.01000000    F
cart. step rms                      0.01398400     0.00666667    F
 

--------
Geometry
--------
Formula: C3H9FN2
Atoms
  Index Symbol   x (angstrom)   y (angstrom)   z (angstrom)
      1      C     0.58650349    -0.03461358    -0.04195902
      2      H     1.27965783     1.76989566    -0.84124638
      3      F     2.78699676     0.34469453     0.98669783
      4      C     0.56501259     1.47521684    -0.06540882
      5      H    -0.44042475     1.74756364    -0.43099118
      6      C     0.72097864    -0.77954336    -1.32247509
      7      H     0.28975943    -1.78307212    -1.27494678
      8      H     0.26274289    -0.23399406    -2.15084096
      9      H     1.80455646    -0.84878171    -1.48494635
     10      N     0.43460492    -0.67975079     1.08775187
     11      H     0.76884742    -0.17942078     1.91312839
     12      H     0.49383504    -1.69190284     1.10389761
     13      N     0.90540281     2.15933247     1.16646589
     14      H     1.79574103     1.68997773     1.44680157
     15      H     0.18020690     2.05250534     1.87618973

Total System Charge              0.00000

 *** GO1_GOStep2 ***

 Energy gradients wrt nuclear displacements
 ==========================================

     Atom      Cartesian (a.u./angstrom)
                 X         Y         Z
 ----------------------------------------
     1 C    -0.027593 -0.000953 -0.009956
     2 H     0.001138 -0.001652  0.004114
     3 F     0.004827  0.004603  0.007017
     4 C     0.002855 -0.000744 -0.002448
     5 H     0.002759 -0.004455  0.000335
     6 C     0.007272  0.001260 -0.002493
     7 H    -0.002274  0.003985 -0.000943
     8 H    -0.001950 -0.003060  0.003399
     9 H    -0.000682  0.001929  0.004251
    10 N     0.015397  0.001690  0.004666
    11 H     0.000817  0.000811 -0.004509
    12 H    -0.003845  0.001595 -0.001505
    13 N     0.005138 -0.001646  0.005198
    14 H    -0.004047 -0.001446 -0.004655
    15 H     0.000188 -0.001917 -0.002471
 ----------------------------------------

 dE(predicted):    -0.20855E-02, dE(actual):    -0.24857E-02, Trust radius:    0.400000, all in a.u.
 
----------------------------------------------------------------------
Geometry Convergence after Step   2       (Hartree/Angstrom,Angstrom)
----------------------------------------------------------------------
current energy                               -2.82853760 Hartree
energy change                      -0.00248573     0.00015000    F
constrained gradient max            0.02760202     0.00010000    F
constrained gradient rms            0.00588187     0.00006667    F
gradient max                        0.02760202
gradient rms                        0.00588187
cart. step max                      0.04568020     0.01000000    F
cart. step rms                      0.01418536     0.00666667    F
 

--------
Geometry
--------
Formula: C3H9FN2
Atoms
  Index Symbol   x (angstrom)   y (angstrom)   z (angstrom)
      1      C     0.61082068    -0.03810772    -0.03917121
      2      H     1.25580345     1.78396949    -0.85123848
      3      F     2.77716068     0.33616138     0.99740130
      4      C     0.55886875     1.47905551    -0.05914183
      5      H    -0.45166897     1.75895634    -0.41969265
      6      C     0.72403127    -0.78762262    -1.32643943
      7      H     0.29717095    -1.79672144    -1.27570828
      8      H     0.27530333    -0.23321224    -2.15973036
      9      H     1.80378652    -0.87332305    -1.51530516
     10      N     0.41813695    -0.69260174     1.08577452
     11      H     0.74913115    -0.19861185     1.92311791
     12      H     0.50672732    -1.70606833     1.09853096
     13      N     0.91130635     2.17495744     1.16496495
     14      H     1.80540068     1.70309024     1.45538629
     15      H     0.19244236     2.09818554     1.88936978

Total System Charge              0.00000

 *** GO1_GOStep3 ***

 Energy gradients wrt nuclear displacements
 ==========================================

     Atom      Cartesian (a.u./angstrom)
                 X         Y         Z
 ----------------------------------------
     1 C    -0.016694 -0.001012 -0.010481
     2 H     0.000972 -0.000452  0.000921
     3 F     0.006445  0.005202  0.009374
     4 C     0.000933 -0.001778  0.001464
     5 H    -0.001186  0.001808 -0.003168
     6 C    -0.000757 -0.000817 -0.001194
     7 H    -0.000569 -0.001799 -0.001152
     8 H    -0.000466  0.000166 -0.001949
     9 H     0.000246  0.000520  0.001659
    10 N     0.006975 -0.001230 -0.000041
    11 H     0.004281  0.003871  0.002645
    12 H    -0.002281 -0.003133 -0.000401
    13 N    -0.001447  0.004049 -0.000692
    14 H     0.005419 -0.005236 -0.000139
    15 H    -0.001870 -0.000158  0.003154
 ----------------------------------------

 dE(predicted):    -0.91823E-03, dE(actual):    -0.11639E-02, Trust radius:    0.400000, all in a.u.
 
----------------------------------------------------------------------
Geometry Convergence after Step   3       (Hartree/Angstrom,Angstrom)
----------------------------------------------------------------------
current energy                               -2.82970150 Hartree
energy change                      -0.00116390     0.00015000    F
constrained gradient max            0.01670299     0.00010000    F
constrained gradient rms            0.00415900     0.00006667    F
gradient max                        0.01670299
gradient rms                        0.00415900
cart. step max                      0.03283492     0.01000000    F
cart. step rms                      0.01283626     0.00666667    F
 

--------
Geometry
--------
Formula: C3H9FN2
Atoms
  Index Symbol   x (angstrom)   y (angstrom)   z (angstrom)
      1      C     0.64244672    -0.04043244    -0.03285752
      2      H     1.23343793     1.79693998    -0.86591829
      3      F     2.76832561     0.32294821     1.00704242
      4      C     0.55837745     1.47960643    -0.05696794
      5      H    -0.46112634     1.75216997    -0.40162378
      6      C     0.73201951    -0.78925206    -1.32715373
      7      H     0.30137558    -1.79740827    -1.26941950
      8      H     0.28290374    -0.22315545    -2.15444772
      9      H     1.80534102    -0.89158851    -1.54814007
     10      N     0.39799629    -0.70027432     1.08500052
     11      H     0.72233938    -0.21468261     1.93082954
     12      H     0.51946683    -1.71116721     1.09567874
     13      N     0.91807176     2.18398422     1.15908608
     14      H     1.81145323     1.71317869     1.45890740
     15      H     0.20199274     2.12724030     1.88810216

Total System Charge              0.00000

 *** GO1_GOStep4 ***

 Energy gradients wrt nuclear displacements
 ==========================================

     Atom      Cartesian (a.u./angstrom)
                 X         Y         Z
 ----------------------------------------
     1 C    -0.007829 -0.002696 -0.008648
     2 H     0.000828  0.000560 -0.001266
     3 F     0.008722  0.006416  0.012727
     4 C    -0.001844 -0.001685  0.003652
     5 H    -0.002396  0.005131 -0.003989
     6 C    -0.008127 -0.001520 -0.001732
     7 H     0.000765 -0.003885 -0.000456
     8 H     0.001085  0.001858 -0.003985
     9 H     0.000965 -0.000463 -0.000432
    10 N     0.000299 -0.002259 -0.001808
    11 H     0.005895  0.003659  0.003876
    12 H    -0.000533 -0.003359  0.000146
    13 N    -0.005714  0.004284 -0.003992
    14 H     0.009564 -0.006971  0.001708
    15 H    -0.001680  0.000928  0.004198
 ----------------------------------------

 dE(predicted):    -0.55747E-03, dE(actual):    -0.80620E-03, Trust radius:    0.800000, all in a.u.
 
----------------------------------------------------------------------
Geometry Convergence after Step   4       (Hartree/Angstrom,Angstrom)
----------------------------------------------------------------------
current energy                               -2.83050770 Hartree
energy change                      -0.00080620     0.00015000    F
constrained gradient max            0.01271479     0.00010000    F
constrained gradient rms            0.00451212     0.00006667    F
gradient max                        0.01271479
gradient rms                        0.00451212
cart. step max                      0.05453916     0.01000000    F
cart. step rms                      0.02188240     0.00666667    F
 

--------
Geometry
--------
Formula: C3H9FN2
Atoms
  Index Symbol   x (angstrom)   y (angstrom)   z (angstrom)
      1      C     0.69698589    -0.04277074    -0.02079754
      2      H     1.19501793     1.81515680    -0.89312379
      3      F     2.75269838     0.29436437     1.01307768
      4      C     0.56173525     1.47718988    -0.05674501
      5      H    -0.47651476     1.72490419    -0.35837876
      6      C     0.75365792    -0.78787201    -1.32545834
      7      H     0.31304595    -1.79033462    -1.25569727
      8      H     0.29096050    -0.20415723    -2.13311349
      9      H     1.81345694    -0.90938762    -1.59910377
     10      N     0.36046095    -0.70600669     1.08243832
     11      H     0.66780384    -0.23301621     1.93981131
     12      H     0.53258272    -1.70970546     1.09371245
     13      N     0.93298924     2.19370592     1.14669749
     14      H     1.82037175     1.72669445     1.45782514
     15      H     0.21916895     2.15934192     1.87697392

Total System Charge              0.00000

 *** GO1_GOStep5 ***

 Energy gradients wrt nuclear displacements
 ==========================================

     Atom      Cartesian (a.u./angstrom)
                 X         Y         Z
 ----------------------------------------
     1 C     0.003389 -0.005202 -0.006953
     2 H     0.000343  0.001526 -0.003093
     3 F     0.013117  0.008987  0.019164
     4 C    -0.005269 -0.001409  0.004021
     5 H    -0.002621  0.007783 -0.002414
     6 C    -0.017066 -0.002154 -0.004094
     7 H     0.002024 -0.004164  0.000683
     8 H     0.002944  0.002907 -0.004216
     9 H     0.001289 -0.001548 -0.002967
    10 N    -0.009127 -0.002113 -0.001170
    11 H     0.007434  0.001618  0.002238
    12 H     0.002006 -0.001432  0.000202
    13 N    -0.008510  0.001175 -0.006099
    14 H     0.010549 -0.007680  0.001745
    15 H    -0.000502  0.001705  0.002952
 ----------------------------------------

 dE(predicted):    -0.80711E-03, dE(actual):    -0.11368E-02, Trust radius:    0.800000, all in a.u.
 
----------------------------------------------------------------------
Geometry Convergence after Step   5       (Hartree/Angstrom,Angstrom)
----------------------------------------------------------------------
current energy                               -2.83164451 Hartree
energy change                      -0.00113681     0.00015000    F
constrained gradient max            0.01916822     0.00010000    F
constrained gradient rms            0.00610061     0.00006667    F
gradient max                        0.01916822
gradient rms                        0.00610061
cart. step max                      0.08520487     0.01000000    F
cart. step rms                      0.03082608     0.00666667    F
 

--------
Geometry
--------
Formula: C3H9FN2
Atoms
  Index Symbol   x (angstrom)   y (angstrom)   z (angstrom)
      1      C     0.76425231    -0.04471952    -0.00309292
      2      H     1.13815098     1.83406477    -0.92688823
      3      F     2.72816065     0.24743326     0.99805553
      4      C     0.56600988     1.47122472    -0.05671388
      5      H    -0.49537914     1.67435579    -0.29046351
      6      C     0.79228459    -0.78367405    -1.32035954
      7      H     0.34388694    -1.77945972    -1.23743287
      8      H     0.29788454    -0.18422166    -2.09564772
      9      H     1.83271585    -0.91146970    -1.65657831
     10      N     0.30683281    -0.70623382     1.07525832
     11      H     0.58259898    -0.24443493     1.94621876
     12      H     0.53300060    -1.69906601     1.09533794
     13      N     0.95881326     2.20337885     1.13017625
     14      H     1.83580983     1.74122183     1.44861632
     15      H     0.24939936     2.18970714     1.86163218

Total System Charge              0.00000

 *** GO1_GOStep6 ***

 Energy gradients wrt nuclear displacements
 ==========================================

     Atom      Cartesian (a.u./angstrom)
                 X         Y         Z
 ----------------------------------------
     1 C     0.012799 -0.008276 -0.007373
     2 H    -0.000577  0.002413 -0.004014
     3 F     0.020843  0.012554  0.028053
     4 C    -0.009589 -0.001081  0.002040
     5 H    -0.001394  0.008229  0.000773
     6 C    -0.024284 -0.002799 -0.007967
     7 H     0.002450 -0.002229  0.001744
     8 H     0.004443  0.002880 -0.002708
     9 H     0.001062 -0.002289 -0.005356
    10 N    -0.020249 -0.000901  0.002057
    11 H     0.008882 -0.000886 -0.000997
    12 H     0.004680  0.001758 -0.000696
    13 N    -0.007122 -0.004351 -0.005033
    14 H     0.007021 -0.006752 -0.000334
    15 H     0.001036  0.001732 -0.000190
 ----------------------------------------

 dE(predicted):    -0.10306E-02, dE(actual):    -0.16606E-02, Trust radius:    1.000000, all in a.u.
 
----------------------------------------------------------------------
Geometry Convergence after Step   6       (Hartree/Angstrom,Angstrom)
----------------------------------------------------------------------
current energy                               -2.83330506 Hartree
energy change                      -0.00166055     0.00015000    F
constrained gradient max            0.02806061     0.00010000    F
constrained gradient rms            0.00858453     0.00006667    F
gradient max                        0.02806061
gradient rms                        0.00858453
cart. step max                      0.13093389     0.01000000    F
cart. step rms                      0.04658462     0.00666667    F
 

--------
Geometry
--------
Formula: C3H9FN2
Atoms
  Index Symbol   x (angstrom)   y (angstrom)   z (angstrom)
      1      C     0.84863859    -0.04317089     0.02604318
      2      H     1.04953602     1.85766798    -0.96146905
      3      F     2.68688144     0.17306812     0.93276635
      4      C     0.56865882     1.46399246    -0.05184092
      5      H    -0.51396082     1.57725756    -0.19817079
      6      C     0.85577410    -0.77422154    -1.30781466
      7      H     0.40390098    -1.76261545    -1.21007514
      8      H     0.30928485    -0.16617349    -2.03614700
      9      H     1.86897866    -0.89235884    -1.71566027
     10      N     0.23027034    -0.69560846     1.05972390
     11      H     0.45166509    -0.24498047     1.94908332
     12      H     0.50872220    -1.67408656     1.09847437
     13      N     1.00038833     2.21502537     1.11016991
     14      H     1.86334306     1.75778073     1.42644193
     15      H     0.30233981     2.21653043     1.84659317

Total System Charge              0.00000

 *** GO1_GOStep7 ***

 Energy gradients wrt nuclear displacements
 ==========================================

     Atom      Cartesian (a.u./angstrom)
                 X         Y         Z
 ----------------------------------------
     1 C     0.014998 -0.012454 -0.009504
     2 H    -0.002710  0.003627 -0.003357
     3 F     0.035841  0.016648  0.038696
     4 C    -0.017095  0.003531  0.001158
     5 H     0.003057  0.002576  0.002467
     6 C    -0.027527 -0.003854 -0.014125
     7 H     0.002224  0.003066  0.002782
     8 H     0.006105  0.001518  0.000435
     9 H    -0.000490 -0.002670 -0.007921
    10 N    -0.034201  0.000711  0.008114
    11 H     0.010083 -0.002933 -0.003794
    12 H     0.007287  0.006989 -0.003584
    13 N     0.002066 -0.013734  0.000349
    14 H    -0.003100 -0.003448 -0.005182
    15 H     0.003462  0.000425 -0.006531
 ----------------------------------------

 dE(predicted):    -0.27749E-02, dE(actual):    -0.41345E-02, Trust radius:    1.000000, all in a.u.
 
----------------------------------------------------------------------
Geometry Convergence after Step   7       (Hartree/Angstrom,Angstrom)
----------------------------------------------------------------------
current energy                               -2.83743960 Hartree
energy change                      -0.00413454     0.00015000    F
constrained gradient max            0.03877120     0.00010000    F
constrained gradient rms            0.01226107     0.00006667    F
gradient max                        0.03877120
gradient rms                        0.01226107
cart. step max                      0.13313878     0.01000000    F
cart. step rms                      0.05282854     0.00666667    F
 

--------
Geometry
--------
Formula: C3H9FN2
Atoms
  Index Symbol   x (angstrom)   y (angstrom)   z (angstrom)
      1      C     0.91229989    -0.03168744     0.05433432
      2      H     0.95146376     1.88203469    -0.98025682
      3      F     2.63428206     0.09796139     0.80263194
      4      C     0.56754076     1.46117614    -0.04350220
      5      H    -0.51552196     1.44467855    -0.09683071
      6      C     0.92988527    -0.75921534    -1.28862776
      7      H     0.46230397    -1.73024180    -1.18103664
      8      H     0.33865277    -0.15832238    -1.97630869
      9      H     1.92409197    -0.86932764    -1.72994188
     10      N     0.15903568    -0.66627927     1.04525918
     11      H     0.31852631    -0.22740870     1.95109713
     12      H     0.45532999    -1.63602189     1.09485753
     13      N     1.04405999     2.22206226     1.09358327
     14      H     1.88899219     1.77219616     1.38698478
     15      H     0.36347878     2.20650224     1.83587487

Total System Charge              0.00000

 *** GO1_GOStep8 ***

 Energy gradients wrt nuclear displacements
 ==========================================

     Atom      Cartesian (a.u./angstrom)
                 X         Y         Z
 ----------------------------------------
     1 C     0.000367 -0.013237 -0.008204
     2 H    -0.004595  0.003351  0.001606
     3 F     0.048935  0.017454  0.038586
     4 C    -0.026050  0.014214  0.001382
     5 H     0.016978 -0.012573  0.004252
     6 C    -0.017801 -0.006399 -0.022531
     7 H     0.001833  0.015335  0.003235
     8 H     0.007566 -0.003194  0.008887
     9 H    -0.003750 -0.002894 -0.008283
    10 N    -0.043335  0.004451  0.016917
    11 H     0.007781 -0.004207 -0.004964
    12 H     0.007865  0.014104 -0.009277
    13 N     0.028325 -0.031763  0.014016
    14 H    -0.032624  0.008559 -0.016805
    15 H     0.008504 -0.003202 -0.018818
 ----------------------------------------
 Rebuilding optimization coordinates

 dE(predicted):    -0.61789E-02, dE(actual):    -0.63064E-02, Trust radius:    1.000000, all in a.u.
 
----------------------------------------------------------------------
Geometry Convergence after Step   8       (Hartree/Angstrom,Angstrom)
----------------------------------------------------------------------
current energy                               -2.84374602 Hartree
energy change                      -0.00630641     0.00015000    F
constrained gradient max            0.04891292     0.00010000    F
constrained gradient rms            0.01742439     0.00006667    F
gradient max                        0.04891292
gradient rms                        0.01742439
cart. step max                      0.21160963     0.01000000    F
cart. step rms                      0.05833212     0.00666667    F
 

--------
Geometry
--------
Formula: C3H9FN2
Atoms
  Index Symbol   x (angstrom)   y (angstrom)   z (angstrom)
      1      C     0.79680767     0.00181545     0.03246566
      2      H     0.97657373     1.85912318    -0.98297577
      3      F     2.60091316     0.10231602     0.59102231
      4      C     0.56314511     1.47712376    -0.06060516
      5      H    -0.49711165     1.42590020    -0.02590127
      6      C     0.95617033    -0.73330431    -1.26503237
      7      H     0.43906767    -1.66769334    -1.20155378
      8      H     0.40048454    -0.17743058    -1.99486369
      9      H     1.99647046    -0.85393078    -1.53677717
     10      N     0.22098425    -0.65341076     1.07466821
     11      H     0.35299826    -0.21965109     1.95932235
     12      H     0.35726465    -1.64908964     1.11424545
     13      N     1.04056872     2.21629831     1.09680392
     14      H     1.86000133     1.77894740     1.34028325
     15      H     0.37008321     2.10109314     1.82701637

Total System Charge              0.00000

 *** GO1_GOStep9 ***

 Energy gradients wrt nuclear displacements
 ==========================================

     Atom      Cartesian (a.u./angstrom)
                 X         Y         Z
 ----------------------------------------
     1 C    -0.089287  0.023693 -0.013376
     2 H     0.001283 -0.006593  0.014172
     3 F     0.027762  0.007278  0.016867
     4 C    -0.016857  0.018413 -0.027890
     5 H     0.054697 -0.035410  0.022868
     6 C     0.020820 -0.003764 -0.020460
     7 H     0.002596  0.039162 -0.000662
     8 H     0.003325 -0.018118  0.032859
     9 H    -0.007818 -0.002185  0.002555
    10 N     0.014271  0.004758  0.032005
    11 H     0.000939 -0.018549 -0.035308
    12 H    -0.005460  0.015678  0.001990
    13 N     0.080946 -0.060876  0.046016
    14 H    -0.105728  0.042962 -0.037143
    15 H     0.018512 -0.006449 -0.034493
 ----------------------------------------

 dE(predicted):    -0.60660E-02, dE(actual):     0.50433E-02, Trust radius:    0.232269, all in a.u.
 
----------------------------------------------------------------------
Geometry Convergence after Step   9       (Hartree/Angstrom,Angstrom)
----------------------------------------------------------------------
current energy                               -2.83870272 Hartree
energy change                       0.00504329     0.00015000    F
constrained gradient max            0.10568493     0.00010000    F
constrained gradient rms            0.03386575     0.00006667    F
gradient max                        0.10568493
gradient rms                        0.03386575
cart. step max                      0.04245748     0.01000000    F
cart. step rms                      0.02032491     0.00666667    F
 

--------
Geometry
--------
Formula: C3H9FN2
Atoms
  Index Symbol   x (angstrom)   y (angstrom)   z (angstrom)
      1      C     0.81545179    -0.00831382     0.03193760
      2      H     0.96337474     1.88149954    -0.97870577
      3      F     2.61267845     0.10809398     0.62849529
      4      C     0.55168456     1.48192431    -0.05373448
      5      H    -0.53075335     1.46835768    -0.04546537
      6      C     0.95125788    -0.75594095    -1.27857684
      7      H     0.43552091    -1.70475434    -1.20470412
      8      H     0.40313859    -0.19460391    -2.02860995
      9      H     1.98886260    -0.88730127    -1.57586802
     10      N     0.21050552    -0.65440129     1.07456779
     11      H     0.35093918    -0.20690107     1.97241842
     12      H     0.38877214    -1.64797227     1.09231925
     13      N     1.03368630     2.22050536     1.10684350
     14      H     1.89634194     1.77810787     1.37292260
     15      H     0.36296017     2.12980714     1.85427843

Total System Charge              0.00000

 *** GO1_GOStep10 ***

 Energy gradients wrt nuclear displacements
 ==========================================

     Atom      Cartesian (a.u./angstrom)
                 X         Y         Z
 ----------------------------------------
     1 C    -0.062017  0.005737 -0.010996
     2 H     0.000874 -0.001964  0.006338
     3 F     0.033711  0.009410  0.022266
     4 C    -0.008415  0.020469 -0.021611
     5 H     0.023165 -0.024571  0.017040
     6 C     0.019493 -0.004797 -0.019469
     7 H    -0.002457  0.022111 -0.000260
     8 H    -0.000811 -0.009734  0.016589
     9 H    -0.003891 -0.002663 -0.001956
    10 N    -0.002341 -0.001341  0.022083
    11 H     0.003737 -0.002726 -0.007872
    12 H    -0.001851  0.011572 -0.007122
    13 N     0.022450 -0.024746  0.015905
    14 H    -0.029279  0.008251 -0.011495
    15 H     0.007633 -0.005007 -0.019442
 ----------------------------------------

 dE(predicted):    -0.10722E-01, dE(actual):    -0.94228E-02, Trust radius:    0.464538, all in a.u.
 
----------------------------------------------------------------------
Geometry Convergence after Step  10       (Hartree/Angstrom,Angstrom)
----------------------------------------------------------------------
current energy                               -2.84812551 Hartree
energy change                      -0.00942279     0.00015000    F
constrained gradient max            0.06202386     0.00010000    F
constrained gradient rms            0.01730844     0.00006667    F
gradient max                        0.06202386
gradient rms                        0.01730844
cart. step max                      0.07951992     0.01000000    F
cart. step rms                      0.02716397     0.00666667    F
 

--------
Geometry
--------
Formula: C3H9FN2
Atoms
  Index Symbol   x (angstrom)   y (angstrom)   z (angstrom)
      1      C     0.87857636    -0.01110290     0.05214322
      2      H     0.91243087     1.90919624    -0.97294278
      3      F     2.57291388     0.08207219     0.59264818
      4      C     0.54311654     1.48511121    -0.03685471
      5      H    -0.54698372     1.46018327    -0.03940202
      6      C     0.97058272    -0.76545908    -1.26863504
      7      H     0.46432927    -1.72596638    -1.17940819
      8      H     0.41617813    -0.20061346    -2.02145293
      9      H     1.99757751    -0.89780332    -1.60451903
     10      N     0.16919540    -0.66546517     1.05986930
     11      H     0.27141926    -0.23344912     1.97951971
     12      H     0.40265671    -1.65183735     1.06052125
     13      N     1.05308152     2.24193479     1.10324994
     14      H     1.92695311     1.80050169     1.36574260
     15      H     0.40239390     2.18080435     1.87763884

Total System Charge              0.00000

 *** GO1_GOStep11 ***

 Energy gradients wrt nuclear displacements
 ==========================================

     Atom      Cartesian (a.u./angstrom)
                 X         Y         Z
 ----------------------------------------
     1 C    -0.038653 -0.004977 -0.010917
     2 H    -0.002652  0.002232  0.004430
     3 F     0.046397  0.010612  0.020850
     4 C    -0.010408  0.021922 -0.011798
     5 H     0.010232 -0.018203  0.007231
     6 C     0.015239 -0.005580 -0.013033
     7 H    -0.004096  0.011900  0.000730
     8 H    -0.000373 -0.004266  0.007510
     9 H    -0.003827 -0.002039 -0.003380
    10 N    -0.022603 -0.003638  0.021928
    11 H     0.002368  0.002827  0.003088
    12 H     0.002851  0.008958 -0.014159
    13 N     0.017445 -0.017176  0.006905
    14 H    -0.014952  0.000599 -0.007455
    15 H     0.003032 -0.003170 -0.011930
 ----------------------------------------

 dE(predicted):    -0.57457E-02, dE(actual):    -0.68099E-02, Trust radius:    0.929076, all in a.u.
 
----------------------------------------------------------------------
Geometry Convergence after Step  11       (Hartree/Angstrom,Angstrom)
----------------------------------------------------------------------
current energy                               -2.85493541 Hartree
energy change                      -0.00680990     0.00015000    F
constrained gradient max            0.04639263     0.00010000    F
constrained gradient rms            0.01389495     0.00006667    F
gradient max                        0.04639263
gradient rms                        0.01389495
cart. step max                      0.18564901     0.01000000    F
cart. step rms                      0.06008440     0.00666667    F
 

--------
Geometry
--------
Formula: C3H9FN2
Atoms
  Index Symbol   x (angstrom)   y (angstrom)   z (angstrom)
      1      C     1.01631661    -0.02295820     0.10794778
      2      H     0.81131704     1.90058922    -0.97748662
      3      F     2.45999846     0.02521660     0.47811924
      4      C     0.53036583     1.46328516    -0.01066590
      5      H    -0.56971692     1.44996391     0.05047168
      6      C     1.02220632    -0.76279954    -1.23710152
      7      H     0.52956762    -1.74224322    -1.14152083
      8      H     0.44892022    -0.18819571    -1.98461997
      9      H     2.03065405    -0.88910307    -1.63131073
     10      N     0.11161511    -0.69234807     1.01465070
     11      H     0.08577025    -0.29250098     1.96361710
     12      H     0.38871602    -1.67323593     1.02461991
     13      N     1.08824934     2.28737790     1.07556275
     14      H     1.99639115     1.87328796     1.33641949
     15      H     0.48405035     2.27177091     1.89941523

Total System Charge              0.00000

 *** GO1_GOStep12 ***

 Energy gradients wrt nuclear displacements
 ==========================================

     Atom      Cartesian (a.u./angstrom)
                 X         Y         Z
 ----------------------------------------
     1 C     0.040342 -0.017646  0.037559
     2 H    -0.005594  0.005444  0.000856
     3 F     0.016460  0.005037 -0.021690
     4 C    -0.015106  0.004184 -0.015333
     5 H    -0.009114 -0.001308  0.004266
     6 C     0.020945  0.001275  0.011088
     7 H    -0.006876 -0.002077  0.003083
     8 H    -0.000989  0.004833 -0.005165
     9 H    -0.004005 -0.000119 -0.003190
    10 N    -0.044534  0.003883  0.001250
    11 H    -0.005591  0.006530  0.012589
    12 H     0.009001  0.006376 -0.019937
    13 N    -0.003240 -0.003433 -0.006215
    14 H     0.011529 -0.013611 -0.000144
    15 H    -0.003230  0.000631  0.000983
 ----------------------------------------

 dE(predicted):    -0.84660E-02, dE(actual):    -0.52336E-02, Trust radius:    0.929076, all in a.u.
 
----------------------------------------------------------------------
Geometry Convergence after Step  12       (Hartree/Angstrom,Angstrom)
----------------------------------------------------------------------
current energy                               -2.86016901 Hartree
energy change                      -0.00523360     0.00015000    F
constrained gradient max            0.04453168     0.00010000    F
constrained gradient rms            0.01382880     0.00006667    F
gradient max                        0.04453168
gradient rms                        0.01382880
cart. step max                      0.20703801     0.01000000    F
cart. step rms                      0.06970907     0.00666667    F
 

--------
Geometry
--------
Formula: C3H9FN2
Atoms
  Index Symbol   x (angstrom)   y (angstrom)   z (angstrom)
      1      C     0.90572312    -0.02774084     0.07866440
      2      H     0.95357099     1.88221473    -0.94336931
      3      F     2.48296227     0.09458556     0.47668005
      4      C     0.52172098     1.49148977    -0.00604226
      5      H    -0.58534317     1.65700192    -0.11043821
      6      C     0.93288368    -0.78239564    -1.24771421
      7      H     0.47297916    -1.79705949    -1.17970945
      8      H     0.43931060    -0.23370990    -2.08547916
      9      H     1.98458507    -0.90054602    -1.53312868
     10      N     0.21877349    -0.76817834     1.05121486
     11      H     0.21198378    -0.37427556     1.99886450
     12      H     0.43907043    -1.76728121     1.02847593
     13      N     1.03962724     2.31986697     1.10758765
     14      H     1.97939166     1.89369250     1.38333846
     15      H     0.43718214     2.32044251     1.94917375

Total System Charge              0.00000

 *** GO1_GOStep13 ***

 Energy gradients wrt nuclear displacements
 ==========================================

     Atom      Cartesian (a.u./angstrom)
                 X         Y         Z
 ----------------------------------------
     1 C    -0.000193 -0.007323 -0.004212
     2 H    -0.003125  0.006070 -0.005994
     3 F     0.034949  0.008604  0.007511
     4 C     0.006942 -0.006302 -0.004389
     5 H    -0.026021  0.017472 -0.007190
     6 C    -0.002671  0.007092  0.026130
     7 H    -0.007599 -0.022434 -0.001644
     8 H    -0.003506  0.006955 -0.022463
     9 H     0.002825  0.002049  0.002860
    10 N    -0.006729 -0.010136 -0.004938
    11 H    -0.003538  0.005137  0.011970
    12 H     0.001355 -0.010951 -0.008249
    13 N    -0.035549  0.024687 -0.021716
    14 H     0.050474 -0.027798  0.012537
    15 H    -0.007614  0.006881  0.019786
 ----------------------------------------

 dE(predicted):    -0.94650E-02, dE(actual):     0.51335E-04, Trust radius:    0.232269, all in a.u.
 
----------------------------------------------------------------------
Geometry Convergence after Step  13       (Hartree/Angstrom,Angstrom)
----------------------------------------------------------------------
current energy                               -2.86011768 Hartree
energy change                       0.00005133     0.00015000    T
constrained gradient max            0.05041786     0.00010000    F
constrained gradient rms            0.01591640     0.00006667    F
gradient max                        0.05041786
gradient rms                        0.01591640
cart. step max                      0.11153543     0.01000000    F
cart. step rms                      0.03007095     0.00666667    F
 

--------
Geometry
--------
Formula: C3H9FN2
Atoms
  Index Symbol   x (angstrom)   y (angstrom)   z (angstrom)
      1      C     0.92004777    -0.02730991     0.08261695
      2      H     0.95696402     1.86223301    -0.94510581
      3      F     2.48613655     0.07630333     0.49118233
      4      C     0.53902586     1.47483691    -0.00709495
      5      H    -0.55517099     1.54546648    -0.10916498
      6      C     0.94598088    -0.76038917    -1.25776755
      7      H     0.48116315    -1.75395961    -1.19476106
      8      H     0.41938743    -0.18639217    -2.03471244
      9      H     1.98338350    -0.87711323    -1.58213111
     10      N     0.20487192    -0.73744410     1.06127688
     11      H     0.20570973    -0.32471609     1.99219266
     12      H     0.41597392    -1.73279485     1.08694296
     13      N     1.04630611     2.29908097     1.10130916
     14      H     1.95533030     1.88382718     1.36883639
     15      H     0.42931131     2.26647821     1.91449888

Total System Charge              0.00000

 *** GO1_GOStep14 ***

 Energy gradients wrt nuclear displacements
 ==========================================

     Atom      Cartesian (a.u./angstrom)
                 X         Y         Z
 ----------------------------------------
     1 C    -0.014572 -0.001995 -0.004616
     2 H    -0.003997  0.001928 -0.000227
     3 F     0.033509  0.009705  0.006684
     4 C    -0.006585  0.005466  0.001903
     5 H    -0.004133 -0.000980 -0.006276
     6 C    -0.001741  0.001211  0.006480
     7 H    -0.001801 -0.003886 -0.001495
     8 H     0.001174  0.001568 -0.005215
     9 H     0.000060 -0.000305  0.000839
    10 N    -0.007382 -0.005800  0.006204
    11 H    -0.002394 -0.001568  0.001058
    12 H    -0.001408 -0.001832 -0.003379
    13 N    -0.004085  0.008132 -0.002718
    14 H     0.013495 -0.013401  0.000370
    15 H    -0.000139  0.001758  0.000387
 ----------------------------------------

 dE(predicted):    -0.47881E-02, dE(actual):    -0.51484E-02, Trust radius:    0.464538, all in a.u.
 
----------------------------------------------------------------------
Geometry Convergence after Step  14       (Hartree/Angstrom,Angstrom)
----------------------------------------------------------------------
current energy                               -2.86526605 Hartree
energy change                      -0.00514837     0.00015000    F
constrained gradient max            0.03349441     0.00010000    F
constrained gradient rms            0.00724220     0.00006667    F
gradient max                        0.03349441
gradient rms                        0.00724220
cart. step max                      0.05555501     0.01000000    F
cart. step rms                      0.02198100     0.00666667    F
 

--------
Geometry
--------
Formula: C3H9FN2
Atoms
  Index Symbol   x (angstrom)   y (angstrom)   z (angstrom)
      1      C     0.96080323    -0.02728528     0.08814905
      2      H     0.96249604     1.85903239    -0.95327790
      3      F     2.44846874     0.05258346     0.45797629
      4      C     0.55563624     1.46386981    -0.01483931
      5      H    -0.53392318     1.52389355    -0.06528428
      6      C     0.96392773    -0.75713988    -1.25896955
      7      H     0.50160839    -1.74380080    -1.18053988
      8      H     0.40419933    -0.18124498    -2.00242567
      9      H     1.98804162    -0.86700704    -1.62193391
     10      N     0.19204448    -0.72026073     1.05534362
     11      H     0.15015471    -0.29223937     1.98083879
     12      H     0.42331729    -1.70824037     1.11289495
     13      N     1.04337256     2.28712773     1.10140585
     14      H     1.94983738     1.90408475     1.36212981
     15      H     0.42443686     2.21473372     1.90665044

Total System Charge              0.00000

 *** GO1_GOStep15 ***

 Energy gradients wrt nuclear displacements
 ==========================================

     Atom      Cartesian (a.u./angstrom)
                 X         Y         Z
 ----------------------------------------
     1 C    -0.000263 -0.002008  0.008220
     2 H    -0.001898  0.000164  0.000491
     3 F     0.013796  0.007822 -0.006984
     4 C    -0.008009  0.000908 -0.005497
     5 H     0.004065  0.000192  0.003714
     6 C     0.002480 -0.000477  0.002217
     7 H    -0.000043  0.003602 -0.000095
     8 H     0.003816  0.000044  0.001380
     9 H    -0.000820 -0.000618  0.000172
    10 N    -0.008326 -0.002677  0.003171
    11 H    -0.005181 -0.000710  0.004192
    12 H    -0.000842  0.001812 -0.004763
    13 N     0.007217 -0.002309  0.005088
    14 H    -0.007243 -0.005951 -0.007167
    15 H     0.001250  0.000207 -0.004139
 ----------------------------------------

 dE(predicted):    -0.19250E-02, dE(actual):    -0.22874E-02, Trust radius:    0.464538, all in a.u.
 
----------------------------------------------------------------------
Geometry Convergence after Step  15       (Hartree/Angstrom,Angstrom)
----------------------------------------------------------------------
current energy                               -2.86755346 Hartree
energy change                      -0.00228741     0.00015000    F
constrained gradient max            0.01378478     0.00010000    F
constrained gradient rms            0.00457666     0.00006667    F
gradient max                        0.01378478
gradient rms                        0.00457666
cart. step max                      0.05894529     0.01000000    F
cart. step rms                      0.02143216     0.00666667    F
 

--------
Geometry
--------
Formula: C3H9FN2
Atoms
  Index Symbol   x (angstrom)   y (angstrom)   z (angstrom)
      1      C     0.97814341    -0.03147516     0.09206145
      2      H     1.01605344     1.84773651    -0.94407633
      3      F     2.43887396     0.04535831     0.46741283
      4      C     0.57743492     1.45908673    -0.01624431
      5      H    -0.50792312     1.50873110    -0.11986366
      6      C     0.94839315    -0.75359529    -1.26113105
      7      H     0.51800822    -1.75293585    -1.17157544
      8      H     0.34525404    -0.18623546    -1.97560897
      9      H     1.96082344    -0.82475439    -1.66684367
     10      N     0.19898304    -0.72244115     1.05214337
     11      H     0.13755072    -0.28335756     1.96755918
     12      H     0.44059540    -1.70612996     1.14281052
     13      N     1.03398120     2.28575209     1.10992344
     14      H     1.94367745     1.91980927     1.38491233
     15      H     0.40457220     2.20255777     1.90663861

Total System Charge              0.00000

 *** GO1_GOStep16 ***

 Energy gradients wrt nuclear displacements
 ==========================================

     Atom      Cartesian (a.u./angstrom)
                 X         Y         Z
 ----------------------------------------
     1 C     0.006729 -0.002259  0.011973
     2 H    -0.002118 -0.000645 -0.000500
     3 F     0.004338  0.010659 -0.006403
     4 C    -0.008283  0.002006 -0.001220
     5 H     0.005377 -0.002831 -0.000027
     6 C    -0.003882 -0.002341  0.001147
     7 H    -0.000720  0.004171  0.000320
     8 H     0.005069  0.000137  0.001427
     9 H    -0.000280  0.000377  0.000120
    10 N    -0.004061  0.000831  0.000184
    11 H    -0.004973 -0.003946 -0.001020
    12 H    -0.001337  0.001141 -0.001325
    13 N     0.009243 -0.001955  0.005450
    14 H    -0.006150 -0.005593 -0.006727
    15 H     0.001048  0.000247 -0.003397
 ----------------------------------------

 dE(predicted):    -0.67907E-03, dE(actual):    -0.10459E-02, Trust radius:    0.464538, all in a.u.
 
----------------------------------------------------------------------
Geometry Convergence after Step  16       (Hartree/Angstrom,Angstrom)
----------------------------------------------------------------------
current energy                               -2.86859934 Hartree
energy change                      -0.00104588     0.00015000    F
constrained gradient max            0.01198857     0.00010000    F
constrained gradient rms            0.00437303     0.00006667    F
gradient max                        0.01198857
gradient rms                        0.00437303
cart. step max                      0.11853973     0.01000000    F
cart. step rms                      0.04295970     0.00666667    F
 

--------
Geometry
--------
Formula: C3H9FN2
Atoms
  Index Symbol   x (angstrom)   y (angstrom)   z (angstrom)
      1      C     0.97983511    -0.04285565     0.08207648
      2      H     1.12534004     1.83269734    -0.92473448
      3      F     2.43044107     0.02558399     0.48838872
      4      C     0.61777130     1.45180331    -0.02770428
      5      H    -0.46048960     1.53528737    -0.18852852
      6      C     0.92118348    -0.75961660    -1.27755265
      7      H     0.57653627    -1.79084884    -1.17423177
      8      H     0.22671431    -0.23337010    -1.93969337
      9      H     1.90771879    -0.73491720    -1.75150280
     10      N     0.21219408    -0.71429144     1.05406662
     11      H     0.13482943    -0.23637347     1.94422073
     12      H     0.47183320    -1.68617506     1.20892441
     13      N     1.01040897     2.26826024     1.12979221
     14      H     1.92552533     1.93651670     1.44060423
     15      H     0.35457968     2.15640634     1.90399279

Total System Charge              0.00000

 *** GO1_GOStep17 ***

 Energy gradients wrt nuclear displacements
 ==========================================

     Atom      Cartesian (a.u./angstrom)
                 X         Y         Z
 ----------------------------------------
     1 C     0.000877 -0.002492  0.008562
     2 H     0.000338 -0.001760 -0.002121
     3 F    -0.001457  0.014332  0.002404
     4 C    -0.001121 -0.002517 -0.001838
     5 H     0.003350 -0.001736  0.002125
     6 C    -0.009596 -0.006529 -0.003310
     7 H    -0.002820  0.003748 -0.000027
     8 H     0.005039  0.000471  0.000212
     9 H     0.001043  0.002049 -0.000751
    10 N     0.007580  0.007330 -0.001855
    11 H    -0.003984 -0.007367 -0.006229
    12 H    -0.001937  0.000229  0.003918
    13 N     0.003703 -0.000364  0.002849
    14 H    -0.000636 -0.005238 -0.003627
    15 H    -0.000379 -0.000156 -0.000313
 ----------------------------------------

 dE(predicted):    -0.13539E-02, dE(actual):    -0.15902E-02, Trust radius:    0.929076, all in a.u.
 
----------------------------------------------------------------------
Geometry Convergence after Step  17       (Hartree/Angstrom,Angstrom)
----------------------------------------------------------------------
current energy                               -2.87018956 Hartree
energy change                      -0.00159022     0.00015000    F
constrained gradient max            0.01430603     0.00010000    F
constrained gradient rms            0.00431051     0.00006667    F
gradient max                        0.01430603
gradient rms                        0.00431051
cart. step max                      0.11095983     0.01000000    F
cart. step rms                      0.04424334     0.00666667    F
 

--------
Geometry
--------
Formula: C3H9FN2
Atoms
  Index Symbol   x (angstrom)   y (angstrom)   z (angstrom)
      1      C     0.97242733    -0.04741294     0.06912253
      2      H     1.22260001     1.84218024    -0.88713302
      3      F     2.40371629    -0.00463544     0.46750267
      4      C     0.65053773     1.45664648    -0.03166656
      5      H    -0.41642676     1.56280734    -0.26957349
      6      C     0.90434641    -0.77177925    -1.29156884
      7      H     0.66599407    -1.83390229    -1.17175027
      8      H     0.11575447    -0.31807456    -1.90565174
      9      H     1.85359773    -0.64980699    -1.82379625
     10      N     0.20966887    -0.69346437     1.05971089
     11      H     0.13133827    -0.17640684     1.93026976
     12      H     0.49191823    -1.65221062     1.25276486
     13      N     0.99023444     2.24747525     1.15878107
     14      H     1.91833120     1.95264154     1.49490836
     15      H     0.32038316     2.09404938     1.91619836

Total System Charge              0.00000

 *** GO1_GOStep18 ***

 Energy gradients wrt nuclear displacements
 ==========================================

     Atom      Cartesian (a.u./angstrom)
                 X         Y         Z
 ----------------------------------------
     1 C    -0.002481 -0.004519  0.010468
     2 H     0.000987 -0.001052 -0.001869
     3 F    -0.017665  0.015425 -0.000359
     4 C     0.006896 -0.000981  0.004845
     5 H    -0.001301 -0.004163 -0.002286
     6 C    -0.001113 -0.009250 -0.006611
     7 H    -0.004692  0.000436 -0.000348
     8 H     0.002077  0.001971 -0.001748
     9 H     0.001175  0.002253 -0.001451
    10 N     0.015412  0.008797 -0.002951
    11 H    -0.004449 -0.003928 -0.003461
    12 H    -0.000927  0.000350  0.003547
    13 N    -0.003317  0.001625 -0.002868
    14 H     0.011286 -0.005704  0.003038
    15 H    -0.001887 -0.001261  0.002054
 ----------------------------------------

 dE(predicted):    -0.81437E-03, dE(actual):    -0.99067E-03, Trust radius:    0.929076, all in a.u.
 
----------------------------------------------------------------------
Geometry Convergence after Step  18       (Hartree/Angstrom,Angstrom)
----------------------------------------------------------------------
current energy                               -2.87118024 Hartree
energy change                      -0.00099067     0.00015000    F
constrained gradient max            0.01768563     0.00010000    F
constrained gradient rms            0.00586011     0.00006667    F
gradient max                        0.01768563
gradient rms                        0.00586011
cart. step max                      0.13681168     0.01000000    F
cart. step rms                      0.04863726     0.00666667    F
 

--------
Geometry
--------
Formula: C3H9FN2
Atoms
  Index Symbol   x (angstrom)   y (angstrom)   z (angstrom)
      1      C     0.97467597    -0.05696934     0.05674892
      2      H     1.30343090     1.84913755    -0.86367627
      3      F     2.39646497    -0.04430946     0.49766790
      4      C     0.68907631     1.45591715    -0.04240397
      5      H    -0.36678628     1.60982199    -0.30573717
      6      C     0.88947338    -0.78002430    -1.29929911
      7      H     0.80280575    -1.86455865    -1.17079197
      8      H    -0.00303635    -0.43033234    -1.83655139
      9      H     1.76459616    -0.53533708    -1.90945755
     10      N     0.18579997    -0.68195862     1.04763469
     11      H     0.12676945    -0.13618807     1.90339111
     12      H     0.49327701    -1.62567458     1.27834909
     13      N     0.98513356     2.22762354     1.16970043
     14      H     1.90057972     1.95306595     1.53972306
     15      H     0.29216093     2.06789322     1.90282054

Total System Charge              0.00000

 *** GO1_GOStep19 ***

 Energy gradients wrt nuclear displacements
 ==========================================

     Atom      Cartesian (a.u./angstrom)
                 X         Y         Z
 ----------------------------------------
     1 C    -0.000440 -0.006999  0.003207
     2 H     0.001300  0.000942 -0.000710
     3 F    -0.014757  0.016720  0.007051
     4 C     0.009805 -0.004974  0.002186
     5 H    -0.002272  0.000746  0.001247
     6 C    -0.002121 -0.009756 -0.008102
     7 H    -0.004541 -0.000344  0.000162
     8 H     0.000091  0.002170 -0.003357
     9 H    -0.000920  0.002793 -0.001232
    10 N     0.013639  0.006633 -0.001726
    11 H    -0.002939 -0.002537 -0.003814
    12 H     0.000293  0.000803  0.004341
    13 N    -0.001667 -0.002548 -0.003328
    14 H     0.004720 -0.002282  0.002525
    15 H    -0.000191 -0.001367  0.001551
 ----------------------------------------

 dE(predicted):    -0.77288E-03, dE(actual):    -0.10074E-02, Trust radius:    0.929076, all in a.u.
 
----------------------------------------------------------------------
Geometry Convergence after Step  19       (Hartree/Angstrom,Angstrom)
----------------------------------------------------------------------
current energy                               -2.87218766 Hartree
energy change                      -0.00100743     0.00015000    F
constrained gradient max            0.01668284     0.00010000    F
constrained gradient rms            0.00536511     0.00006667    F
gradient max                        0.01668284
gradient rms                        0.00536511
cart. step max                      0.15033886     0.01000000    F
cart. step rms                      0.04226766     0.00666667    F
 

--------
Geometry
--------
Formula: C3H9FN2
Atoms
  Index Symbol   x (angstrom)   y (angstrom)   z (angstrom)
      1      C     0.96238129    -0.05756013     0.04816228
      2      H     1.34623001     1.86110393    -0.84834783
      3      F     2.38593467    -0.08523950     0.51031381
      4      C     0.70938098     1.46549985    -0.04791685
      5      H    -0.33670943     1.64570352    -0.33470067
      6      C     0.88543176    -0.78271801    -1.29534315
      7      H     0.95314461    -1.86929689    -1.16412974
      8      H    -0.08061991    -0.55709782    -1.76888858
      9      H     1.68468601    -0.43880122    -1.95748290
     10      N     0.14258060    -0.66938437     1.03580965
     11      H     0.13471411    -0.12190280     1.89592282
     12      H     0.46118743    -1.61237193     1.25722158
     13      N     0.99555380     2.21751449     1.17717074
     14      H     1.90120211     1.94260672     1.56227365
     15      H     0.28932339     2.07005111     1.89805349

Total System Charge              0.00000

 *** GO1_GOStep20 ***

 Energy gradients wrt nuclear displacements
 ==========================================

     Atom      Cartesian (a.u./angstrom)
                 X         Y         Z
 ----------------------------------------
     1 C    -0.001278 -0.009044 -0.005156
     2 H    -0.000315  0.002406  0.000976
     3 F    -0.006882  0.014505  0.008640
     4 C     0.008350 -0.001835  0.000203
     5 H    -0.002492  0.001715  0.000075
     6 C     0.000621 -0.004947 -0.004631
     7 H    -0.003008 -0.001139  0.000169
     8 H    -0.002021  0.001394 -0.002413
     9 H    -0.001693  0.001453 -0.000188
    10 N     0.002913  0.000386  0.001969
    11 H    -0.001054  0.000485 -0.002168
    12 H     0.002514  0.001809  0.001893
    13 N     0.001675 -0.006171 -0.002545
    14 H     0.001353 -0.000130  0.002312
    15 H     0.001317 -0.000887  0.000863
 ----------------------------------------

 dE(predicted):    -0.82601E-03, dE(actual):    -0.11610E-02, Trust radius:    0.929076, all in a.u.
 
----------------------------------------------------------------------
Geometry Convergence after Step  20       (Hartree/Angstrom,Angstrom)
----------------------------------------------------------------------
current energy                               -2.87334866 Hartree
energy change                      -0.00116100     0.00015000    F
constrained gradient max            0.01449963     0.00010000    F
constrained gradient rms            0.00392853     0.00006667    F
gradient max                        0.01449963
gradient rms                        0.00392853
cart. step max                      0.12614966     0.01000000    F
cart. step rms                      0.03319307     0.00666667    F
 

--------
Geometry
--------
Formula: C3H9FN2
Atoms
  Index Symbol   x (angstrom)   y (angstrom)   z (angstrom)
      1      C     0.95166838    -0.05231640     0.04799071
      2      H     1.34904299     1.86496191    -0.85057093
      3      F     2.37518860    -0.11764431     0.50450351
      4      C     0.71157495     1.47580230    -0.04926297
      5      H    -0.33186122     1.66545687    -0.33465662
      6      C     0.89251525    -0.77820315    -1.28310211
      7      H     1.07929427    -1.85107204    -1.15092823
      8      H    -0.10704495    -0.65728281    -1.72071128
      9      H     1.63744125    -0.37312252    -1.97207056
     10      N     0.10187034    -0.65777471     1.02793679
     11      H     0.14804896    -0.13816644     1.90693223
     12      H     0.38964660    -1.61921815     1.21236409
     13      N     1.01471776     2.22023673     1.17619733
     14      H     1.91637556     1.93189071     1.55629344
     15      H     0.30594269     2.09455896     1.89720291

Total System Charge              0.00000

 *** GO1_GOStep21 ***

 Energy gradients wrt nuclear displacements
 ==========================================

     Atom      Cartesian (a.u./angstrom)
                 X         Y         Z
 ----------------------------------------
     1 C     0.002026 -0.008201 -0.010156
     2 H    -0.001546  0.001903  0.002141
     3 F    -0.002677  0.009755  0.003860
     4 C     0.003372  0.002000 -0.002637
     5 H    -0.001337  0.001865 -0.000566
     6 C     0.003678  0.002374  0.001735
     7 H    -0.000928 -0.000803 -0.000201
     8 H    -0.001710  0.000006 -0.000266
     9 H    -0.001423 -0.000587  0.000999
    10 N    -0.007962 -0.004226  0.003621
    11 H     0.000577  0.001926  0.000214
    12 H     0.002856  0.001506  0.000509
    13 N     0.003604 -0.008052 -0.000078
    14 H    -0.000131  0.000510  0.000846
    15 H     0.001601  0.000026 -0.000023
 ----------------------------------------

 dE(predicted):    -0.68017E-03, dE(actual):    -0.82428E-03, Trust radius:    0.929076, all in a.u.
 
----------------------------------------------------------------------
Geometry Convergence after Step  21       (Hartree/Angstrom,Angstrom)
----------------------------------------------------------------------
current energy                               -2.87417294 Hartree
energy change                      -0.00082428     0.00015000    F
constrained gradient max            0.01013691     0.00010000    F
constrained gradient rms            0.00349832     0.00006667    F
gradient max                        0.01013691
gradient rms                        0.00349832
cart. step max                      0.04392109     0.01000000    F
cart. step rms                      0.01244611     0.00666667    F
 

--------
Geometry
--------
Formula: C3H9FN2
Atoms
  Index Symbol   x (angstrom)   y (angstrom)   z (angstrom)
      1      C     0.94675827    -0.04796886     0.05364965
      2      H     1.34067753     1.85553029    -0.85764536
      3      F     2.37586255    -0.12285960     0.49927348
      4      C     0.70708232     1.47818866    -0.04692116
      5      H    -0.33705715     1.65957905    -0.32985861
      6      C     0.89551914    -0.77215496    -1.27596650
      7      H     1.10755591    -1.83995754    -1.14310599
      8      H    -0.10367317    -0.67248959    -1.71639818
      9      H     1.63651796    -0.35555756    -1.96343245
     10      N     0.09740665    -0.65578277     1.03040349
     11      H     0.16110598    -0.16163802     1.92304459
     12      H     0.34572551    -1.63326521     1.18628990
     13      N     1.02230555     2.23055006     1.17066320
     14      H     1.92411868     1.92980554     1.54323761
     15      H     0.31451571     2.11612746     1.89488463

Total System Charge              0.00000

 *** GO1_GOStep22 ***

 Energy gradients wrt nuclear displacements
 ==========================================

     Atom      Cartesian (a.u./angstrom)
                 X         Y         Z
 ----------------------------------------
     1 C     0.000625 -0.004645 -0.010287
     2 H    -0.001037  0.000579  0.001409
     3 F    -0.001562  0.007479  0.001448
     4 C     0.000513  0.003169 -0.001473
     5 H    -0.000053  0.000297 -0.000936
     6 C     0.002727  0.003889  0.004295
     7 H    -0.000206 -0.000213 -0.000297
     8 H    -0.000390 -0.000345  0.000244
     9 H    -0.000373 -0.000736  0.000769
    10 N    -0.007340 -0.004448  0.002231
    11 H     0.000779  0.001523  0.001199
    12 H     0.001391  0.000207  0.001021
    13 N     0.002987 -0.006691  0.000856
    14 H     0.001254 -0.000544 -0.000219
    15 H     0.000685  0.000479 -0.000261
 ----------------------------------------

 dE(predicted):    -0.21882E-03, dE(actual):    -0.29394E-03, Trust radius:    0.929076, all in a.u.
 
----------------------------------------------------------------------
Geometry Convergence after Step  22       (Hartree/Angstrom,Angstrom)
----------------------------------------------------------------------
current energy                               -2.87446689 Hartree
energy change                      -0.00029394     0.00015000    F
constrained gradient max            0.01026723     0.00010000    F
constrained gradient rms            0.00294718     0.00006667    F
gradient max                        0.01026723
gradient rms                        0.00294718
cart. step max                      0.04249766     0.01000000    F
cart. step rms                      0.01433674     0.00666667    F
 

--------
Geometry
--------
Formula: C3H9FN2
Atoms
  Index Symbol   x (angstrom)   y (angstrom)   z (angstrom)
      1      C     0.94862445    -0.04654919     0.06132593
      2      H     1.35441072     1.84105445    -0.85956200
      3      F     2.37375503    -0.13425516     0.49966942
      4      C     0.71435758     1.47692049    -0.04618231
      5      H    -0.32806251     1.65455339    -0.33381900
      6      C     0.89354268    -0.76747278    -1.27122595
      7      H     1.15005357    -1.82614596    -1.14623391
      8      H    -0.11459099    -0.70161105    -1.69490187
      9      H     1.60821903    -0.32167172    -1.97006294
     10      N     0.09747270    -0.65114967     1.03254113
     11      H     0.17131145    -0.17930313     1.93544840
     12      H     0.30643208    -1.64083028     1.16721348
     13      N     1.02420935     2.24083748     1.16576784
     14      H     1.92352856     1.93342585     1.54173227
     15      H     0.31115775     2.13030421     1.88640782

Total System Charge              0.00000

 *** GO1_GOStep23 ***

 Energy gradients wrt nuclear displacements
 ==========================================

     Atom      Cartesian (a.u./angstrom)
                 X         Y         Z
 ----------------------------------------
     1 C     0.001081 -0.001726 -0.006130
     2 H     0.000227 -0.000638 -0.000024
     3 F    -0.004633  0.006099 -0.000402
     4 C    -0.000201  0.001683 -0.000093
     5 H     0.000782 -0.000604  0.000011
     6 C     0.000848  0.003253  0.005137
     7 H     0.000428  0.000277 -0.000388
     8 H     0.000471 -0.000453  0.000298
     9 H     0.000360  0.000069  0.000127
    10 N    -0.003333 -0.002063 -0.000725
    11 H     0.000586  0.000351  0.000979
    12 H     0.000039 -0.000600  0.001669
    13 N     0.001243 -0.004442  0.000855
    14 H     0.002406 -0.001814 -0.001235
    15 H    -0.000304  0.000609 -0.000081
 ----------------------------------------

 dE(predicted):    -0.16392E-03, dE(actual):    -0.19347E-03, Trust radius:    0.929076, all in a.u.
 
----------------------------------------------------------------------
Geometry Convergence after Step  23       (Hartree/Angstrom,Angstrom)
----------------------------------------------------------------------
current energy                               -2.87466036 Hartree
energy change                      -0.00019347     0.00015000    F
constrained gradient max            0.00613554     0.00010000    F
constrained gradient rms            0.00209246     0.00006667    F
gradient max                        0.00613554
gradient rms                        0.00209246
cart. step max                      0.01472512     0.01000000    F
cart. step rms                      0.00555722     0.00666667    T
 

--------
Geometry
--------
Formula: C3H9FN2
Atoms
  Index Symbol   x (angstrom)   y (angstrom)   z (angstrom)
      1      C     0.95056932    -0.04473672     0.06528981
      2      H     1.36246177     1.83770736    -0.85905147
      3      F     2.37893895    -0.13606355     0.50108956
      4      C     0.71878226     1.47725810    -0.04606385
      5      H    -0.32315450     1.65159677    -0.33875871
      6      C     0.89033189    -0.76760416    -1.27023365
      7      H     1.15327163    -1.82489749    -1.14616523
      8      H    -0.11996010    -0.70423446    -1.68915157
      9      H     1.60025872    -0.31807220    -1.97236632
     10      N     0.10599958    -0.64787709     1.03542227
     11      H     0.18332433    -0.18877602     1.94370030
     12      H     0.29170695    -1.64380538     1.15378939
     13      N     1.02051603     2.24802663     1.16423714
     14      H     1.91760971     1.93597557     1.54484346
     15      H     0.30376491     2.13360957     1.88153718

Total System Charge              0.00000

 *** GO1_GOStep24 ***

 Energy gradients wrt nuclear displacements
 ==========================================

     Atom      Cartesian (a.u./angstrom)
                 X         Y         Z
 ----------------------------------------
     1 C    -0.001587 -0.000079 -0.002118
     2 H     0.000699 -0.000837 -0.000806
     3 F    -0.004297  0.005423  0.000397
     4 C     0.000650  0.000643  0.001048
     5 H     0.000413 -0.000870  0.000251
     6 C    -0.000439  0.001328  0.003090
     7 H     0.000709  0.000122 -0.000396
     8 H     0.000422 -0.000270  0.000085
     9 H     0.000727  0.000419 -0.000312
    10 N     0.000775 -0.000267 -0.002479
    11 H     0.000253 -0.000153  0.000710
    12 H    -0.000588 -0.000747  0.001394
    13 N    -0.000350 -0.002263  0.000137
    14 H     0.003340 -0.002893 -0.001277
    15 H    -0.000728  0.000444  0.000276
 ----------------------------------------

 dE(predicted):    -0.76527E-04, dE(actual):    -0.80849E-04, Trust radius:    0.929076, all in a.u.
 
----------------------------------------------------------------------
Geometry Convergence after Step  24       (Hartree/Angstrom,Angstrom)
----------------------------------------------------------------------
current energy                               -2.87474121 Hartree
energy change                      -0.00008085     0.00015000    T
constrained gradient max            0.00545025     0.00010000    F
constrained gradient rms            0.00156606     0.00006667    F
gradient max                        0.00545025
gradient rms                        0.00156606
cart. step max                      0.02118457     0.01000000    F
cart. step rms                      0.00896297     0.00666667    F
 

--------
Geometry
--------
Formula: C3H9FN2
Atoms
  Index Symbol   x (angstrom)   y (angstrom)   z (angstrom)
      1      C     0.95727436    -0.04365951     0.06763095
      2      H     1.38154202     1.84093765    -0.85345771
      3      F     2.38412311    -0.14229611     0.50159944
      4      C     0.72928143     1.47825981    -0.04834342
      5      H    -0.31023565     1.65291187    -0.35202901
      6      C     0.88495061    -0.77008250    -1.27061540
      7      H     1.16130994    -1.82426867    -1.14854103
      8      H    -0.13319219    -0.71589378    -1.67231525
      9      H     1.57907415    -0.31363194    -1.98396284
     10      N     0.11475356    -0.64086856     1.03781685
     11      H     0.19711140    -0.19075744     1.94916940
     12      H     0.28181113    -1.64104462     1.14289933
     13      N     1.01218279     2.25213494     1.16578317
     14      H     1.90539852     1.94111944     1.55732494
     15      H     0.28903628     2.12524638     1.87515889

Total System Charge              0.00000

 *** GO1_GOStep25 ***

 Energy gradients wrt nuclear displacements
 ==========================================

     Atom      Cartesian (a.u./angstrom)
                 X         Y         Z
 ----------------------------------------
     1 C    -0.002103  0.000025  0.002868
     2 H     0.000590 -0.000349 -0.000998
     3 F    -0.005167  0.004854  0.001168
     4 C     0.002109 -0.000476  0.000650
     5 H    -0.000349 -0.000425  0.000535
     6 C    -0.000927 -0.000708 -0.000002
     7 H     0.000872  0.000004 -0.000364
     8 H    -0.000184 -0.000118  0.000074
     9 H     0.000579  0.000487 -0.000442
    10 N     0.004162  0.001577 -0.003175
    11 H    -0.000170 -0.000394  0.000054
    12 H    -0.000689 -0.000458  0.000535
    13 N    -0.001282 -0.000590 -0.000465
    14 H     0.003095 -0.003411 -0.000986
    15 H    -0.000535 -0.000018  0.000549
 ----------------------------------------

 dE(predicted):    -0.71426E-04, dE(actual):    -0.65540E-04, Trust radius:    0.929076, all in a.u.
 
----------------------------------------------------------------------
Geometry Convergence after Step  25       (Hartree/Angstrom,Angstrom)
----------------------------------------------------------------------
current energy                               -2.87480675 Hartree
energy change                      -0.00006554     0.00015000    T
constrained gradient max            0.00517734     0.00010000    F
constrained gradient rms            0.00170220     0.00006667    F
gradient max                        0.00517734
gradient rms                        0.00170220
cart. step max                      0.01597601     0.01000000    F
cart. step rms                      0.00769385     0.00666667    F
 

--------
Geometry
--------
Formula: C3H9FN2
Atoms
  Index Symbol   x (angstrom)   y (angstrom)   z (angstrom)
      1      C     0.96284636    -0.04271610     0.06745947
      2      H     1.39751803     1.84734139    -0.84642572
      3      F     2.39105890    -0.14685038     0.49936581
      4      C     0.73732988     1.47993485    -0.05082212
      5      H    -0.29903001     1.65477750    -0.36692327
      6      C     0.87981888    -0.77251855    -1.27145126
      7      H     1.15839472    -1.82604071    -1.14850072
      8      H    -0.14325185    -0.71973979    -1.66126066
      9      H     1.56595419    -0.31737751    -1.99253412
     10      N     0.12207622    -0.63493332     1.04091226
     11      H     0.21292567    -0.19030412     1.95349345
     12      H     0.27860829    -1.63741364     1.13571645
     13      N     1.00264146     2.25367198     1.16865996
     14      H     1.89292331     1.94659835     1.56971963
     15      H     0.27460740     2.11367703     1.87070916

Total System Charge              0.00000

 *** GO1_GOStep26 ***

 Energy gradients wrt nuclear displacements
 ==========================================

     Atom      Cartesian (a.u./angstrom)
                 X         Y         Z
 ----------------------------------------
     1 C    -0.002493 -0.000476  0.004731
     2 H    -0.000051  0.000192 -0.000564
     3 F    -0.004174  0.004373  0.002133
     4 C     0.002761 -0.000585 -0.000399
     5 H    -0.000805 -0.000102  0.000282
     6 C    -0.000849 -0.001576 -0.002675
     7 H     0.000863 -0.000029 -0.000240
     8 H    -0.000603 -0.000071  0.000235
     9 H     0.000205  0.000128 -0.000242
    10 N     0.004948  0.002122 -0.001890
    11 H    -0.000396 -0.000346 -0.000484
    12 H    -0.000544 -0.000093 -0.000459
    13 N    -0.001228  0.000327 -0.000505
    14 H     0.002418 -0.003435 -0.000555
    15 H    -0.000050 -0.000429  0.000632
 ----------------------------------------

 dE(predicted):    -0.49466E-04, dE(actual):    -0.42122E-04, Trust radius:    0.929076, all in a.u.
 
----------------------------------------------------------------------
Geometry Convergence after Step  26       (Hartree/Angstrom,Angstrom)
----------------------------------------------------------------------
current energy                               -2.87484887 Hartree
energy change                      -0.00004212     0.00015000    T
constrained gradient max            0.00490641     0.00010000    F
constrained gradient rms            0.00179306     0.00006667    F
gradient max                        0.00490641
gradient rms                        0.00179306
cart. step max                      0.02446788     0.01000000    F
cart. step rms                      0.01125418     0.00666667    F
 

--------
Geometry
--------
Formula: C3H9FN2
Atoms
  Index Symbol   x (angstrom)   y (angstrom)   z (angstrom)
      1      C     0.97125229    -0.04236778     0.06606095
      2      H     1.42198590     1.85518211    -0.83422671
      3      F     2.40031725    -0.15405972     0.49185596
      4      C     0.74845452     1.48145072    -0.05428957
      5      H    -0.28186525     1.65718855    -0.39001884
      6      C     0.87201536    -0.77475725    -1.27219732
      7      H     1.14780870    -1.82884837    -1.14865926
      8      H    -0.15627773    -0.71962293    -1.64793445
      9      H     1.55033610    -0.32436030    -2.00241322
     10      N     0.13112792    -0.62825619     1.04620984
     11      H     0.23670777    -0.18929294     1.95944032
     12      H     0.27883525    -1.63266440     1.13020362
     13      N     0.98690941     2.25440963     1.17284601
     14      H     1.87436600     1.95852559     1.58714846
     15      H     0.25244794     2.09558022     1.86409251

Total System Charge              0.00000

 *** GO1_GOStep27 ***

 Energy gradients wrt nuclear displacements
 ==========================================

     Atom      Cartesian (a.u./angstrom)
                 X         Y         Z
 ----------------------------------------
     1 C    -0.001328 -0.001390  0.004875
     2 H    -0.000896  0.000731  0.000291
     3 F    -0.003120  0.003921  0.002691
     4 C     0.002987 -0.000589 -0.002241
     5 H    -0.000933  0.000319 -0.000039
     6 C    -0.000470 -0.001715 -0.004889
     7 H     0.000659  0.000058 -0.000065
     8 H    -0.000888 -0.000107  0.000503
     9 H    -0.000370 -0.000385  0.000185
    10 N     0.004029  0.001789  0.000915
    11 H    -0.000612 -0.000159 -0.000964
    12 H    -0.000254  0.000422 -0.001638
    13 N    -0.000688  0.001096 -0.000105
    14 H     0.001286 -0.003123 -0.000129
    15 H     0.000600 -0.000868  0.000613
 ----------------------------------------

 dE(predicted):    -0.65900E-04, dE(actual):    -0.59827E-04, Trust radius:    0.929076, all in a.u.
 
----------------------------------------------------------------------
Geometry Convergence after Step  27       (Hartree/Angstrom,Angstrom)
----------------------------------------------------------------------
current energy                               -2.87490870 Hartree
energy change                      -0.00005983     0.00015000    T
constrained gradient max            0.00489754     0.00010000    F
constrained gradient rms            0.00179102     0.00006667    F
gradient max                        0.00489754
gradient rms                        0.00179102
cart. step max                      0.03222977     0.01000000    F
cart. step rms                      0.01382468     0.00666667    F
 

--------
Geometry
--------
Formula: C3H9FN2
Atoms
  Index Symbol   x (angstrom)   y (angstrom)   z (angstrom)
      1      C     0.98008952    -0.04286752     0.06359094
      2      H     1.45160755     1.86050893    -0.81768872
      3      F     2.41177567    -0.16304482     0.47799986
      4      C     0.76021104     1.48187708    -0.05719202
      5      H    -0.26135131     1.65822930    -0.41791660
      6      C     0.86205467    -0.77572708    -1.27242876
[...]
                                   10.10%     2 P:y             4.589  0.00     3 C
                                    8.64%     2 S               2.394  0.00     6 H
                                    7.63%     1 P:z            -5.239  0.67     3 C
                                    6.24%     1 P:z            -7.062  1.00    15 N
                                   -6.20%     2 P:z             7.649  0.00    15 N
                                    5.99%     2 P:z             4.589  0.00     2 C
                                   -5.73%     2 S               2.394  0.00     9 H
                                    5.49%     1 S              -6.532  1.00     5 H
                                    4.58%     3 S               0.624  0.00    13 F
                                    4.46%     2 S               2.394  0.00    12 H
                                    4.32%     2 P:z             4.589  0.00     3 C
                                   -4.15%     3 S              14.073  0.00    15 N
                                    3.70%     1 P:y            -7.062  1.00    15 N
                                    3.19%     1 S              -6.532  1.00     8 H
                                   -2.97%     2 P:y             7.649  0.00    14 N
                                    2.73%     1 S              -6.532  1.00    12 H
                                   -2.72%     2 S               2.394  0.00     5 H
                                    2.53%     1 P:y            -7.062  1.00    14 N
                                    2.46%     2 S             -18.450  2.00    15 N
                                    2.17%     1 P:y            -5.239  0.67     2 C
                                   -2.06%     2 P:y             7.649  0.00    15 N
                                    2.02%     2 P:y             4.589  0.00     2 C
                                   -1.73%     2 S               2.394  0.00     8 H
                                    1.65%     1 S              -6.532  1.00    10 H
                                    1.53%     1 P:x            -5.239  0.67     2 C
                                   -1.53%     3 S              40.869  0.00     8 H
                                    1.48%     1 P:y            -5.239  0.67     3 C
                                    1.43%     2 P:z             7.649  0.00    14 N
                                   -1.29%     2 P:x             4.589  0.00     2 C
                                   -1.24%     1 P:y            -5.239  0.67     1 C
                                    1.19%     2 S             -18.450  2.00    14 N
                                    1.18%     1 P:z            11.051  0.00     4 H
                                    1.02%     1 P:z            11.051  0.00     7 H
       4.418  0.00    39 A         45.19%     1 P:y            -5.239  0.67     2 C
                                   32.06%     1 P:y            -5.239  0.67     1 C
                                  -28.33%     2 P:y             4.589  0.00     1 C
                                   15.22%     1 P:z            -5.239  0.67     3 C
                                    8.42%     1 P:z            -5.239  0.67     1 C
                                    7.42%     1 S              -6.532  1.00     5 H
                                   -6.28%     2 P:z             4.589  0.00     1 C
                                   -6.23%     2 S               2.394  0.00     5 H
                                    6.05%     2 P:z             4.589  0.00     2 C
                                    5.74%     1 S              -6.532  1.00     7 H
                                    5.73%     1 P:x            -5.239  0.67     3 C
                                   -5.24%     2 P:x             4.589  0.00     1 C
                                    4.54%     1 P:z            -5.239  0.67     2 C
                                   -4.44%     2 S               2.394  0.00     4 H
                                   -4.09%     2 P:z             4.589  0.00     3 C
                                   -4.00%     2 S               2.394  0.00     7 H
                                    3.85%     1 P:x            -5.239  0.67     1 C
                                    3.69%     1 S              -6.532  1.00     4 H
                                    3.30%     1 P:z            -7.062  1.00    15 N
                                    2.88%     3 S               0.624  0.00    13 F
                                    2.44%     1 S              -6.532  1.00    11 H
                                    1.98%     2 S               2.394  0.00    12 H
                                   -1.96%     3 P:y            54.789  0.00     1 C
                                   -1.78%     2 P:y             7.649  0.00    15 N
                                    1.66%     2 S             -13.620  2.00     3 C
                                   -1.64%     3 S              10.158  0.00     3 C
                                    1.48%     1 P:y            -7.062  1.00    14 N
                                    1.35%     1 P:x            -5.239  0.67     2 C
                                    1.29%     2 P:y             4.589  0.00     2 C
                                    1.26%     2 S               2.394  0.00    10 H
                                    1.22%     1 P:z            11.051  0.00    12 H
                                   -1.16%     3 P:y            54.789  0.00     2 C
                                    1.14%     1 P:y            11.051  0.00     4 H
       4.827  0.00    40 A         18.47%     1 P:y            -5.239  0.67     1 C
                                   13.51%     1 P:z            -5.239  0.67     1 C
                                   11.42%     1 P:y            -5.239  0.67     3 C
                                   10.12%     2 P:x             4.589  0.00     3 C
                                    9.66%     1 P:x            -5.239  0.67     3 C
                                    8.27%     1 P:z            -7.062  1.00    14 N
                                   -8.26%     2 P:y             4.589  0.00     1 C
                                   -7.83%     2 P:z             4.589  0.00     1 C
                                    7.03%     2 S             -13.620  2.00     2 C
                                    5.96%     1 P:z            -7.062  1.00    15 N
                                   -5.39%     3 S              10.158  0.00     2 C
                                    4.64%     1 S              -6.532  1.00     6 H
                                    4.15%     3 S               0.624  0.00    13 F
                                    3.96%     1 P:z            -5.239  0.67     2 C
                                    3.85%     1 P:x            -5.239  0.67     1 C
                                    3.81%     2 P:z             4.589  0.00     3 C
                                   -3.52%     2 S               2.394  0.00     8 H
                                    3.05%     1 S              -6.532  1.00     8 H
                                    3.05%     1 P:x            -7.062  1.00    14 N
                                    2.55%     1 P:y            11.051  0.00     7 H
                                    2.44%     1 P:x            11.051  0.00     6 H
                                    2.17%     1 S              -6.532  1.00     7 H
                                   -1.93%     3 S              14.073  0.00    14 N
                                    1.90%     2 P:z             7.649  0.00    14 N
                                    1.84%     2 S               2.394  0.00    11 H
                                    1.77%     1 S              -6.532  1.00    12 H
                                   -1.67%     2 P:x             4.589  0.00     2 C
                                   -1.59%     3 S              40.869  0.00     8 H
                                    1.50%     2 S             -18.450  2.00    14 N
                                    1.46%     1 P:y            -7.062  1.00    15 N
                                   -1.42%     2 S               2.394  0.00     6 H
                                   -1.26%     2 P:y            11.654  0.00    13 F
                                    1.16%     1 P:y            -5.239  0.67     2 C
                                    1.15%     1 P:z            11.051  0.00    10 H
                                   -1.06%     2 S               2.394  0.00    12 H
                                   -1.03%     2 P:x            11.654  0.00    13 F
                                   -1.00%     3 S              40.869  0.00     7 H

 Energy gradients wrt nuclear displacements
 ==========================================

     Atom      Cartesian (a.u./angstrom)
                 X         Y         Z
 ----------------------------------------
     1 C     0.000006 -0.000022  0.000009
     2 H    -0.000032  0.000030  0.000053
     3 F     0.000030 -0.000023 -0.000097
     4 C    -0.000004  0.000051  0.000031
     5 H    -0.000002  0.000040  0.000111
     6 C    -0.000093  0.000060 -0.000135
     7 H    -0.000088  0.000058 -0.000109
     8 H    -0.000085  0.000088  0.000012
     9 H    -0.000107  0.000088 -0.000048
    10 N     0.000003 -0.000051  0.000005
    11 H     0.000075 -0.000078  0.000001
    12 H     0.000020 -0.000041 -0.000080
    13 N     0.000096 -0.000055  0.000087
    14 H     0.000073 -0.000064  0.000041
    15 H     0.000107 -0.000082  0.000118
 ----------------------------------------



 =======================================================================
 Electrostatic potential at the Nuclei due to electrons and other nuclei
 =======================================================================
  
         Atom                  Potential
         ----                  ---------
     1)   C                  14.68426374
     2)   H                   1.11731373
     3)   F                  26.69384955
     4)   C                  14.75645075
     5)   H                   1.11106598
     6)   C                  14.78638912
     7)   H                   1.10656431
     8)   H                   1.10612173
     9)   H                   1.10917907
    10)   N                  18.41325615
    11)   H                   1.03878703
    12)   H                   1.03814342
    13)   N                  18.42797296
    14)   H                   1.05848525
    15)   H                   1.05616681
 Mulliken charges used for AMS results%charges...


    =====================
     CALCULATION RESULTS
    =====================

Energy (hartree)            -2.87524931

Gradients (hartree/bohr)
  Index   Atom            d/dx            d/dy            d/dz
      1      C    0.0000030314   -0.0000114193    0.0000049546
      2      H   -0.0000166695    0.0000157831    0.0000282833
      3      F    0.0000160363   -0.0000122563   -0.0000510988
      4      C   -0.0000019090    0.0000267469    0.0000164680
      5      H   -0.0000011119    0.0000213496    0.0000589151
      6      C   -0.0000491893    0.0000318723   -0.0000713271
      7      H   -0.0000465435    0.0000308842   -0.0000578450
      8      H   -0.0000449689    0.0000467591    0.0000062246
      9      H   -0.0000568634    0.0000466671   -0.0000254103
     10      N    0.0000014923   -0.0000271787    0.0000028681
     11      H    0.0000396370   -0.0000412116    0.0000003674
     12      H    0.0000106437   -0.0000216251   -0.0000425531
     13      N    0.0000509443   -0.0000292972    0.0000460525
     14      H    0.0000388940   -0.0000337719    0.0000218694
     15      H    0.0000565763   -0.0000433024    0.0000622314


--------------
Atomic charges
--------------
  Index   Atom    Charge
      1      C    0.5279
      2      H   -0.1895
      3      F   -0.4752
      4      C    0.6055
      5      H   -0.1938
      6      C    0.6909
      7      H   -0.2237
      8      H   -0.2032
      9      H   -0.2078
     10      N   -0.0426
     11      H   -0.0520
     12      H   -0.0543
     13      N   -0.0895
     14      H   -0.0387
     15      H   -0.0540


Dipole moment vector    (Debye):    -1.27258205   -1.12242938    0.22631128
              magnitude (Debye):     1.71187896


-----------------------
Molecular orbitals info
-----------------------
n orbitals:              255
n spin:                    1

Note: only printing virtual orbitals with
      energy smaller than HOMO + 100. eV

HOMO (eV):              -5.6411
LUMO (eV):              -0.5938
HOMO-LUMO gap (eV):      5.0473

   Index   Energy (eV)    Occupation
     163       94.3406         0.000       
     162       93.0414         0.000       
     161       92.4307         0.000       
     160       92.0427         0.000       
     159       90.9588         0.000       
     158       89.9203         0.000       
     157       88.9818         0.000       
     156       87.2428         0.000       
     155       86.2302         0.000       
     154       85.4146         0.000       
     153       84.7776         0.000       
     152       84.3095         0.000       
     151       83.8228         0.000       
     150       82.4496         0.000       
     149       82.0286         0.000       
     148       81.4689         0.000       
     147       80.6465         0.000       
     146       79.8952         0.000       
     145       79.1500         0.000       
     144       78.9256         0.000       
     143       78.3540         0.000       
     142       77.5212         0.000       
     141       76.9052         0.000       
     140       76.4180         0.000       
     139       75.7117         0.000       
     138       74.8713         0.000       
     137       73.0415         0.000       
     136       71.5510         0.000       
     135       70.9658         0.000       
     134       70.2020         0.000       
     133       68.9427         0.000       
     132       67.5572         0.000       
     131       66.6940         0.000       
     130       66.1379         0.000       
     129       65.5414         0.000       
     128       63.1944         0.000       
     127       62.1347         0.000       
     126       61.8413         0.000       
     125       60.8060         0.000       
     124       59.5216         0.000       
     123       58.6943         0.000       
     122       58.2499         0.000       
     121       57.6809         0.000       
     120       56.8971         0.000       
     119       55.5188         0.000       
     118       55.1609         0.000       
     117       54.5697         0.000       
     116       52.8840         0.000       
     115       52.6844         0.000       
     114       51.6846         0.000       
     113       51.5245         0.000       
     112       50.5163         0.000       
     111       49.8711         0.000       
     110       48.1991         0.000       
     109       47.5615         0.000       
     108       47.0724         0.000       
     107       46.1632         0.000       
     106       45.3168         0.000       
     105       43.9745         0.000       
     104       42.6206         0.000       
     103       42.4858         0.000       
     102       41.0520         0.000       
     101       40.9401         0.000       
     100       40.4013         0.000       
      99       39.8996         0.000       
      98       39.2644         0.000       
      97       37.9927         0.000       
      96       36.7620         0.000       
      95       36.0649         0.000       
      94       35.4684         0.000       
      93       35.3603         0.000       
      92       34.9879         0.000       
      91       34.1913         0.000       
      90       34.0474         0.000       
      89       32.7913         0.000       
      88       32.4460         0.000       
      87       31.7178         0.000       
      86       31.2238         0.000       
      85       30.6055         0.000       
      84       30.1382         0.000       
      83       29.8048         0.000       
      82       29.2183         0.000       
      81       29.1265         0.000       
      80       28.6460         0.000       
      79       28.0756         0.000       
      78       27.6493         0.000       
      77       26.2267         0.000       
      76       25.2597         0.000       
      75       24.6836         0.000       
      74       24.0827         0.000       
      73       23.5740         0.000       
      72       23.1619         0.000       
      71       22.0078         0.000       
      70       20.6640         0.000       
      69       20.4484         0.000       
      68       20.1588         0.000       
      67       18.3929         0.000       
      66       17.4358         0.000       
      65       17.0693         0.000       
      64       15.4813         0.000       
      63       15.2439         0.000       
      62       13.9047         0.000       
      61       13.3859         0.000       
      60       12.7450         0.000       
      59       12.2270         0.000       
      58       11.7263         0.000       
      57       11.5960         0.000       
      56       11.2661         0.000       
      55       11.1533         0.000       
      54       10.8963         0.000       
      53       10.2533         0.000       
      52        9.7295         0.000       
      51        9.1224         0.000       
      50        8.6615         0.000       
      49        8.4444         0.000       
      48        8.0443         0.000       
      47        7.8418         0.000       
      46        7.1653         0.000       
      45        6.6367         0.000       
      44        6.2949         0.000       
      43        6.0712         0.000       
      42        5.5761         0.000       
      41        5.4854         0.000       
      40        4.8272         0.000       
      39        4.4185         0.000       
      38        3.9879         0.000       
      37        3.4734         0.000       
      36        2.9864         0.000       
      35        2.7850         0.000       
      34        2.3369         0.000       
      33        2.0967         0.000       
      32        1.5395         0.000       
      31        1.1925         0.000       
      30        1.1380         0.000       
      29        0.7678         0.000       
      28        0.3194         0.000       
      27        0.0362         0.000       
      26       -0.5938         0.000 < LUMO
      25       -5.6411         2.000 < HOMO
      24       -6.4287         2.000       
      23       -7.8447         2.000       
      22       -8.2916         2.000       
      21       -9.1298         2.000       
      20       -9.4949         2.000       
      19       -9.5284         2.000       
      18       -9.8309         2.000       
      17      -10.1916         2.000       
      16      -11.5025         2.000       
      15      -11.8525         2.000       
      14      -12.6376         2.000       
      13      -12.7250         2.000       
      12      -14.3241         2.000       
      11      -16.6575         2.000       
      10      -18.6197         2.000       
       9      -21.6857         2.000       
       8      -22.7039         2.000       
       7      -28.4714         2.000       
       6     -270.0005         2.000       
       5     -270.7789         2.000       
       4     -272.7438         2.000       
       3     -381.2217         2.000       
       2     -381.6119         2.000       
       1     -660.2367         2.000       

AMS application finished. Exiting.
NORMAL TERMINATION
     Total cpu time:    1705.69
  Total system time:       8.12
 Total elapsed time:    1720.01
NORMAL TERMINATION
