srun: Job 662083 step creation temporarily disabled, retrying (Requested nodes are busy)
srun: Job 662083 step creation still disabled, retrying (Requested nodes are busy)
srun: Step created for StepId=662083.16

 *******************************************************************************
 *                                                                             *
 *  --------------------------------                                           *
 *   Amsterdam Modeling Suite (AMS)              2026.103                      *
 *  --------------------------------                                           *
 *                                               r260501 2026-05-01 873454b5   *
 *                                                                             *
 *                                                                             *
 *                              =================                              *
 *                              |               |                              *
 *                              |     A M S     |                              *
 *                              |               |                              *
 *                              =================                              *
 *                                                                             *
 *                                                                             *
 *   Online information and documentation:  https://www.scm.com/support/       *
 *   E-mail:  support@scm.com   info@scm.com                                   *
 *                                                                             *
 *   Scientific publications using AMS results must be properly referenced     *
 *   See the User Manuals (or the web site) for recommended citations          *
 *   The terms and conditions of the End User License Agreement apply to       *
 *   the use of AMS, https://www.scm.com/license-terms/                        *
 *                                                                             *
 **********************  x86_64_linux_intel / intelmpi  ************************
 
 Licensed to: Jong-June Jeon / University of Seoul 2026-06-02 13:44:15
 SCM User ID: u30731
  
 AMS 2026.103  RunTime: Jun02-2026 22:13:43  ShM Nodes: 1  Procs: 1

 AMS jobname: c5_fragB_opt
 AMS jobid  : 2069758359

 Start   directory: /gpfs/home1/yeseo1ee/projects/eda-asm-prediction/ADF_800/adf_outputs/batch_000/dipolar_000184/
 Results directory: /gpfs/home1/yeseo1ee/projects/eda-asm-prediction/ADF_800/adf_outputs/batch_000/dipolar_000184/c5_fragB_opt.results/
 Scratch directory: /tmp/amstmp_c5_fragB_opt_kid0.2069758359/

 RNG seed: -1629154227 2071648130 -1345439467 -840927811 -1342206309 -442002710 -33604010 1710641300



                      ************************************************************************
                      *  ADF 2026.103  RunTime: Jun02-2026 22:13:43  ShM Nodes: 1  Procs: 1  *
                      ************************************************************************
  

       ***************************
       *  GEOMETRY OPTIMIZATION  *
       ***************************

Optimization Method                    Quasi Newton
Optimization Coordinates               Delocalized Coordinates
Optimize lattice                       F
 
 ------------------------------------------------------
 Convergence criteria (Hartree,Angstrom)
 ------------------------------------------------------
 Maximum gradient               0.000100000000
 Maximum rms gradient           0.000066666667
 Maximum step allowed           0.010000000000
 Maximum rms step allowed       0.006666666667
 Maximum energy change allowe   0.000150000000
 Maximum stress energy allowe   0.000500000000
 
Initial model Hessian                  Automatic Hessian
 
------------------------------------
Quasi-Newton Optimizer Parameters
------------------------------------
Hessian Update Method                  BFGS
Maximum number of steps                  200
First GDIIS cycle                          0
Maximum GDIIS vectors                      0
Trust radius (bohr)                        0.200000
Trust radius varies                        T
Constraints converged at all steps         T
Use projector                              T
 
 Rigid motions settings for: old optimizer
 Atomic rotations (x,y,z):     T T T
 Atomic translations (x,y,z):  T T T
 Tolerance:                  1.000000000000000E-006

--------
Geometry
--------
Formula: C8H4N2O
Atoms
  Index Symbol   x (angstrom)   y (angstrom)   z (angstrom)
      1      C     0.79232000    -1.33991000    -1.22544000
      2      C     2.10729000    -0.54587000    -1.11491000
      3      O     1.89332000     0.47415000    -2.10492000
      4      C     0.64512000     0.95011000    -1.56299000
      5      C     1.10821000     1.27107000    -0.12749000
      6      C     0.65976000     2.34694000     0.66908000
      7      N     0.29320000     3.25595000     1.29655000
      8      C     2.01794000     0.30941000     0.16400000
      9      C     2.69318000     0.05969000     1.37898000
     10      N     3.25592000    -0.16501000     2.37240000
     11      C    -0.16800000    -0.37105000    -1.54469000
     12      H     0.78030000    -2.38133000    -1.53658000
     13      H     3.03822000    -1.09847000    -1.26500000
     14      H     0.22469000     1.78145000    -2.13400000
     15      H    -0.98344000    -0.50102000    -2.25390000

Total System Charge              0.00000


----------------
ADF Engine Input
----------------
 
   Basis
     Type TZ2P
     Core None
   End
   XC
     GGA BLYP
     Dispersion GRIMME3 BJDAMP
   End
   Symmetry NOSYM
   NumericalQuality Normal
   Unrestricted No
   SCF
     Iterations 200
     Converge 1.0e-6
   End
   Save TAPE21
 

 Title: *** (NO TITLE) ***

Challenging geometry: could not add a dihedral for atom    7
Challenging geometry: could not add a dihedral for atom   10
 Using automatic Hessian for delocalized coordinates.
 *** GO1_GOStep1 ***

 Energy gradients wrt nuclear displacements
 ==========================================

     Atom      Cartesian (a.u./angstrom)
                 X         Y         Z
 ----------------------------------------
     1 C     0.069325 -0.055181  0.058084
     2 C    -0.006416  0.018797 -0.018714
     3 O    -0.027162 -0.016224  0.030813
     4 C     0.018716 -0.009962 -0.000627
     5 C     0.000433 -0.013237 -0.018437
     6 C    -0.002620  0.016638  0.007453
     7 N     0.005059 -0.009986 -0.005678
     8 C    -0.006947 -0.006577 -0.023375
     9 C     0.009076 -0.004966  0.015229
    10 N    -0.006878  0.004179 -0.009968
    11 C    -0.077945  0.068950  0.011996
    12 H     0.008294  0.002800 -0.020026
    13 H     0.003593 -0.003154  0.001098
    14 H    -0.003715  0.003247 -0.000623
    15 H     0.017187  0.004676 -0.027227
 ----------------------------------------
 
----------------------------------------------------------------------
Geometry Convergence after Step   1       (Hartree/Angstrom,Angstrom)
----------------------------------------------------------------------
current energy                               -3.68907840 Hartree
energy change                      -3.68907840     0.00015000    F
constrained gradient max            0.07792018     0.00010000    F
constrained gradient rms            0.02542142     0.00006667    F
gradient max                        0.07792100
gradient rms                        0.02542142
cart. step max                      0.05312300     0.01000000    F
cart. step rms                      0.01735605     0.00666667    F
 

--------
Geometry
--------
Formula: C8H4N2O
Atoms
  Index Symbol   x (angstrom)   y (angstrom)   z (angstrom)
      1      C     0.78451413    -1.32078902    -1.24254086
      2      C     2.11488980    -0.53881217    -1.12418866
      3      O     1.92532431     0.48867821    -2.12911073
      4      C     0.66568189     0.95518866    -1.57602275
      5      C     1.11845596     1.27763398    -0.12920884
      6      C     0.64641257     2.34124365     0.66607503
      7      N     0.24970292     3.24540349     1.29110176
      8      C     2.02843474     0.31726447     0.16450397
      9      C     2.69408650     0.05282852     1.37873917
     10      N     3.25894071    -0.18905404     2.37261910
     11      C    -0.14431629    -0.37466759    -1.54767424
     12      H     0.73768007    -2.37181737    -1.51021322
     13      H     3.03988914    -1.09989036    -1.26369497
     14      H     0.23810714     1.78607209    -2.13851777
     15      H    -0.99977362    -0.52317251    -2.20077700

Total System Charge              0.00000

 *** GO1_GOStep2 ***

 Energy gradients wrt nuclear displacements
 ==========================================

     Atom      Cartesian (a.u./angstrom)
                 X         Y         Z
 ----------------------------------------
     1 C     0.028857 -0.022895  0.040961
     2 C    -0.011113  0.017336 -0.014736
     3 O    -0.009450 -0.006796  0.005550
     4 C     0.016870 -0.012453  0.001108
     5 C    -0.000191 -0.009126 -0.009525
     6 C     0.003906  0.000211 -0.002241
     7 N    -0.001391  0.004315  0.003673
     8 C    -0.003535 -0.002622 -0.012520
     9 C    -0.002033 -0.001043 -0.001685
    10 N     0.002531  0.000348  0.005648
    11 C    -0.042430  0.030231  0.023845
    12 H     0.003023  0.003239 -0.018867
    13 H     0.001595 -0.001594  0.001775
    14 H    -0.002904  0.001874  0.001242
    15 H     0.016265 -0.001025 -0.024227
 ----------------------------------------

 dE(predicted):    -0.65064E-02, dE(actual):    -0.70383E-02, Trust radius:    0.400000, all in a.u.
 
----------------------------------------------------------------------
Geometry Convergence after Step   2       (Hartree/Angstrom,Angstrom)
----------------------------------------------------------------------
current energy                               -3.69611666 Hartree
energy change                      -0.00703825     0.00015000    F
constrained gradient max            0.04241486     0.00010000    F
constrained gradient rms            0.01435020     0.00006667    F
gradient max                        0.04241564
gradient rms                        0.01435020
cart. step max                      0.09595208     0.01000000    F
cart. step rms                      0.02590297     0.00666667    F
 

--------
Geometry
--------
Formula: C8H4N2O
Atoms
  Index Symbol   x (angstrom)   y (angstrom)   z (angstrom)
      1      C     0.78734200    -1.30287517    -1.27859481
      2      C     2.13636470    -0.54237247    -1.13131644
      3      O     1.96198753     0.50347531    -2.13835214
      4      C     0.68536848     0.97325060    -1.59833542
      5      C     1.12793946     1.28299540    -0.13700524
      6      C     0.62345495     2.32753317     0.65849782
      7      N     0.19212452     3.21478650     1.27749618
      8      C     2.03842216     0.32163409     0.16147383
      9      C     2.69444122     0.04438331     1.37431570
     10      N     3.25588538    -0.21530889     2.36086270
     11      C    -0.11539923    -0.36822785    -1.56892437
     12      H     0.69891052    -2.36910002    -1.45491639
     13      H     3.05818045    -1.10837214    -1.25722422
     14      H     0.25856394     1.80805418    -2.15206230
     15      H    -1.04555607    -0.52374605    -2.10482492

Total System Charge              0.00000

 *** GO1_GOStep3 ***

 Energy gradients wrt nuclear displacements
 ==========================================

     Atom      Cartesian (a.u./angstrom)
                 X         Y         Z
 ----------------------------------------
     1 C    -0.006605  0.007055  0.019380
     2 C     0.001625  0.003074 -0.006943
     3 O    -0.001750 -0.002777 -0.002234
     4 C     0.004679  0.002241 -0.005279
     5 C    -0.001747 -0.002564 -0.003341
     6 C    -0.002140  0.008968  0.004289
     7 N     0.004369 -0.007919 -0.005251
     8 C     0.002066 -0.000565 -0.003277
     9 C     0.004419 -0.004576  0.008855
    10 N    -0.005530  0.003890 -0.008823
    11 C    -0.006542 -0.003534  0.029531
    12 H    -0.000781  0.002325 -0.015266
    13 H     0.000107 -0.001400  0.003394
    14 H    -0.003543  0.001198  0.003648
    15 H     0.011373 -0.005414 -0.018683
 ----------------------------------------

 dE(predicted):    -0.64736E-02, dE(actual):    -0.64137E-02, Trust radius:    0.800000, all in a.u.
 
----------------------------------------------------------------------
Geometry Convergence after Step   3       (Hartree/Angstrom,Angstrom)
----------------------------------------------------------------------
current energy                               -3.70253035 Hartree
energy change                      -0.00641370     0.00015000    F
constrained gradient max            0.02951103     0.00010000    F
constrained gradient rms            0.00789662     0.00006667    F
gradient max                        0.02951253
gradient rms                        0.00789662
cart. step max                      0.19122202     0.01000000    F
cart. step rms                      0.05066681     0.00666667    F
 

--------
Geometry
--------
Formula: C8H4N2O
Atoms
  Index Symbol   x (angstrom)   y (angstrom)   z (angstrom)
      1      C     0.80586259    -1.29096830    -1.33356211
      2      C     2.16281684    -0.54132573    -1.15522057
      3      O     2.01516965     0.52082248    -2.15876980
      4      C     0.72602536     0.99276455    -1.63929764
      5      C     1.14092089     1.28487009    -0.15861370
      6      C     0.57987661     2.29343711     0.64383575
      7      N     0.08077191     3.15256579     1.26394784
      8      C     2.04163179     0.31916816     0.14651089
      9      C     2.68496205     0.02359214     1.36035970
     10      N     3.24686275    -0.26547431     2.34671425
     11      C    -0.08606424    -0.34401761    -1.61719963
     12      H     0.67447952    -2.36612079    -1.30801493
     13      H     3.08573605    -1.10520988    -1.27088537
     14      H     0.32049272     1.83500955    -2.19511180
     15      H    -1.12151449    -0.46300325    -1.91360290

Total System Charge              0.00000

 *** GO1_GOStep4 ***

 Energy gradients wrt nuclear displacements
 ==========================================

     Atom      Cartesian (a.u./angstrom)
                 X         Y         Z
 ----------------------------------------
     1 C    -0.007601  0.000292  0.003311
     2 C     0.006877 -0.001953  0.005843
     3 O     0.007585  0.002130 -0.011416
     4 C    -0.000327  0.009850 -0.002149
     5 C     0.002102 -0.002402 -0.001068
     6 C     0.006317 -0.011337 -0.007968
     7 N    -0.006019  0.011332  0.007805
     8 C    -0.001174  0.002767 -0.001914
     9 C    -0.007716  0.002155 -0.013482
    10 N     0.007303 -0.002781  0.012976
    11 C    -0.004814 -0.003854  0.014598
    12 H    -0.001534 -0.000082 -0.006035
    13 H    -0.001249 -0.000517  0.002699
    14 H    -0.002179 -0.000194  0.003580
    15 H     0.002430 -0.005407 -0.006783
 ----------------------------------------

 dE(predicted):    -0.55927E-02, dE(actual):    -0.64732E-02, Trust radius:    1.000000, all in a.u.
 
----------------------------------------------------------------------
Geometry Convergence after Step   4       (Hartree/Angstrom,Angstrom)
----------------------------------------------------------------------
current energy                               -3.70900355 Hartree
energy change                      -0.00647319     0.00015000    F
constrained gradient max            0.01453961     0.00010000    F
constrained gradient rms            0.00632936     0.00006667    F
gradient max                        0.01454117
gradient rms                        0.00632936
cart. step max                      0.12680305     0.01000000    F
cart. step rms                      0.03163702     0.00666667    F
 

--------
Geometry
--------
Formula: C8H4N2O
Atoms
  Index Symbol   x (angstrom)   y (angstrom)   z (angstrom)
      1      C     0.81374286    -1.28416337    -1.34993828
      2      C     2.17032823    -0.54004061    -1.17181551
      3      O     2.03528016     0.53040793    -2.15951098
      4      C     0.74425301     0.99718288    -1.65806509
      5      C     1.13580453     1.27573953    -0.16437547
      6      C     0.54943835     2.26782923     0.63994817
      7      N     0.01872578     3.10322888     1.25275433
      8      C     2.04134210     0.31303862     0.13885847
      9      C     2.68547039     0.00981048     1.35012736
     10      N     3.24747102    -0.29244995     2.32402159
     11      C    -0.06990256    -0.33336630    -1.66132772
     12      H     0.66577708    -2.34365276    -1.18121187
     13      H     3.09546807    -1.09947393    -1.29398178
     14      H     0.36234591     1.84384301    -2.22451801
     15      H    -1.13751493    -0.40182363    -1.82987520

Total System Charge              0.00000

 *** GO1_GOStep5 ***

 Energy gradients wrt nuclear displacements
 ==========================================

     Atom      Cartesian (a.u./angstrom)
                 X         Y         Z
 ----------------------------------------
     1 C    -0.003281 -0.003812  0.000484
     2 C     0.003229 -0.002753  0.006724
     3 O     0.006368  0.003984 -0.008292
     4 C    -0.001476  0.007811  0.005433
     5 C    -0.000293 -0.001054 -0.000865
     6 C    -0.005551  0.008526  0.007035
     7 N     0.005731 -0.009122 -0.007254
     8 C     0.000915  0.000922 -0.002184
     9 C     0.005998 -0.004091  0.009593
    10 N    -0.006149  0.003966 -0.010657
    11 C    -0.004747 -0.004175 -0.002238
    12 H    -0.000184  0.000549  0.001139
    13 H    -0.000790  0.000222  0.000695
    14 H    -0.000272 -0.001083  0.000791
    15 H     0.000503  0.000109 -0.000402
 ----------------------------------------

 dE(predicted):    -0.14108E-02, dE(actual):    -0.14403E-02, Trust radius:    1.000000, all in a.u.
 
----------------------------------------------------------------------
Geometry Convergence after Step   5       (Hartree/Angstrom,Angstrom)
----------------------------------------------------------------------
current energy                               -3.71044380 Hartree
energy change                      -0.00144025     0.00015000    F
constrained gradient max            0.01066313     0.00010000    F
constrained gradient rms            0.00471042     0.00006667    F
gradient max                        0.01066386
gradient rms                        0.00471042
cart. step max                      0.03726771     0.01000000    F
cart. step rms                      0.01109582     0.00666667    F
 

--------
Geometry
--------
Formula: C8H4N2O
Atoms
  Index Symbol   x (angstrom)   y (angstrom)   z (angstrom)
      1      C     0.82487612    -1.28705758    -1.36220000
      2      C     2.17324169    -0.53642590    -1.17580043
      3      O     2.02775016     0.53186588    -2.15696071
      4      C     0.73861684     0.99313627    -1.65880176
      5      C     1.13547889     1.27915174    -0.16705081
      6      C     0.55656057     2.27942621     0.63300697
      7      N     0.03462548     3.12520223     1.24671893
      8      C     2.03144341     0.30772776     0.14129190
      9      C     2.67000098     0.00157783     1.35533489
     10      N     3.22770648    -0.30671889     2.33452527
     11      C    -0.06808365    -0.33753192    -1.65053774
     12      H     0.68680014    -2.34955920    -1.20305715
     13      H     3.10354573    -1.08725313    -1.30282233
     14      H     0.35534940     1.83694877    -2.22994953
     15      H    -1.13988222    -0.40438007    -1.79260749

Total System Charge              0.00000

 *** GO1_GOStep6 ***

 Energy gradients wrt nuclear displacements
 ==========================================

     Atom      Cartesian (a.u./angstrom)
                 X         Y         Z
 ----------------------------------------
     1 C    -0.000687 -0.001546 -0.002857
     2 C     0.003643 -0.000561  0.007253
     3 O     0.001301  0.000877 -0.003435
     4 C    -0.002124  0.004692  0.003012
     5 C     0.001330  0.000419 -0.003242
     6 C     0.000941 -0.001395 -0.001258
     7 N    -0.001202  0.001962  0.001151
     8 C    -0.002120 -0.001992 -0.002351
     9 C    -0.000745 -0.000182 -0.001742
    10 N     0.001320 -0.000119  0.002155
    11 C    -0.002173 -0.002818  0.000381
    12 H     0.000658  0.000133  0.000470
    13 H    -0.000358 -0.000234 -0.000337
    14 H     0.000194 -0.000311 -0.000060
    15 H     0.000022  0.001078  0.000861
 ----------------------------------------

 dE(predicted):    -0.17510E-03, dE(actual):    -0.10174E-03, Trust radius:    1.000000, all in a.u.
 
----------------------------------------------------------------------
Geometry Convergence after Step   6       (Hartree/Angstrom,Angstrom)
----------------------------------------------------------------------
current energy                               -3.71054553 Hartree
energy change                      -0.00010174     0.00015000    T
constrained gradient max            0.00722978     0.00010000    F
constrained gradient rms            0.00205615     0.00006667    F
gradient max                        0.00722965
gradient rms                        0.00205615
cart. step max                      0.01679955     0.01000000    F
cart. step rms                      0.00410993     0.00666667    T
 

--------
Geometry
--------
Formula: C8H4N2O
Atoms
  Index Symbol   x (angstrom)   y (angstrom)   z (angstrom)
      1      C     0.82166001    -1.28446996    -1.35427288
      2      C     2.17098005    -0.53651482    -1.17649967
      3      O     2.02742717     0.53068551    -2.15542173
      4      C     0.73975285     0.99208773    -1.65979940
      5      C     1.13162564     1.27558491    -0.16483787
      6      C     0.55323784     2.27535048     0.63605377
      7      N     0.03533313     3.12221147     1.25255601
      8      C     2.03682599     0.31160502     0.14025210
      9      C     2.67575640     0.00589254     1.35404027
     10      N     3.23168555    -0.30402740     2.33430469
     11      C    -0.06759278    -0.33592485    -1.65399367
     12      H     0.68038988    -2.34688755    -1.19623079
     13      H     3.10024223    -1.08925826    -1.30459603
     14      H     0.35816736     1.83696585    -2.23105775
     15      H    -1.13746133    -0.40719066    -1.80940704

Total System Charge              0.00000

 *** GO1_GOStep7 ***

 Energy gradients wrt nuclear displacements
 ==========================================

     Atom      Cartesian (a.u./angstrom)
                 X         Y         Z
 ----------------------------------------
     1 C    -0.001344  0.000462 -0.000407
     2 C     0.000694 -0.000017  0.004123
     3 O     0.000778  0.000472 -0.001521
     4 C    -0.000033  0.002903  0.002863
     5 C    -0.000867 -0.001366 -0.002375
     6 C     0.001499 -0.002635 -0.002033
     7 N    -0.001695  0.003275  0.002090
     8 C     0.000456 -0.000712 -0.002878
     9 C    -0.001501  0.000486 -0.003280
    10 N     0.001997 -0.000741  0.003735
    11 C    -0.000088 -0.002042  0.000053
    12 H     0.000236 -0.000109  0.000261
    13 H    -0.000075 -0.000112 -0.000298
    14 H     0.000048 -0.000229 -0.000419
    15 H    -0.000106  0.000365  0.000086
 ----------------------------------------

 dE(predicted):    -0.53474E-04, dE(actual):    -0.67706E-04, Trust radius:    1.000000, all in a.u.
 
----------------------------------------------------------------------
Geometry Convergence after Step   7       (Hartree/Angstrom,Angstrom)
----------------------------------------------------------------------
current energy                               -3.71061324 Hartree
energy change                      -0.00006771     0.00015000    T
constrained gradient max            0.00410126     0.00010000    F
constrained gradient rms            0.00166250     0.00006667    F
gradient max                        0.00410086
gradient rms                        0.00166250
cart. step max                      0.00420436     0.01000000    T
cart. step rms                      0.00157243     0.00666667    T
 

--------
Geometry
--------
Formula: C8H4N2O
Atoms
  Index Symbol   x (angstrom)   y (angstrom)   z (angstrom)
      1      C     0.82288883    -1.28411127    -1.35272982
      2      C     2.17068595    -0.53475929    -1.17865653
      3      O     2.02635788     0.53126964    -2.15584475
      4      C     0.73964556     0.99052063    -1.66055985
      5      C     1.13307783     1.27768539    -0.16472684
      6      C     0.55524945     2.27728155     0.63617987
      7      N     0.03805453     3.12275819     1.25245405
      8      C     2.03658291     0.31268222     0.14094581
      9      C     2.67310853     0.00530953     1.35512133
     10      N     3.22748118    -0.30739124     2.33365834
     11      C    -0.06707585    -0.33597127    -1.65246017
     12      H     0.68111677    -2.34673226    -1.19628737
     13      H     3.10059131    -1.08670918    -1.30617664
     14      H     0.35693214     1.83532266    -2.23138392
     15      H    -1.13666702    -0.41104532    -1.80844350

Total System Charge              0.00000

 *** GO1_GOStep8 ***

 Energy gradients wrt nuclear displacements
 ==========================================

     Atom      Cartesian (a.u./angstrom)
                 X         Y         Z
 ----------------------------------------
     1 C    -0.000740  0.000467  0.000368
     2 C    -0.000746  0.001299  0.001837
     3 O     0.000340  0.000427 -0.000801
     4 C     0.001046  0.000109  0.002265
     5 C    -0.000670 -0.000145 -0.001774
     6 C    -0.000587  0.001057  0.000847
     7 N     0.000763 -0.000844 -0.000894
     8 C     0.000556 -0.001096 -0.001556
     9 C     0.000581 -0.000649  0.001313
    10 N    -0.000635  0.000699 -0.001153
    11 C     0.000267 -0.000741  0.000126
    12 H    -0.000030 -0.000177  0.000039
    13 H    -0.000027 -0.000125 -0.000242
    14 H     0.000026 -0.000128 -0.000347
    15 H    -0.000145 -0.000153 -0.000028
 ----------------------------------------

 dE(predicted):    -0.19594E-04, dE(actual):    -0.37356E-04, Trust radius:    1.000000, all in a.u.
 
----------------------------------------------------------------------
Geometry Convergence after Step   8       (Hartree/Angstrom,Angstrom)
----------------------------------------------------------------------
current energy                               -3.71065059 Hartree
energy change                      -0.00003736     0.00015000    T
constrained gradient max            0.00229131     0.00010000    F
constrained gradient rms            0.00082990     0.00006667    F
gradient max                        0.00229140
gradient rms                        0.00082990
cart. step max                      0.00249552     0.01000000    T
cart. step rms                      0.00088910     0.00666667    T
 

--------
Geometry
--------
Formula: C8H4N2O
Atoms
  Index Symbol   x (angstrom)   y (angstrom)   z (angstrom)
      1      C     0.82336809    -1.28401187    -1.35368005
      2      C     2.17099051    -0.53538409    -1.17964882
      3      O     2.02640654     0.53050859    -2.15526476
      4      C     0.73988590     0.99011766    -1.66192281
      5      C     1.13298517     1.27788600    -0.16425482
      6      C     0.55439971     2.27712648     0.63621708
      7      N     0.03555902     3.12193818     1.25233626
      8      C     2.03633969     0.31305297     0.14160261
      9      C     2.67366892     0.00578024     1.35512369
     10      N     3.22869805    -0.30873986     2.33292789
     11      C    -0.06654029    -0.33532814    -1.65345436
     12      H     0.67970239    -2.34586039    -1.19425074
     13      H     3.10131528    -1.08689045    -1.30600177
     14      H     0.35781329     1.83554706    -2.23225823
     15      H    -1.13656227    -0.40963239    -1.80638117

Total System Charge              0.00000

 *** GO1_GOStep9 ***

 Energy gradients wrt nuclear displacements
 ==========================================

     Atom      Cartesian (a.u./angstrom)
                 X         Y         Z
 ----------------------------------------
     1 C    -0.000191  0.000297  0.000169
     2 C    -0.000291  0.000895  0.000684
     3 O    -0.000409 -0.000287  0.000218
     4 C     0.000829 -0.000135  0.001208
     5 C    -0.000586  0.000175 -0.001091
     6 C    -0.000222  0.000559  0.000497
     7 N     0.000465 -0.000444 -0.000576
     8 C     0.000501 -0.000721 -0.000846
     9 C     0.000286 -0.000244  0.000654
    10 N    -0.000360  0.000436 -0.000633
    11 C     0.000202 -0.000236 -0.000137
    12 H    -0.000107 -0.000047  0.000128
    13 H     0.000009 -0.000144 -0.000121
    14 H    -0.000054 -0.000071 -0.000245
    15 H    -0.000071 -0.000034  0.000090
 ----------------------------------------

 dE(predicted):    -0.58291E-05, dE(actual):    -0.64032E-05, Trust radius:    1.000000, all in a.u.
 
----------------------------------------------------------------------
Geometry Convergence after Step   9       (Hartree/Angstrom,Angstrom)
----------------------------------------------------------------------
current energy                               -3.71065700 Hartree
energy change                      -0.00000640     0.00015000    T
constrained gradient max            0.00123525     0.00010000    F
constrained gradient rms            0.00046574     0.00006667    F
gradient max                        0.00123532
gradient rms                        0.00046574
cart. step max                      0.00305539     0.01000000    T
cart. step rms                      0.00084464     0.00666667    T
 

--------
Geometry
--------
Formula: C8H4N2O
Atoms
  Index Symbol   x (angstrom)   y (angstrom)   z (angstrom)
      1      C     0.82337255    -1.28424254    -1.35464509
      2      C     2.17082230    -0.53589924    -1.17996187
      3      O     2.02711507     0.53075118    -2.15448760
      4      C     0.73984412     0.98986129    -1.66286790
      5      C     1.13253117     1.27785526    -0.16331271
      6      C     0.55355496     2.27774485     0.63585686
      7      N     0.03378250     3.12287861     1.25119871
      8      C     2.03518112     0.31292836     0.14304075
      9      C     2.67436935     0.00569539     1.35544710
     10      N     3.23175344    -0.31028755     2.33172196
     11      C    -0.06645647    -0.33503972    -1.65398337
     12      H     0.67890426    -2.34577623    -1.19417818
     13      H     3.10153334    -1.08695622    -1.30470899
     14      H     0.35831939     1.83601613    -2.23232910
     15      H    -1.13659711    -0.40941957    -1.80570056

Total System Charge              0.00000

 *** GO1_GOStep10 ***

 Energy gradients wrt nuclear displacements
 ==========================================

     Atom      Cartesian (a.u./angstrom)
                 X         Y         Z
 ----------------------------------------
     1 C    -0.000184 -0.000138  0.000054
     2 C     0.000035  0.000408 -0.000128
     3 O    -0.000241 -0.000201  0.000412
     4 C     0.000375 -0.000154  0.000066
     5 C    -0.000212  0.000231 -0.000418
     6 C     0.000177 -0.000052 -0.000071
     7 N     0.000060  0.000167 -0.000091
     8 C     0.000219 -0.000308 -0.000068
     9 C    -0.000054  0.000105 -0.000070
    10 N     0.000058  0.000141  0.000061
    11 C    -0.000024  0.000013  0.000011
    12 H    -0.000120  0.000019  0.000152
    13 H    -0.000038 -0.000106  0.000028
    14 H    -0.000049 -0.000058 -0.000083
    15 H    -0.000001 -0.000067  0.000145
 ----------------------------------------

 dE(predicted):    -0.27512E-05, dE(actual):     0.26330E-05, Trust radius:    0.020000, all in a.u.
 
----------------------------------------------------------------------
Geometry Convergence after Step  10       (Hartree/Angstrom,Angstrom)
----------------------------------------------------------------------
current energy                               -3.71065436 Hartree
energy change                       0.00000263     0.00015000    T
constrained gradient max            0.00045847     0.00010000    F
constrained gradient rms            0.00015968     0.00006667    F
gradient max                        0.00045847
gradient rms                        0.00015968
cart. step max                      0.00143806     0.01000000    T
cart. step rms                      0.00040081     0.00666667    T
 

--------
Geometry
--------
Formula: C8H4N2O
Atoms
  Index Symbol   x (angstrom)   y (angstrom)   z (angstrom)
      1      C     0.82331402    -1.28427571    -1.35462926
      2      C     2.17069490    -0.53607826    -1.17965379
      3      O     2.02710611     0.53054403    -2.15450834
      4      C     0.73969758     0.98984826    -1.66279360
      5      C     1.13226113     1.27781782    -0.16274953
      6      C     0.55312170     2.27813748     0.63578129
      7      N     0.03318814     3.12354368     1.25060285
      8      C     2.03490932     0.31307570     0.14357334
      9      C     2.67485272     0.00555712     1.35550027
     10      N     3.23319150    -0.31100767     2.33104170
     11      C    -0.06651407    -0.33505297    -1.65410196
     12      H     0.67890588    -2.34585750    -1.19438940
     13      H     3.10147253    -1.08705398    -1.30399615
     14      H     0.35840404     1.83619439    -2.23204550
     15      H    -1.13657549    -0.40928240    -1.80654194

Total System Charge              0.00000

 *** GO1_GOStep11 ***

 Energy gradients wrt nuclear displacements
 ==========================================

     Atom      Cartesian (a.u./angstrom)
                 X         Y         Z
 ----------------------------------------
     1 C    -0.000149 -0.000128  0.000014
     2 C     0.000171  0.000146 -0.000128
     3 O    -0.000171 -0.000282  0.000067
     4 C     0.000158  0.000014 -0.000073
     5 C    -0.000111  0.000141 -0.000073
     6 C     0.000128  0.000013 -0.000101
     7 N     0.000069  0.000153 -0.000093
     8 C     0.000107 -0.000064  0.000123
     9 C    -0.000038  0.000085 -0.000086
    10 N     0.000067  0.000129  0.000057
    11 C    -0.000041 -0.000038  0.000027
    12 H    -0.000098  0.000011  0.000150
    13 H    -0.000054 -0.000083  0.000056
    14 H    -0.000020 -0.000071 -0.000043
    15 H    -0.000016 -0.000026  0.000101
 ----------------------------------------

 dE(predicted):    -0.33953E-06, dE(actual):     0.20088E-05, Trust radius:    0.020000, all in a.u.
 
----------------------------------------------------------------------
Geometry Convergence after Step  11       (Hartree/Angstrom,Angstrom)
----------------------------------------------------------------------
current energy                               -3.71065236 Hartree
energy change                       0.00000201     0.00015000    T
constrained gradient max            0.00019857     0.00010000    F
constrained gradient rms            0.00008495     0.00006667    F
gradient max                        0.00019854
gradient rms                        0.00008495
cart. step max                      0.00089704     0.01000000    T
cart. step rms                      0.00026366     0.00666667    T
 

--------
Geometry
--------
Formula: C8H4N2O
Atoms
  Index Symbol   x (angstrom)   y (angstrom)   z (angstrom)
      1      C     0.82330917    -1.28425195    -1.35438741
      2      C     2.17056982    -0.53609433    -1.17943435
      3      O     2.02722783     0.53081647    -2.15426077
      4      C     0.73952132     0.98984170    -1.66267803
      5      C     1.13222378     1.27788679    -0.16255663
      6      C     0.55293129     2.27846324     0.63557543
      7      N     0.03286269     3.12405143     1.25002013
      8      C     2.03482786     0.31321144     0.14374467
      9      C     2.67507993     0.00526335     1.35542331
     10      N     3.23373932    -0.31190470     2.33057444
     11      C    -0.06657843    -0.33511320    -1.65400292
     12      H     0.67920231    -2.34592462    -1.19437298
     13      H     3.10138400    -1.08701531    -1.30371308
     14      H     0.35831911     1.83621493    -2.23193295
     15      H    -1.13659003    -0.40933524    -1.80690887

Total System Charge              0.00000

 *** GO1_GOStep12 ***

 Energy gradients wrt nuclear displacements
 ==========================================

     Atom      Cartesian (a.u./angstrom)
                 X         Y         Z
 ----------------------------------------
     1 C    -0.000154 -0.000114  0.000079
     2 C     0.000102 -0.000042 -0.000091
     3 O     0.000009 -0.000091  0.000035
     4 C    -0.000020  0.000017 -0.000111
     5 C     0.000044  0.000039 -0.000016
     6 C     0.000073  0.000073 -0.000124
     7 N     0.000081  0.000134 -0.000100
     8 C     0.000025  0.000078  0.000067
     9 C     0.000015  0.000033 -0.000057
    10 N     0.000049  0.000131  0.000029
    11 C    -0.000072 -0.000085  0.000063
    12 H    -0.000069 -0.000015  0.000146
    13 H    -0.000053 -0.000074  0.000053
    14 H     0.000007 -0.000074 -0.000048
    15 H    -0.000037 -0.000011  0.000074
 ----------------------------------------
 
----------------------------------------------------------------------
Geometry Convergence after Step  12       (Hartree/Angstrom,Angstrom)
----------------------------------------------------------------------
current energy                               -3.71065178 Hartree
energy change                       0.00000058     0.00015000    T
constrained gradient max            0.00012938     0.00010000    F
constrained gradient rms            0.00004473     0.00006667    T
gradient max                        0.00012936
gradient rms                        0.00004473
cart. step max                      0.00031715     0.01000000    T
cart. step rms                      0.00007717     0.00666667    T
 

--------
Geometry
--------
Formula: C8H4N2O
Atoms
  Index Symbol   x (angstrom)   y (angstrom)   z (angstrom)
      1      C     0.82336054    -1.28417904    -1.35427314
      2      C     2.17053025    -0.53604870    -1.17935011
      3      O     2.02716902     0.53078977    -2.15432594
      4      C     0.73950990     0.98985644    -1.66262627
      5      C     1.13221742     1.27789905    -0.16254643
      6      C     0.55289609     2.27851278     0.63552564
      7      N     0.03277686     3.12414709     1.24984745
      8      C     2.03482339     0.31324663     0.14374091
      9      C     2.67507508     0.00517192     1.35540193
     10      N     3.23375414    -0.31222185     2.33045796
     11      C    -0.06655562    -0.33507865    -1.65392624
     12      H     0.67937492    -2.34588406    -1.19432373
     13      H     3.10134934    -1.08696560    -1.30368944
     14      H     0.35830816     1.83620426    -2.23193808
     15      H    -1.13655951    -0.40934001    -1.80688453

Total System Charge              0.00000

 *** GO1_GOStep13 ***

 Energy gradients wrt nuclear displacements
 ==========================================

     Atom      Cartesian (a.u./angstrom)
                 X         Y         Z
 ----------------------------------------
     1 C    -0.000107 -0.000055  0.000089
     2 C     0.000021 -0.000034 -0.000015
     3 O    -0.000006 -0.000108 -0.000036
     4 C    -0.000012 -0.000008 -0.000051
     5 C     0.000047 -0.000005 -0.000019
     6 C     0.000058  0.000098 -0.000107
     7 N     0.000093  0.000114 -0.000119
     8 C    -0.000001  0.000076  0.000026
     9 C     0.000033  0.000024 -0.000021
    10 N     0.000036  0.000133  0.000002
    11 C    -0.000034 -0.000055  0.000060
    12 H    -0.000055 -0.000025  0.000143
    13 H    -0.000046 -0.000075  0.000040
    14 H     0.000012 -0.000070 -0.000065
    15 H    -0.000040 -0.000010  0.000072
 ----------------------------------------
 
---------------------------------------------------------
Geometry Convergence after Step  13       ** CONVERGED **
---------------------------------------------------------
current energy                               -3.71065194 Hartree
energy change                      -0.00000016     0.00015000    T
constrained gradient max            0.00006090     0.00010000    T
constrained gradient rms            0.00002251     0.00006667    T
gradient max                        0.00006093
gradient rms                        0.00002251
cart. step max                      0.00015874     0.01000000    T
cart. step rms                      0.00003647     0.00666667    T
 
Geometry optimization converged

Optimized geometry:

--------
Geometry
--------
Formula: C8H4N2O
Atoms
  Index Symbol   x (angstrom)   y (angstrom)   z (angstrom)
      1      C     0.82336054    -1.28417904    -1.35427314
      2      C     2.17053025    -0.53604870    -1.17935011
      3      O     2.02716902     0.53078977    -2.15432594
      4      C     0.73950990     0.98985644    -1.66262627
      5      C     1.13221742     1.27789905    -0.16254643
      6      C     0.55289609     2.27851278     0.63552564
      7      N     0.03277686     3.12414709     1.24984745
      8      C     2.03482339     0.31324663     0.14374091
      9      C     2.67507508     0.00517192     1.35540193
     10      N     3.23375414    -0.31222185     2.33045796
     11      C    -0.06655562    -0.33507865    -1.65392624
     12      H     0.67937492    -2.34588406    -1.19432373
     13      H     3.10134934    -1.08696560    -1.30368944
     14      H     0.35830816     1.83620426    -2.23193808
     15      H    -1.13655951    -0.40934001    -1.80688453

Total System Charge              0.00000

Performing a single point calculation on the final geometry ...

 *** adf ***



 ===========================
 A T T A C H E D   F I L E S
 ===========================
  
 Restart/tmp/amstmp_c5_fragB_opt_kid0.2069758359/GO1_GOStep13.rkf*** GO1_GOStep13 ***



 ===============================
 M O D E L   P A R A M E T E R S
 ===============================
  
 DENSITY FUNCTIONAL POTENTIAL (scf)
    LDA:                               Exchange only                           == Not Default ==
    Gradient Corrections:              Becke88 LYP                             == Not Default ==

 SPIN  (restricted / unrestr.)
    Molecule:                          Restricted                               
    Fragments:                         Restricted                               

 OTHER ASPECTS
    Relativistic Corrections:          scalar (ZORA,MAPA)                       

    Nuclear Charge Density Model:      Point Charge Nuclei                      
    Core Treatment:                    Frozen Orbital(s)                        

    Hyperfine or Zeeman Interaction:   ---                                      

 Settings for Grimme D3 dispersion correction

      damping                        BJ
      s6                          1.000
      s8                          2.700
      a1                          0.430
      a2                          4.236

 Other (technical) parameters

      alpha                      14.000
      version                         4
 



 ===============
 G E O M E T R Y  ***  3D  Molecule  ***
 ===============
  

 ATOMS
 =====                            X Y Z                    CHARGE
                                (Angstrom)             Nucl     +Core       At.Mass
                       --------------------------    ----------------       -------
    1  C               0.8234   -1.2842   -1.3543      6.00      6.00       12.0000
    2  C               2.1705   -0.5360   -1.1794      6.00      6.00       12.0000
    3  O               2.0272    0.5308   -2.1543      8.00      8.00       15.9949
    4  C               0.7395    0.9899   -1.6626      6.00      6.00       12.0000
    5  C               1.1322    1.2779   -0.1625      6.00      6.00       12.0000
    6  C               0.5529    2.2785    0.6355      6.00      6.00       12.0000
    7  N               0.0328    3.1241    1.2498      7.00      7.00       14.0031
    8  C               2.0348    0.3132    0.1437      6.00      6.00       12.0000
    9  C               2.6751    0.0052    1.3554      6.00      6.00       12.0000
   10  N               3.2338   -0.3122    2.3305      7.00      7.00       14.0031
   11  C              -0.0666   -0.3351   -1.6539      6.00      6.00       12.0000
   12  H               0.6794   -2.3459   -1.1943      1.00      1.00        1.0078
   13  H               3.1013   -1.0870   -1.3037      1.00      1.00        1.0078
   14  H               0.3583    1.8362   -2.2319      1.00      1.00        1.0078
   15  H              -1.1366   -0.4093   -1.8069      1.00      1.00        1.0078


 FRAGMENTS
 =========                                     Atoms in this Fragment     Cart. coord.s (Angstrom)
                                               -------------------------------------------------------
    1  C                                                 1  C            0.8234   -1.2842   -1.3543
    2  C                                                 2  C            2.1705   -0.5360   -1.1794
    3  C                                                 4  C            0.7395    0.9899   -1.6626
    4  C                                                 5  C            1.1322    1.2779   -0.1625
    5  C                                                 6  C            0.5529    2.2785    0.6355
    6  C                                                 8  C            2.0348    0.3132    0.1437
    7  C                                                 9  C            2.6751    0.0052    1.3554
    8  C                                                11  C           -0.0666   -0.3351   -1.6539
    9  O                                                 3  O            2.0272    0.5308   -2.1543
   10  N                                                 7  N            0.0328    3.1241    1.2498
   11  N                                                10  N            3.2338   -0.3122    2.3305
   12  H                                                12  H            0.6794   -2.3459   -1.1943
   13  H                                                13  H            3.1013   -1.0870   -1.3037
   14  H                                                14  H            0.3583    1.8362   -2.2319
   15  H                                                15  H           -1.1366   -0.4093   -1.8069


 Interatomic Distance Matrix (Angstrom)
 --------------------------------------

   1)     0.000
   2)     1.551   0.000
   3)     2.320   1.452   0.000
   4)     2.296   2.147   1.453   0.000
   5)     2.843   2.324   2.308   1.577   0.000
   6)     4.090   3.719   3.607   2.641   1.405   0.000
   7)     5.181   4.885   4.721   3.679   2.571   1.167   0.000
   8)     2.503   1.578   2.308   2.323   1.356   2.510   3.624   0.000
   9)     3.526   2.641   3.608   3.718   2.511   3.192   4.089   1.405   0.000
  10)     4.509   3.674   4.720   4.885   3.628   4.095   4.819   2.571   1.168   0.000
  11)     1.335   2.296   2.320   1.551   2.503   3.529   4.518   2.840   4.085   5.174
          0.000
  12)     1.083   2.345   3.319   3.369   3.795   4.975   6.026   3.271   4.001   4.805
          2.193   0.000
  13)     2.287   1.089   2.120   3.165   3.282   4.646   5.803   2.279   2.906   3.718
          3.275   2.732   0.000
  14)     3.275   3.165   2.120   1.089   2.279   2.908   3.727   3.282   4.646   5.805
          2.287   4.321   4.115   0.000
  15)     2.194   3.368   3.319   2.345   3.271   4.006   4.816   3.793   4.970   6.019
          1.083   2.725   4.321   2.731   0.000

 Min. Distance =    1.0833
 Max. Distance =    6.0261



 =====================================
 S Y M M E T R Y ,   E L E C T R O N S
 =====================================
  
 Symmetry: NOSYM

 Irreducible Representations, including subspecies
 -------------------------------------------------
 A


 Configuration of Valence Electrons
 ==================================
 ( determined in the SCF procedure )

 Total:   74

 Net Charge: 0 (Nuclei minus Electrons)

 Aufbau principle for MO occupations will be applied through SCF cycle no.     100
 Thereafter, the program will assign electrons to MOs that are spatially
 similar to the occupied MOs in a "reference" cycle ("KeepOrbitals").
 The reference cycle is always the PREVIOUS cycle: it will evolve with
 the SCF procedure.
 ***************************************************************************************************



                                      ****************************************
                                      *  B U I L D : (Fragments, Functions)  *
                                      ****************************************
  



 =======
 S F O s  ***  (Symmetrized Fragment Orbitals)  ***
 =======
  
 SFOs are linear combinations of (valence) Fragment Orbitals (FOs), such that the SFOs transform as the
 irreducible representations of the (molecular) symmetry group. Each SFO is therefore characterized by
 an irrep of the molecule and by a few (or only one) generating FOs.
 The SFOs constitute a symmetry-adapted basis for the Fock matrix. The MO eigenvector coefficients in
 this basis provide a direct interpretation of the MOs in terms of Frontier Orbital Theory.

 The SFOs are combined with auxiliary Core Functions (CFs) to ensure orthogonalization on the (frozen)
 Core Orbitals (COs). The Core-orthogonalized SFOs (CSFOs) constitute the true Fock basis.

 The FOs, and hence also the (C)SFOs are combinations of the elementary basis functions (BAS). The basis
 functions that participate in the description of the SFOs depend on the irrep. The indices of the
 involved functions are printed below for each irrep.
 (The complete list of primitive basis functions is printed in another section)

 Total nr. of (C)SFOs (summation over all irreps) :   330

 NOTE: a (C)SFO that is defined as a combination of more than one FO is usually NOT normalized.



                                       === A ===
 Nr. of SFOs :  330
 Cartesian basis functions that participate in this irrep (total number =   378) :
      1     2     3     4     5     6     9    12     7    10
     13     8    11    14    15    16    17    18    19    20
     21    22    23    24    25    26    27    28    29    30
     31    32    33    34    35    36    39    42    37    40
     43    38    41    44    45    46    47    48    49    50
     51    52    53    54    55    56    57    58    59    60
     61    62    63    64    65    66    69    72    67    70
     73    68    71    74    75    76    77    78    79    80
     81    82    83    84    85    86    87    88    89    90
     91    92    93    94    95    96    99   102    97   100
    103    98   101   104   105   106   107   108   109   110
    111   112   113   114   115   116   117   118   119   120
    121   122   123   124   125   126   129   132   127   130
    133   128   131   134   135   136   137   138   139   140
    141   142   143   144   145   146   147   148   149   150
    151   152   153   154   155   156   159   162   157   160
    163   158   161   164   165   166   167   168   169   170
    171   172   173   174   175   176   177   178   179   180
    181   182   183   184   185   186   189   192   187   190
    193   188   191   194   195   196   197   198   199   200
    201   202   203   204   205   206   207   208   209   210
    211   212   213   214   215   216   219   222   217   220
    223   218   221   224   225   226   227   228   229   230
    231   232   233   234   235   236   237   238   239   240
    241   242   243   244   245   246   249   252   247   250
    253   248   251   254   255   256   257   258   259   260
    261   262   263   264   265   266   267   268   269   270
    271   272   273   274   275   276   279   282   277   280
    283   278   281   284   285   286   287   288   289   290
    291   292   293   294   295   296   297   298   299   300
    301   302   303   304   305   306   309   312   307   310
    313   308   311   314   315   316   317   318   319   320
    321   322   323   324   325   326   327   328   329   330
    331   332   333   334   335   336   337   338   339   340
    341   342   343   344   345   346   347   348   349   350
    351   352   353   354   355   356   357   358   359   360
    361   362   363   364   365   366   367   368   369   370
    371   372   373   374   375   376   377   378

    SFO  (index         Fragment          Generating    Expansion in Fragment Orbitals
  indx  incl.CFs)   Occup   Orb.Energy   FragmentType  Coeff.   Orbital     on Fragment
 --------------------------------------------------------------------------------------
     1       1      2.000     -10.066 au  C             1.00      1 S               1
                        (    -273.921 eV)
     2       2      2.000      -0.501 au  C             1.00      2 S               1
                        (     -13.620 eV)
     3       3       --         0.373 au  C             1.00      3 S               1
                        (      10.158 eV)
     4       4       --         5.405 au  C             1.00      4 S               1
                        (     147.073 eV)
     5       5       --        49.848 au  C             1.00      5 S               1
                        (    1356.422 eV)
     6       6      0.667      -0.193 au  C             1.00      1 P:x             1
                        (      -5.239 eV)
     7       7       --         0.169 au  C             1.00      2 P:x             1
                        (       4.589 eV)
     8       8       --         2.013 au  C             1.00      3 P:x             1
                        (      54.789 eV)
     9       9      0.667      -0.193 au  C             1.00      1 P:y             1
                        (      -5.239 eV)
    10      10       --         0.169 au  C             1.00      2 P:y             1
                        (       4.589 eV)
    11      11       --         2.013 au  C             1.00      3 P:y             1
                        (      54.789 eV)
    12      12      0.667      -0.193 au  C             1.00      1 P:z             1
                        (      -5.239 eV)
    13      13       --         0.169 au  C             1.00      2 P:z             1
                        (       4.589 eV)
    14      14       --         2.013 au  C             1.00      3 P:z             1
                        (      54.789 eV)
    15      15       --         1.243 au  C             1.00      1 D:z2            1
                        (      33.824 eV)
    16      16       --         1.243 au  C             1.00      1 D:x2-y2         1
                        (      33.824 eV)
    17      17       --         1.243 au  C             1.00      1 D:xy            1
                        (      33.824 eV)
    18      18       --         1.243 au  C             1.00      1 D:xz            1
                        (      33.824 eV)
    19      19       --         1.243 au  C             1.00      1 D:yz            1
                        (      33.824 eV)
    20      20       --         4.016 au  C             1.00      1 F:z3            1
                        (     109.271 eV)
    21      21       --         4.016 au  C             1.00      1 F:z             1
                        (     109.271 eV)
    22      22       --         4.016 au  C             1.00      1 F:xyz           1
                        (     109.271 eV)
    23      23       --         4.016 au  C             1.00      1 F:z2x           1
                        (     109.271 eV)
    24      24       --         4.016 au  C             1.00      1 F:z2y           1
                        (     109.271 eV)
    25      25       --         4.016 au  C             1.00      1 F:x             1
                        (     109.271 eV)
    26      26       --         4.016 au  C             1.00      1 F:y             1
                        (     109.271 eV)
    27      27      2.000     -10.066 au  C             1.00      1 S               2
                        (    -273.921 eV)
    28      28      2.000      -0.501 au  C             1.00      2 S               2
                        (     -13.620 eV)
    29      29       --         0.373 au  C             1.00      3 S               2
                        (      10.158 eV)
    30      30       --         5.405 au  C             1.00      4 S               2
                        (     147.073 eV)
    31      31       --        49.848 au  C             1.00      5 S               2
                        (    1356.422 eV)
    32      32      0.667      -0.193 au  C             1.00      1 P:x             2
                        (      -5.239 eV)
    33      33       --         0.169 au  C             1.00      2 P:x             2
                        (       4.589 eV)
    34      34       --         2.013 au  C             1.00      3 P:x             2
                        (      54.789 eV)
    35      35      0.667      -0.193 au  C             1.00      1 P:y             2
                        (      -5.239 eV)
    36      36       --         0.169 au  C             1.00      2 P:y             2
                        (       4.589 eV)
    37      37       --         2.013 au  C             1.00      3 P:y             2
                        (      54.789 eV)
    38      38      0.667      -0.193 au  C             1.00      1 P:z             2
                        (      -5.239 eV)
    39      39       --         0.169 au  C             1.00      2 P:z             2
                        (       4.589 eV)
    40      40       --         2.013 au  C             1.00      3 P:z             2
                        (      54.789 eV)
    41      41       --         1.243 au  C             1.00      1 D:z2            2
                        (      33.824 eV)
    42      42       --         1.243 au  C             1.00      1 D:x2-y2         2
                        (      33.824 eV)
    43      43       --         1.243 au  C             1.00      1 D:xy            2
                        (      33.824 eV)
    44      44       --         1.243 au  C             1.00      1 D:xz            2
                        (      33.824 eV)
    45      45       --         1.243 au  C             1.00      1 D:yz            2
                        (      33.824 eV)
    46      46       --         4.016 au  C             1.00      1 F:z3            2
                        (     109.271 eV)
    47      47       --         4.016 au  C             1.00      1 F:z             2
                        (     109.271 eV)
    48      48       --         4.016 au  C             1.00      1 F:xyz           2
                        (     109.271 eV)
    49      49       --         4.016 au  C             1.00      1 F:z2x           2
                        (     109.271 eV)
    50      50       --         4.016 au  C             1.00      1 F:z2y           2
                        (     109.271 eV)
    51      51       --         4.016 au  C             1.00      1 F:x             2
                        (     109.271 eV)
    52      52       --         4.016 au  C             1.00      1 F:y             2
                        (     109.271 eV)
    53      53      2.000     -10.066 au  C             1.00      1 S               3
                        (    -273.921 eV)
    54      54      2.000      -0.501 au  C             1.00      2 S               3
                        (     -13.620 eV)
    55      55       --         0.373 au  C             1.00      3 S               3
                        (      10.158 eV)
    56      56       --         5.405 au  C             1.00      4 S               3
                        (     147.073 eV)
    57      57       --        49.848 au  C             1.00      5 S               3
                        (    1356.422 eV)
    58      58      0.667      -0.193 au  C             1.00      1 P:x             3
                        (      -5.239 eV)
    59      59       --         0.169 au  C             1.00      2 P:x             3
                        (       4.589 eV)
    60      60       --         2.013 au  C             1.00      3 P:x             3
                        (      54.789 eV)
    61      61      0.667      -0.193 au  C             1.00      1 P:y             3
                        (      -5.239 eV)
    62      62       --         0.169 au  C             1.00      2 P:y             3
                        (       4.589 eV)
    63      63       --         2.013 au  C             1.00      3 P:y             3
                        (      54.789 eV)
    64      64      0.667      -0.193 au  C             1.00      1 P:z             3
                        (      -5.239 eV)
    65      65       --         0.169 au  C             1.00      2 P:z             3
                        (       4.589 eV)
    66      66       --         2.013 au  C             1.00      3 P:z             3
                        (      54.789 eV)
    67      67       --         1.243 au  C             1.00      1 D:z2            3
                        (      33.824 eV)
    68      68       --         1.243 au  C             1.00      1 D:x2-y2         3
                        (      33.824 eV)
    69      69       --         1.243 au  C             1.00      1 D:xy            3
                        (      33.824 eV)
    70      70       --         1.243 au  C             1.00      1 D:xz            3
                        (      33.824 eV)
    71      71       --         1.243 au  C             1.00      1 D:yz            3
                        (      33.824 eV)
    72      72       --         4.016 au  C             1.00      1 F:z3            3
                        (     109.271 eV)
    73      73       --         4.016 au  C             1.00      1 F:z             3
                        (     109.271 eV)
    74      74       --         4.016 au  C             1.00      1 F:xyz           3
                        (     109.271 eV)
    75      75       --         4.016 au  C             1.00      1 F:z2x           3
                        (     109.271 eV)
    76      76       --         4.016 au  C             1.00      1 F:z2y           3
                        (     109.271 eV)
    77      77       --         4.016 au  C             1.00      1 F:x             3
                        (     109.271 eV)
    78      78       --         4.016 au  C             1.00      1 F:y             3
                        (     109.271 eV)
    79      79      2.000     -10.066 au  C             1.00      1 S               4
                        (    -273.921 eV)
    80      80      2.000      -0.501 au  C             1.00      2 S               4
                        (     -13.620 eV)
    81      81       --         0.373 au  C             1.00      3 S               4
                        (      10.158 eV)
    82      82       --         5.405 au  C             1.00      4 S               4
                        (     147.073 eV)
    83      83       --        49.848 au  C             1.00      5 S               4
                        (    1356.422 eV)
    84      84      0.667      -0.193 au  C             1.00      1 P:x             4
                        (      -5.239 eV)
    85      85       --         0.169 au  C             1.00      2 P:x             4
                        (       4.589 eV)
    86      86       --         2.013 au  C             1.00      3 P:x             4
                        (      54.789 eV)
    87      87      0.667      -0.193 au  C             1.00      1 P:y             4
                        (      -5.239 eV)
    88      88       --         0.169 au  C             1.00      2 P:y             4
                        (       4.589 eV)
    89      89       --         2.013 au  C             1.00      3 P:y             4
                        (      54.789 eV)
    90      90      0.667      -0.193 au  C             1.00      1 P:z             4
                        (      -5.239 eV)
    91      91       --         0.169 au  C             1.00      2 P:z             4
                        (       4.589 eV)
    92      92       --         2.013 au  C             1.00      3 P:z             4
                        (      54.789 eV)
    93      93       --         1.243 au  C             1.00      1 D:z2            4
                        (      33.824 eV)
    94      94       --         1.243 au  C             1.00      1 D:x2-y2         4
                        (      33.824 eV)
    95      95       --         1.243 au  C             1.00      1 D:xy            4
                        (      33.824 eV)
    96      96       --         1.243 au  C             1.00      1 D:xz            4
                        (      33.824 eV)
    97      97       --         1.243 au  C             1.00      1 D:yz            4
                        (      33.824 eV)
    98      98       --         4.016 au  C             1.00      1 F:z3            4
                        (     109.271 eV)
    99      99       --         4.016 au  C             1.00      1 F:z             4
                        (     109.271 eV)
   100     100       --         4.016 au  C             1.00      1 F:xyz           4
                        (     109.271 eV)
   101     101       --         4.016 au  C             1.00      1 F:z2x           4
                        (     109.271 eV)
   102     102       --         4.016 au  C             1.00      1 F:z2y           4
                        (     109.271 eV)
   103     103       --         4.016 au  C             1.00      1 F:x             4
                        (     109.271 eV)
   104     104       --         4.016 au  C             1.00      1 F:y             4
                        (     109.271 eV)
   105     105      2.000     -10.066 au  C             1.00      1 S               5
                        (    -273.921 eV)
   106     106      2.000      -0.501 au  C             1.00      2 S               5
                        (     -13.620 eV)
   107     107       --         0.373 au  C             1.00      3 S               5
                        (      10.158 eV)
   108     108       --         5.405 au  C             1.00      4 S               5
                        (     147.073 eV)
   109     109       --        49.848 au  C             1.00      5 S               5
                        (    1356.422 eV)
   110     110      0.667      -0.193 au  C             1.00      1 P:x             5
                        (      -5.239 eV)
   111     111       --         0.169 au  C             1.00      2 P:x             5
                        (       4.589 eV)
   112     112       --         2.013 au  C             1.00      3 P:x             5
                        (      54.789 eV)
   113     113      0.667      -0.193 au  C             1.00      1 P:y             5
                        (      -5.239 eV)
   114     114       --         0.169 au  C             1.00      2 P:y             5
                        (       4.589 eV)
   115     115       --         2.013 au  C             1.00      3 P:y             5
                        (      54.789 eV)
   116     116      0.667      -0.193 au  C             1.00      1 P:z             5
                        (      -5.239 eV)
   117     117       --         0.169 au  C             1.00      2 P:z             5
                        (       4.589 eV)
   118     118       --         2.013 au  C             1.00      3 P:z             5
                        (      54.789 eV)
   119     119       --         1.243 au  C             1.00      1 D:z2            5
                        (      33.824 eV)
   120     120       --         1.243 au  C             1.00      1 D:x2-y2         5
                        (      33.824 eV)
   121     121       --         1.243 au  C             1.00      1 D:xy            5
                        (      33.824 eV)
   122     122       --         1.243 au  C             1.00      1 D:xz            5
                        (      33.824 eV)
   123     123       --         1.243 au  C             1.00      1 D:yz            5
                        (      33.824 eV)
   124     124       --         4.016 au  C             1.00      1 F:z3            5
                        (     109.271 eV)
   125     125       --         4.016 au  C             1.00      1 F:z             5
                        (     109.271 eV)
   126     126       --         4.016 au  C             1.00      1 F:xyz           5
                        (     109.271 eV)
   127     127       --         4.016 au  C             1.00      1 F:z2x           5
                        (     109.271 eV)
   128     128       --         4.016 au  C             1.00      1 F:z2y           5
                        (     109.271 eV)
   129     129       --         4.016 au  C             1.00      1 F:x             5
                        (     109.271 eV)
   130     130       --         4.016 au  C             1.00      1 F:y             5
                        (     109.271 eV)
   131     131      2.000     -10.066 au  C             1.00      1 S               6
                        (    -273.921 eV)
   132     132      2.000      -0.501 au  C             1.00      2 S               6
                        (     -13.620 eV)
   133     133       --         0.373 au  C             1.00      3 S               6
                        (      10.158 eV)
   134     134       --         5.405 au  C             1.00      4 S               6
                        (     147.073 eV)
   135     135       --        49.848 au  C             1.00      5 S               6
                        (    1356.422 eV)
   136     136      0.667      -0.193 au  C             1.00      1 P:x             6
                        (      -5.239 eV)
   137     137       --         0.169 au  C             1.00      2 P:x             6
                        (       4.589 eV)
   138     138       --         2.013 au  C             1.00      3 P:x             6
                        (      54.789 eV)
   139     139      0.667      -0.193 au  C             1.00      1 P:y             6
                        (      -5.239 eV)
   140     140       --         0.169 au  C             1.00      2 P:y             6
                        (       4.589 eV)
   141     141       --         2.013 au  C             1.00      3 P:y             6
                        (      54.789 eV)
   142     142      0.667      -0.193 au  C             1.00      1 P:z             6
                        (      -5.239 eV)
   143     143       --         0.169 au  C             1.00      2 P:z             6
                        (       4.589 eV)
   144     144       --         2.013 au  C             1.00      3 P:z             6
                        (      54.789 eV)
   145     145       --         1.243 au  C             1.00      1 D:z2            6
                        (      33.824 eV)
   146     146       --         1.243 au  C             1.00      1 D:x2-y2         6
                        (      33.824 eV)
   147     147       --         1.243 au  C             1.00      1 D:xy            6
                        (      33.824 eV)
   148     148       --         1.243 au  C             1.00      1 D:xz            6
                        (      33.824 eV)
   149     149       --         1.243 au  C             1.00      1 D:yz            6
                        (      33.824 eV)
   150     150       --         4.016 au  C             1.00      1 F:z3            6
                        (     109.271 eV)
   151     151       --         4.016 au  C             1.00      1 F:z             6
                        (     109.271 eV)
   152     152       --         4.016 au  C             1.00      1 F:xyz           6
                        (     109.271 eV)
   153     153       --         4.016 au  C             1.00      1 F:z2x           6
                        (     109.271 eV)
   154     154       --         4.016 au  C             1.00      1 F:z2y           6
                        (     109.271 eV)
   155     155       --         4.016 au  C             1.00      1 F:x             6
                        (     109.271 eV)
   156     156       --         4.016 au  C             1.00      1 F:y             6
                        (     109.271 eV)
   157     157      2.000     -10.066 au  C             1.00      1 S               7
                        (    -273.921 eV)
   158     158      2.000      -0.501 au  C             1.00      2 S               7
                        (     -13.620 eV)
   159     159       --         0.373 au  C             1.00      3 S               7
                        (      10.158 eV)
   160     160       --         5.405 au  C             1.00      4 S               7
                        (     147.073 eV)
   161     161       --        49.848 au  C             1.00      5 S               7
                        (    1356.422 eV)
   162     162      0.667      -0.193 au  C             1.00      1 P:x             7
                        (      -5.239 eV)
   163     163       --         0.169 au  C             1.00      2 P:x             7
                        (       4.589 eV)
   164     164       --         2.013 au  C             1.00      3 P:x             7
                        (      54.789 eV)
   165     165      0.667      -0.193 au  C             1.00      1 P:y             7
                        (      -5.239 eV)
   166     166       --         0.169 au  C             1.00      2 P:y             7
                        (       4.589 eV)
   167     167       --         2.013 au  C             1.00      3 P:y             7
                        (      54.789 eV)
   168     168      0.667      -0.193 au  C             1.00      1 P:z             7
                        (      -5.239 eV)
   169     169       --         0.169 au  C             1.00      2 P:z             7
                        (       4.589 eV)
   170     170       --         2.013 au  C             1.00      3 P:z             7
                        (      54.789 eV)
   171     171       --         1.243 au  C             1.00      1 D:z2            7
                        (      33.824 eV)
   172     172       --         1.243 au  C             1.00      1 D:x2-y2         7
                        (      33.824 eV)
   173     173       --         1.243 au  C             1.00      1 D:xy            7
                        (      33.824 eV)
   174     174       --         1.243 au  C             1.00      1 D:xz            7
                        (      33.824 eV)
   175     175       --         1.243 au  C             1.00      1 D:yz            7
                        (      33.824 eV)
   176     176       --         4.016 au  C             1.00      1 F:z3            7
                        (     109.271 eV)
   177     177       --         4.016 au  C             1.00      1 F:z             7
                        (     109.271 eV)
   178     178       --         4.016 au  C             1.00      1 F:xyz           7
                        (     109.271 eV)
   179     179       --         4.016 au  C             1.00      1 F:z2x           7
                        (     109.271 eV)
   180     180       --         4.016 au  C             1.00      1 F:z2y           7
                        (     109.271 eV)
   181     181       --         4.016 au  C             1.00      1 F:x             7
                        (     109.271 eV)
   182     182       --         4.016 au  C             1.00      1 F:y             7
                        (     109.271 eV)
   183     183      2.000     -10.066 au  C             1.00      1 S               8
                        (    -273.921 eV)
   184     184      2.000      -0.501 au  C             1.00      2 S               8
                        (     -13.620 eV)
   185     185       --         0.373 au  C             1.00      3 S               8
                        (      10.158 eV)
   186     186       --         5.405 au  C             1.00      4 S               8
                        (     147.073 eV)
   187     187       --        49.848 au  C             1.00      5 S               8
                        (    1356.422 eV)
   188     188      0.667      -0.193 au  C             1.00      1 P:x             8
                        (      -5.239 eV)
   189     189       --         0.169 au  C             1.00      2 P:x             8
                        (       4.589 eV)
   190     190       --         2.013 au  C             1.00      3 P:x             8
                        (      54.789 eV)
   191     191      0.667      -0.193 au  C             1.00      1 P:y             8
                        (      -5.239 eV)
   192     192       --         0.169 au  C             1.00      2 P:y             8
                        (       4.589 eV)
   193     193       --         2.013 au  C             1.00      3 P:y             8
                        (      54.789 eV)
   194     194      0.667      -0.193 au  C             1.00      1 P:z             8
                        (      -5.239 eV)
   195     195       --         0.169 au  C             1.00      2 P:z             8
                        (       4.589 eV)
   196     196       --         2.013 au  C             1.00      3 P:z             8
                        (      54.789 eV)
   197     197       --         1.243 au  C             1.00      1 D:z2            8
                        (      33.824 eV)
   198     198       --         1.243 au  C             1.00      1 D:x2-y2         8
                        (      33.824 eV)
   199     199       --         1.243 au  C             1.00      1 D:xy            8
                        (      33.824 eV)
   200     200       --         1.243 au  C             1.00      1 D:xz            8
                        (      33.824 eV)
   201     201       --         1.243 au  C             1.00      1 D:yz            8
                        (      33.824 eV)
   202     202       --         4.016 au  C             1.00      1 F:z3            8
                        (     109.271 eV)
   203     203       --         4.016 au  C             1.00      1 F:z             8
                        (     109.271 eV)
   204     204       --         4.016 au  C             1.00      1 F:xyz           8
                        (     109.271 eV)
   205     205       --         4.016 au  C             1.00      1 F:z2x           8
                        (     109.271 eV)
   206     206       --         4.016 au  C             1.00      1 F:z2y           8
                        (     109.271 eV)
   207     207       --         4.016 au  C             1.00      1 F:x             8
                        (     109.271 eV)
   208     208       --         4.016 au  C             1.00      1 F:y             8
                        (     109.271 eV)
   209     209      2.000     -18.941 au  O             1.00      1 S               9
                        (    -515.403 eV)
   210     210      2.000      -0.876 au  O             1.00      2 S               9
                        (     -23.838 eV)
   211     211       --         0.791 au  O             1.00      3 S               9
                        (      21.524 eV)
   212     212       --        13.422 au  O             1.00      4 S               9
[...]
                                   11.77%     1 S              -6.532  1.00    13 H
                                   10.31%     2 S               2.394  0.00    14 H
                                   10.11%     2 S               2.394  0.00    13 H
                                   -9.99%     2 P:x             4.589  0.00     8 C
                                   -9.36%     2 P:y             4.589  0.00     1 C
                                   -8.59%     2 P:x             4.589  0.00     2 C
                                   -7.35%     2 P:y             4.589  0.00     3 C
                                    5.43%     1 P:x            -5.239  0.67     3 C
                                    5.01%     1 P:y            -5.239  0.67     2 C
                                   -3.23%     3 S              10.158  0.00     1 C
                                   -3.21%     3 S              10.158  0.00     8 C
                                   -2.08%     1 P:x            -5.239  0.67     2 C
                                    1.89%     2 P:x             4.589  0.00     3 C
                                   -1.84%     2 P:z             4.589  0.00     3 C
                                   -1.50%     3 S              10.158  0.00     2 C
                                   -1.49%     3 S              10.158  0.00     3 C
                                    1.40%     2 P:y             4.589  0.00     2 C
                                    1.36%     2 S             -13.620  2.00     1 C
                                    1.35%     2 S             -13.620  2.00     8 C
                                    1.23%     1 P:y            -5.239  0.67     8 C
                                   -1.17%     1 P:y            -5.239  0.67     3 C
                                   -1.05%     1 P:x            -5.239  0.67     8 C
                                   -1.03%     3 S              21.524  0.00     9 O
       0.440  0.00    46 A         20.86%     1 P:z            -5.239  0.67     2 C
                                   13.00%     1 P:z            -5.239  0.67     3 C
                                   12.86%     1 P:x            -5.239  0.67     3 C
                                   -6.23%     3 S              21.524  0.00     9 O
                                    5.31%     2 P:z             4.589  0.00     2 C
                                    5.03%     2 S             -23.838  2.00     9 O
                                    4.64%     1 P:y            -5.239  0.67     2 C
                                    4.31%     2 P:z             4.589  0.00     6 C
                                    3.49%     2 P:z             4.589  0.00     3 C
                                    3.07%     1 P:x            -5.239  0.67     5 C
                                    2.44%     1 P:y            -5.239  0.67     7 C
                                    2.31%     1 P:x            -9.020  1.33     9 O
                                    2.16%     2 P:z             4.589  0.00     4 C
                                    2.16%     1 P:z            -9.020  1.33     9 O
                                    2.08%     1 P:x            11.051  0.00    14 H
                                    2.01%     1 P:z            11.051  0.00    13 H
                                    1.96%     1 P:z            -5.239  0.67     4 C
                                    1.94%     1 P:z            -5.239  0.67     6 C
                                    1.76%     2 P:x             4.589  0.00     3 C
                                    1.42%     2 P:y             4.589  0.00     4 C
                                   -1.34%     2 P:y             4.589  0.00     6 C
                                    1.30%     1 S              -6.532  1.00    15 H
                                    1.27%     1 S              -6.532  1.00    12 H
                                   -1.17%     3 S              10.158  0.00     5 C
                                    1.17%     2 P:y             4.589  0.00     8 C
                                   -1.16%     3 S              10.158  0.00     7 C
                                    1.15%     1 P:y            11.051  0.00    13 H
                                    1.14%     1 P:y            -5.239  0.67     4 C
                                    1.12%     2 P:x             4.589  0.00     5 C
                                   -1.08%     2 P:x             4.589  0.00     2 C
                                    1.07%     2 P:y             4.589  0.00     7 C
                                    1.04%     1 S              -6.532  1.00    13 H
                                    1.01%     1 P:y            -5.239  0.67     6 C
       0.790  0.00    47 A         31.12%     1 S              -6.532  1.00    12 H
                                   31.12%     1 S              -6.532  1.00    15 H
                                  -21.61%     2 P:x             4.589  0.00     8 C
                                  -21.37%     2 P:y             4.589  0.00     1 C
                                   18.02%     1 S              -6.532  1.00    13 H
                                   17.96%     1 S              -6.532  1.00    14 H
                                   14.88%     2 S               2.394  0.00    12 H
                                   14.85%     2 S               2.394  0.00    15 H
                                  -11.24%     2 P:x             4.589  0.00     2 C
                                  -10.33%     2 P:y             4.589  0.00     3 C
                                   10.24%     2 S               2.394  0.00    13 H
                                   10.21%     2 S               2.394  0.00    14 H
                                    6.43%     1 P:y            -5.239  0.67     2 C
                                    5.89%     1 P:x            -5.239  0.67     3 C
                                   -3.06%     1 P:x            -5.239  0.67     2 C
                                   -2.76%     1 P:y            -5.239  0.67     3 C
                                   -2.66%     2 P:z             4.589  0.00     3 C
                                    2.29%     2 S             -13.620  2.00     1 C
                                    2.29%     2 S             -13.620  2.00     8 C
                                   -2.28%     1 P:x            -5.239  0.67     8 C
                                   -2.15%     1 P:y            -5.239  0.67     1 C
                                    1.95%     3 S              40.869  0.00    15 H
                                    1.95%     3 S              40.869  0.00    12 H
                                    1.77%     2 P:y             4.589  0.00     4 C
                                   -1.46%     2 P:y             4.589  0.00     2 C
                                    1.16%     2 P:x             4.589  0.00     6 C

 Energy gradients wrt nuclear displacements
 ==========================================

     Atom      Cartesian (a.u./angstrom)
                 X         Y         Z
 ----------------------------------------
     1 C    -0.000107 -0.000055  0.000089
     2 C     0.000021 -0.000034 -0.000015
     3 O    -0.000006 -0.000108 -0.000036
     4 C    -0.000012 -0.000008 -0.000051
     5 C     0.000047 -0.000005 -0.000019
     6 C     0.000058  0.000098 -0.000107
     7 N     0.000093  0.000113 -0.000120
     8 C    -0.000001  0.000077  0.000026
     9 C     0.000033  0.000024 -0.000021
    10 N     0.000036  0.000132  0.000002
    11 C    -0.000034 -0.000055  0.000060
    12 H    -0.000055 -0.000025  0.000143
    13 H    -0.000046 -0.000075  0.000040
    14 H     0.000012 -0.000070 -0.000065
    15 H    -0.000041 -0.000010  0.000072
 ----------------------------------------



 =======================================================================
 Electrostatic potential at the Nuclei due to electrons and other nuclei
 =======================================================================
  
         Atom                  Potential
         ----                  ---------
     1)   C                  14.74506983
     2)   C                  14.67203068
     3)   O                  22.35359932
     4)   C                  14.67198648
     5)   C                  14.69803508
     6)   C                  14.73552715
     7)   N                  18.41027128
     8)   C                  14.69819741
     9)   C                  14.73534666
    10)   N                  18.40996436
    11)   C                  14.74502079
    12)   H                   1.05189055
    13)   H                   1.05371427
    14)   H                   1.05377767
    15)   H                   1.05184730
 Mulliken charges used for AMS results%charges...


    =====================
     CALCULATION RESULTS
    =====================

Energy (hartree)            -3.71065194

Gradients (hartree/bohr)
  Index   Atom            d/dx            d/dy            d/dz
      1      C   -0.0000564005   -0.0000289822    0.0000472513
      2      C    0.0000112243   -0.0000180278   -0.0000081129
      3      O   -0.0000032629   -0.0000572965   -0.0000190428
      4      C   -0.0000061873   -0.0000043559   -0.0000268827
      5      C    0.0000249332   -0.0000024723   -0.0000100698
      6      C    0.0000304870    0.0000517248   -0.0000565966
      7      N    0.0000492914    0.0000599658   -0.0000632768
      8      C   -0.0000003797    0.0000404999    0.0000138241
      9      C    0.0000174875    0.0000127164   -0.0000111507
     10      N    0.0000190212    0.0000700941    0.0000011081
     11      C   -0.0000180359   -0.0000290966    0.0000320088
     12      H   -0.0000288865   -0.0000130500    0.0000758817
     13      H   -0.0000241067   -0.0000395772    0.0000214026
     14      H    0.0000062535   -0.0000367832   -0.0000342307
     15      H   -0.0000214385   -0.0000053593    0.0000378862


--------------
Atomic charges
--------------
  Index   Atom    Charge
      1      C    0.2380
      2      C    0.4834
      3      O   -0.5197
      4      C    0.4814
      5      C    0.0147
      6      C    0.1263
      7      N   -0.2378
      8      C    0.0154
      9      C    0.1264
     10      N   -0.2379
     11      C    0.2378
     12      H   -0.1987
     13      H   -0.1662
     14      H   -0.1648
     15      H   -0.1984


Dipole moment vector    (Debye):    -1.52736390   -2.74476316   -4.18872278
              magnitude (Debye):     5.23564359


-----------------------
Molecular orbitals info
-----------------------
n orbitals:              330
n spin:                    1

Note: only printing virtual orbitals with
      energy smaller than HOMO + 100. eV

HOMO (eV):              -6.5957
LUMO (eV):              -4.0478
HOMO-LUMO gap (eV):      2.5479

   Index   Energy (eV)    Occupation
     203       93.2923         0.000       
     202       92.7074         0.000       
     201       91.7956         0.000       
     200       91.0666         0.000       
     199       90.9685         0.000       
     198       89.3238         0.000       
     197       89.1330         0.000       
     196       88.7186         0.000       
     195       87.3426         0.000       
     194       86.9870         0.000       
     193       85.9009         0.000       
     192       84.9443         0.000       
     191       83.5389         0.000       
     190       82.8104         0.000       
     189       81.7630         0.000       
     188       81.5788         0.000       
     187       79.6687         0.000       
     186       78.9865         0.000       
     185       78.9705         0.000       
     184       76.9755         0.000       
     183       76.9227         0.000       
     182       76.1343         0.000       
     181       76.1171         0.000       
     180       74.4178         0.000       
     179       74.1865         0.000       
     178       74.1708         0.000       
     177       73.0844         0.000       
     176       71.5116         0.000       
     175       71.0183         0.000       
     174       69.9274         0.000       
     173       67.9244         0.000       
     172       67.6546         0.000       
     171       67.0366         0.000       
     170       65.6233         0.000       
     169       64.5931         0.000       
     168       64.1516         0.000       
     167       63.4336         0.000       
     166       62.6565         0.000       
     165       61.6119         0.000       
     164       61.4232         0.000       
     163       60.5892         0.000       
     162       60.3249         0.000       
     161       59.5158         0.000       
     160       59.4474         0.000       
     159       58.7748         0.000       
     158       58.4874         0.000       
     157       57.5339         0.000       
     156       57.1245         0.000       
     155       56.2497         0.000       
     154       54.5110         0.000       
     153       54.1616         0.000       
     152       54.0202         0.000       
     151       53.0137         0.000       
     150       52.6888         0.000       
     149       52.3757         0.000       
     148       50.4456         0.000       
     147       49.0947         0.000       
     146       48.8619         0.000       
     145       47.1395         0.000       
     144       46.6132         0.000       
     143       46.4116         0.000       
     142       45.8524         0.000       
     141       44.8132         0.000       
     140       44.1515         0.000       
     139       44.0679         0.000       
     138       43.5279         0.000       
     137       43.0987         0.000       
     136       41.9502         0.000       
     135       41.9055         0.000       
     134       41.6447         0.000       
     133       41.5473         0.000       
     132       41.0012         0.000       
     131       39.6071         0.000       
     130       38.9620         0.000       
     129       38.6815         0.000       
     128       38.2993         0.000       
     127       37.7756         0.000       
     126       36.7157         0.000       
     125       36.5875         0.000       
     124       35.7200         0.000       
     123       35.6461         0.000       
     122       34.3408         0.000       
     121       34.2170         0.000       
     120       34.1180         0.000       
     119       33.7322         0.000       
     118       32.6325         0.000       
     117       32.0790         0.000       
     116       30.8326         0.000       
     115       30.6278         0.000       
     114       29.5631         0.000       
     113       29.4920         0.000       
     112       29.2526         0.000       
     111       28.6964         0.000       
     110       28.4003         0.000       
     109       27.8955         0.000       
     108       27.4316         0.000       
     107       27.1509         0.000       
     106       26.4701         0.000       
     105       26.2201         0.000       
     104       26.1183         0.000       
     103       24.8908         0.000       
     102       23.9888         0.000       
     101       23.8992         0.000       
     100       23.4479         0.000       
      99       22.9024         0.000       
      98       22.7574         0.000       
      97       21.3326         0.000       
      96       20.8834         0.000       
      95       20.1112         0.000       
      94       20.0905         0.000       
      93       18.8265         0.000       
      92       18.5442         0.000       
      91       17.7215         0.000       
      90       17.5182         0.000       
      89       16.9745         0.000       
      88       16.0523         0.000       
      87       15.8285         0.000       
      86       15.5861         0.000       
      85       14.3443         0.000       
      84       14.2310         0.000       
      83       13.8017         0.000       
      82       13.7544         0.000       
      81       12.1952         0.000       
      80       11.7594         0.000       
      79       11.4779         0.000       
      78       11.2693         0.000       
      77       10.4903         0.000       
      76       10.1879         0.000       
      75       10.0143         0.000       
      74        9.4309         0.000       
      73        9.1659         0.000       
      72        8.6036         0.000       
      71        8.4723         0.000       
      70        8.0644         0.000       
      69        7.8690         0.000       
      68        7.6179         0.000       
      67        7.0531         0.000       
      66        6.7163         0.000       
      65        6.4373         0.000       
      64        6.1886         0.000       
      63        5.7338         0.000       
      62        5.6221         0.000       
      61        5.1460         0.000       
      60        4.9838         0.000       
      59        4.8960         0.000       
      58        4.7576         0.000       
      57        4.2717         0.000       
      56        3.9840         0.000       
      55        3.7727         0.000       
      54        3.2476         0.000       
      53        2.7754         0.000       
      52        2.7158         0.000       
      51        2.3295         0.000       
      50        1.9738         0.000       
      49        1.6994         0.000       
      48        1.5837         0.000       
      47        0.7904         0.000       
      46        0.4395         0.000       
      45        0.3070         0.000       
      44        0.0751         0.000       
      43       -0.0215         0.000       
      42       -0.6191         0.000       
      41       -1.1270         0.000       
      40       -1.3037         0.000       
      39       -2.0694         0.000       
      38       -4.0478         0.000 < LUMO
      37       -6.5957         2.000 < HOMO
      36       -7.4765         2.000       
      35       -7.6216         2.000       
      34       -8.8358         2.000       
      33       -8.9845         2.000       
      32       -9.2004         2.000       
      31       -9.2797         2.000       
      30       -9.3203         2.000       
      29       -9.5625         2.000       
      28      -10.0196         2.000       
      27      -10.7119         2.000       
      26      -10.7809         2.000       
      25      -11.1678         2.000       
      24      -11.8730         2.000       
      23      -12.4071         2.000       
      22      -13.6358         2.000       
      21      -14.6985         2.000       
      20      -15.3386         2.000       
      19      -16.3341         2.000       
      18      -17.2465         2.000       
      17      -19.6174         2.000       
      16      -20.3506         2.000       
      15      -21.6534         2.000       
      14      -23.0770         2.000       
      13      -23.2345         2.000       
      12      -27.4491         2.000       
      11     -271.2564         2.000       
      10     -271.2746         2.000       
       9     -271.7757         2.000       
       8     -271.7804         2.000       
       7     -272.4746         2.000       
       6     -272.4898         2.000       
       5     -273.1050         2.000       
       4     -273.1053         2.000       
       3     -382.3134         2.000       
       2     -382.3200         2.000       
       1     -512.7589         2.000       

AMS application finished. Exiting.
NORMAL TERMINATION
     Total cpu time:     530.28
  Total system time:       2.00
 Total elapsed time:     535.27
NORMAL TERMINATION
