
 *******************************************************************************
 *                                                                             *
 *  --------------------------------                                           *
 *   Amsterdam Modeling Suite (AMS)              2026.103                      *
 *  --------------------------------                                           *
 *                                               r260501 2026-05-01 873454b5   *
 *                                                                             *
 *                                                                             *
 *                              =================                              *
 *                              |               |                              *
 *                              |     A M S     |                              *
 *                              |               |                              *
 *                              =================                              *
 *                                                                             *
 *                                                                             *
 *   Online information and documentation:  https://www.scm.com/support/       *
 *   E-mail:  support@scm.com   info@scm.com                                   *
 *                                                                             *
 *   Scientific publications using AMS results must be properly referenced     *
 *   See the User Manuals (or the web site) for recommended citations          *
 *   The terms and conditions of the End User License Agreement apply to       *
 *   the use of AMS, https://www.scm.com/license-terms/                        *
 *                                                                             *
 **********************  x86_64_linux_intel / intelmpi  ************************
 
 Licensed to: Jong-June Jeon / University of Seoul 2026-05-13 16:10:32
 SCM User ID: u30731
  
 AMS 2026.103  RunTime: May23-2026 12:28:45  ShM Nodes: 1  Procs: 1

 AMS jobname: optA
 AMS jobid  : 973058126

 Start   directory: /gpfs/tmp_cpu2/yeseo1ee_plams/br_batch/plams_br/optA/
 Results directory: /gpfs/tmp_cpu2/yeseo1ee_plams/br_batch/plams_br/optA/
 Scratch directory: /tmp/amstmp_optA_kid0.973058126/

 RNG seed: 699531937 -1208885810 141687451 -390241403 -1196612950 -1595736842 -502388906 1950478769



                      ************************************************************************
                      *  ADF 2026.103  RunTime: May23-2026 12:28:45  ShM Nodes: 1  Procs: 1  *
                      ************************************************************************
  

       ***************************
       *  GEOMETRY OPTIMIZATION  *
       ***************************

Optimization Method                    Quasi Newton
Optimization Coordinates               Delocalized Coordinates
Optimize lattice                       F
 
 ------------------------------------------------------
 Convergence criteria (Hartree,Angstrom)
 ------------------------------------------------------
 Maximum gradient               0.001000000000
 Maximum rms gradient           0.000666666667
 Maximum step allowed           0.010000000000
 Maximum rms step allowed       0.006666666667
 Maximum energy change allowe   0.000060000000
 Maximum stress energy allowe   0.000500000000
 
Initial model Hessian                  Automatic Hessian
 
------------------------------------
Quasi-Newton Optimizer Parameters
------------------------------------
Hessian Update Method                  BFGS
Maximum number of steps                  250
First GDIIS cycle                          0
Maximum GDIIS vectors                      0
Trust radius (bohr)                        0.200000
Trust radius varies                        T
Constraints converged at all steps         T
Use projector                              T
 
 Rigid motions settings for: old optimizer
 Atomic rotations (x,y,z):     T T T
 Atomic translations (x,y,z):  T T T
 Tolerance:                  1.000000000000000E-006

--------
Geometry
--------
Formula: C2H2BrO
Atoms
  Index Symbol   x (angstrom)   y (angstrom)   z (angstrom)
      1      C     1.11364726     1.19712480    -0.18577762
      2      C     1.45096284    -0.09612894     0.07992138
      3     Br     2.11582772    -0.45458725     1.88852125
      4      O     1.12666246    -1.09419307    -0.59875815
      5      H     0.86125042     1.44149500    -1.20671455
      6      H     1.42425103     1.99403816     0.47191939

Total System Charge              0.00000


----------------
ADF Engine Input
----------------
 
   basis
     core None
     type TZ2P
   End
   numericalquality Good
   relativity
     level Scalar
   End
   scf
     mixing 0.05
   End
   spinpolarization 1
   symmetry NOSYM
   unrestricted yes
   xc
     dispersion Grimme3 BJDAMP
     gga BLYP
   End
 

 Title: *** (NO TITLE) ***

 Using automatic Hessian for delocalized coordinates.
 *** GO1_GOStep1 ***

 Energy gradients wrt nuclear displacements
 ==========================================

     Atom      Cartesian (a.u./angstrom)
                 X         Y         Z
 ----------------------------------------
     1 C    -0.026213 -0.082019  0.024638
     2 C     0.048069  0.142821  0.017708
     3 Br   -0.019488 -0.003723 -0.029273
     4 O    -0.026769 -0.047693 -0.012002
     5 H     0.016011 -0.002179  0.008015
     6 H     0.008389 -0.007207 -0.009086
 ----------------------------------------
 
----------------------------------------------------------------------
Geometry Convergence after Step   1       (Hartree/Angstrom,Angstrom)
----------------------------------------------------------------------
current energy                               -1.12275692 Hartree
energy change                      -1.12275692     0.00006000    F
constrained gradient max            0.14282072     0.00100000    F
constrained gradient rms            0.04469583     0.00066667    F
gradient max                        0.14282072
gradient rms                        0.04469583
cart. step max                      0.03786872     0.01000000    F
cart. step rms                      0.01681837     0.00666667    F
 

--------
Geometry
--------
Formula: C2H2BrO
Atoms
  Index Symbol   x (angstrom)   y (angstrom)   z (angstrom)
      1      C     1.12908867     1.20975626    -0.19769552
      2      C     1.41309412    -0.13076484     0.09422641
      3     Br     2.13722711    -0.45848455     1.90290163
      4      O     1.13640617    -1.10157438    -0.60670517
      5      H     0.86196663     1.46048596    -1.21910275
      6      H     1.41481903     2.00833025     0.47548711

Total System Charge              0.00000

 *** GO1_GOStep2 ***

 Energy gradients wrt nuclear displacements
 ==========================================

     Atom      Cartesian (a.u./angstrom)
                 X         Y         Z
 ----------------------------------------
     1 C    -0.022805 -0.038345  0.010709
     2 C     0.033009  0.065552  0.023373
     3 Br   -0.012453 -0.003271 -0.022006
     4 O    -0.013403 -0.025429 -0.008465
     5 H     0.009924  0.001949  0.001963
     6 H     0.005728 -0.000457 -0.005574
 ----------------------------------------

 dE(predicted):    -0.67126E-02, dE(actual):    -0.69279E-02, Trust radius:    0.400000, all in a.u.
 
----------------------------------------------------------------------
Geometry Convergence after Step   2       (Hartree/Angstrom,Angstrom)
----------------------------------------------------------------------
current energy                               -1.12968484 Hartree
energy change                      -0.00692792     0.00006000    F
constrained gradient max            0.06555359     0.00100000    F
constrained gradient rms            0.02328114     0.00066667    F
gradient max                        0.06555359
gradient rms                        0.02328114
cart. step max                      0.06868518     0.01000000    F
cart. step rms                      0.02575541     0.00666667    F
 

--------
Geometry
--------
Formula: C2H2BrO
Atoms
  Index Symbol   x (angstrom)   y (angstrom)   z (angstrom)
      1      C     1.19777385     1.21764288    -0.22334964
      2      C     1.39748188    -0.16579646     0.08288237
      3     Br     2.12808492    -0.42993596     1.92659372
      4      O     1.14110108    -1.10791818    -0.62370895
      5      H     0.81352514     1.47343932    -1.20910632
      6      H     1.41463485     2.00031709     0.49580051

Total System Charge              0.00000

 *** GO1_GOStep3 ***

 Energy gradients wrt nuclear displacements
 ==========================================

     Atom      Cartesian (a.u./angstrom)
                 X         Y         Z
 ----------------------------------------
     1 C    -0.001787 -0.007810 -0.000173
     2 C     0.010493 -0.010112  0.009404
     3 Br   -0.006934  0.002066 -0.014916
     4 O    -0.001154  0.010787  0.005909
     5 H    -0.000042  0.002130 -0.000364
     6 H    -0.000576  0.002939  0.000139
 ----------------------------------------

 dE(predicted):    -0.30616E-02, dE(actual):    -0.32423E-02, Trust radius:    0.800000, all in a.u.
 
----------------------------------------------------------------------
Geometry Convergence after Step   3       (Hartree/Angstrom,Angstrom)
----------------------------------------------------------------------
current energy                               -1.13292711 Hartree
energy change                      -0.00324227     0.00006000    F
constrained gradient max            0.01480737     0.00100000    F
constrained gradient rms            0.00669175     0.00066667    F
gradient max                        0.01480737
gradient rms                        0.00669175
cart. step max                      0.03924005     0.01000000    F
cart. step rms                      0.01176222     0.00666667    F
 

--------
Geometry
--------
Formula: C2H2BrO
Atoms
  Index Symbol   x (angstrom)   y (angstrom)   z (angstrom)
      1      C     1.19250787     1.21991793    -0.22196306
      2      C     1.35824183    -0.16605641     0.09115716
      3     Br     2.14261188    -0.42172367     1.92644266
      4      O     1.15441645    -1.11476225    -0.63349769
      5      H     0.82591643     1.47567265    -1.21345696
      6      H     1.41890725     1.99470046     0.50042959

Total System Charge              0.00000

 *** GO1_GOStep4 ***

 Energy gradients wrt nuclear displacements
 ==========================================

     Atom      Cartesian (a.u./angstrom)
                 X         Y         Z
 ----------------------------------------
     1 C     0.003654 -0.001783 -0.001369
     2 C    -0.004281  0.002394  0.020115
     3 Br   -0.002481  0.002048 -0.011810
     4 O     0.003088 -0.004243 -0.006999
     5 H     0.000108  0.000590  0.000385
     6 H    -0.000088  0.000994 -0.000323
 ----------------------------------------

 dE(predicted):    -0.30300E-03, dE(actual):    -0.79443E-04, Trust radius:    0.800000, all in a.u.
 
----------------------------------------------------------------------
Geometry Convergence after Step   4       (Hartree/Angstrom,Angstrom)
----------------------------------------------------------------------
current energy                               -1.13300655 Hartree
energy change                      -0.00007944     0.00006000    F
constrained gradient max            0.02014923     0.00100000    F
constrained gradient rms            0.00612368     0.00066667    F
gradient max                        0.02014923
gradient rms                        0.00612368
cart. step max                      0.02317889     0.01000000    F
cart. step rms                      0.01036150     0.00666667    F
 

--------
Geometry
--------
Formula: C2H2BrO
Atoms
  Index Symbol   x (angstrom)   y (angstrom)   z (angstrom)
      1      C     1.19956017     1.22448526    -0.22744543
      2      C     1.38064349    -0.16934565     0.07675058
      3     Br     2.12925531    -0.42186486     1.94079899
      4      O     1.15216716    -1.12070263    -0.63271035
      5      H     0.80273754     1.48107455    -1.20784183
      6      H     1.42823806     1.99410203     0.49955973

Total System Charge              0.00000

 *** GO1_GOStep5 ***

 Energy gradients wrt nuclear displacements
 ==========================================

     Atom      Cartesian (a.u./angstrom)
                 X         Y         Z
 ----------------------------------------
     1 C     0.001326  0.006921 -0.001256
     2 C     0.003423 -0.005696  0.012862
     3 Br   -0.002379  0.001434 -0.007033
     4 O    -0.000898 -0.004219 -0.004383
     5 H    -0.000772  0.000580 -0.000277
     6 H    -0.000700  0.000980  0.000086
 ----------------------------------------

 dE(predicted):    -0.24773E-03, dE(actual):    -0.28417E-03, Trust radius:    0.800000, all in a.u.
 
----------------------------------------------------------------------
Geometry Convergence after Step   5       (Hartree/Angstrom,Angstrom)
----------------------------------------------------------------------
current energy                               -1.13329072 Hartree
energy change                      -0.00028417     0.00006000    F
constrained gradient max            0.01289593     0.00100000    F
constrained gradient rms            0.00446112     0.00066667    F
gradient max                        0.01289593
gradient rms                        0.00446112
cart. step max                      0.00718713     0.01000000    T
cart. step rms                      0.00356321     0.00666667    T
 

--------
Geometry
--------
Formula: C2H2BrO
Atoms
  Index Symbol   x (angstrom)   y (angstrom)   z (angstrom)
      1      C     1.19585664     1.22430223    -0.22829346
      2      C     1.38333550    -0.16727760     0.07162017
      3     Br     2.12645386    -0.42314850     1.94767447
      4      O     1.15497533    -1.11803083    -0.63246980
      5      H     0.79655522     1.48121312    -1.20736429
      6      H     1.43542519     1.99069028     0.49794461

Total System Charge              0.00000

 *** GO1_GOStep6 ***

 Energy gradients wrt nuclear displacements
 ==========================================

     Atom      Cartesian (a.u./angstrom)
                 X         Y         Z
 ----------------------------------------
     1 C    -0.000368  0.005116 -0.001393
     2 C     0.002840 -0.008245  0.005317
     3 Br   -0.001763  0.000478 -0.004674
     4 O    -0.000047  0.002286  0.000887
     5 H    -0.000410  0.000222 -0.000274
     6 H    -0.000253  0.000143  0.000137
 ----------------------------------------

 dE(predicted):    -0.67901E-04, dE(actual):    -0.97983E-04, Trust radius:    0.800000, all in a.u.
 
----------------------------------------------------------------------
Geometry Convergence after Step   6       (Hartree/Angstrom,Angstrom)
----------------------------------------------------------------------
current energy                               -1.13338870 Hartree
energy change                      -0.00009798     0.00006000    F
constrained gradient max            0.00824554     0.00100000    F
constrained gradient rms            0.00301935     0.00066667    F
gradient max                        0.00824554
gradient rms                        0.00301935
cart. step max                      0.00908668     0.01000000    T
cart. step rms                      0.00460017     0.00666667    T
 

--------
Geometry
--------
Formula: C2H2BrO
Atoms
  Index Symbol   x (angstrom)   y (angstrom)   z (angstrom)
      1      C     1.19429437     1.22362085    -0.22952139
      2      C     1.38306970    -0.16396405     0.06424049
      3     Br     2.12342029    -0.42016554     1.95676116
      4      O     1.15870081    -1.11884147    -0.63527190
      5      H     0.78861581     1.48234390    -1.20491349
      6      H     1.44450074     1.98475501     0.49781683

Total System Charge              0.00000

 *** GO1_GOStep7 ***

 Energy gradients wrt nuclear displacements
 ==========================================

     Atom      Cartesian (a.u./angstrom)
                 X         Y         Z
 ----------------------------------------
     1 C    -0.000657  0.002417 -0.001020
     2 C     0.001553 -0.001371  0.001022
     3 Br   -0.000443 -0.000291 -0.000993
     4 O    -0.000370  0.000581  0.000490
     5 H    -0.000126 -0.000510  0.000214
     6 H     0.000043 -0.000826  0.000288
 ----------------------------------------

 dE(predicted):    -0.54569E-04, dE(actual):    -0.63049E-04, Trust radius:    0.800000, all in a.u.
 
----------------------------------------------------------------------
Geometry Convergence after Step   7       (Hartree/Angstrom,Angstrom)
----------------------------------------------------------------------
current energy                               -1.13345175 Hartree
energy change                      -0.00006305     0.00006000    F
constrained gradient max            0.00240227     0.00100000    F
constrained gradient rms            0.00093209     0.00066667    F
gradient max                        0.00240227
gradient rms                        0.00093209
cart. step max                      0.00298315     0.01000000    T
cart. step rms                      0.00138150     0.00666667    T
 

--------
Geometry
--------
Formula: C2H2BrO
Atoms
  Index Symbol   x (angstrom)   y (angstrom)   z (angstrom)
      1      C     1.19257927     1.22263429    -0.22866264
      2      C     1.38008655    -0.16439654     0.06300927
      3     Br     2.12453197    -0.41788736     1.95814381
      4      O     1.15975278    -1.11980826    -0.63671577
      5      H     0.78971888     1.48367584    -1.20473117
      6      H     1.44593229     1.98353073     0.49806820

Total System Charge              0.00000

 *** GO1_GOStep8 ***

 Energy gradients wrt nuclear displacements
 ==========================================

     Atom      Cartesian (a.u./angstrom)
                 X         Y         Z
 ----------------------------------------
     1 C    -0.000508  0.001138 -0.000422
     2 C     0.000287 -0.000534  0.000041
     3 Br    0.000015 -0.000135 -0.000251
     4 O    -0.000013  0.000419  0.000216
     5 H    -0.000007 -0.000389  0.000146
     6 H     0.000225 -0.000498  0.000269
 ----------------------------------------

 dE(predicted):    -0.56317E-05, dE(actual):    -0.65197E-05, Trust radius:    0.800000, all in a.u.
 
----------------------------------------------------------------------
Geometry Convergence after Step   8       (Hartree/Angstrom,Angstrom)
----------------------------------------------------------------------
current energy                               -1.13345827 Hartree
energy change                      -0.00000652     0.00006000    T
constrained gradient max            0.00112429     0.00100000    F
constrained gradient rms            0.00040002     0.00066667    T
gradient max                        0.00112429
gradient rms                        0.00040002
cart. step max                      0.00115580     0.01000000    T
cart. step rms                      0.00055386     0.00666667    T
 

--------
Geometry
--------
Formula: C2H2BrO
Atoms
  Index Symbol   x (angstrom)   y (angstrom)   z (angstrom)
      1      C     1.19305235     1.22208848    -0.22854271
      2      C     1.37936703    -0.16461782     0.06285758
      3     Br     2.12536691    -0.41744436     1.95812736
      4      O     1.15926971    -1.12035147    -0.63682620
      5      H     0.79076924     1.48436828    -1.20465177
      6      H     1.44477649     1.98370559     0.49814744

Total System Charge              0.00000

 *** GO1_GOStep9 ***

 Energy gradients wrt nuclear displacements
 ==========================================

     Atom      Cartesian (a.u./angstrom)
                 X         Y         Z
 ----------------------------------------
     1 C    -0.000129  0.000307 -0.000106
     2 C    -0.000031  0.000197  0.000058
     3 Br    0.000110 -0.000073 -0.000121
     4 O    -0.000013 -0.000052 -0.000138
     5 H    -0.000066 -0.000168  0.000125
     6 H     0.000128 -0.000211  0.000183
 ----------------------------------------

 dE(predicted):    -0.94270E-06, dE(actual):    -0.11823E-05, Trust radius:    0.800000, all in a.u.
 
---------------------------------------------------------
Geometry Convergence after Step   9       ** CONVERGED **
---------------------------------------------------------
current energy                               -1.13345945 Hartree
energy change                      -0.00000118     0.00006000    T
constrained gradient max            0.00029384     0.00100000    T
constrained gradient rms            0.00012870     0.00066667    T
gradient max                        0.00029384
gradient rms                        0.00012870
cart. step max                      0.00126524     0.01000000    T
cart. step rms                      0.00050849     0.00666667    T
 
Geometry optimization converged

Optimized geometry:

--------
Geometry
--------
Formula: C2H2BrO
Atoms
  Index Symbol   x (angstrom)   y (angstrom)   z (angstrom)
      1      C     1.19305235     1.22208848    -0.22854271
      2      C     1.37936703    -0.16461782     0.06285758
      3     Br     2.12536691    -0.41744436     1.95812736
      4      O     1.15926971    -1.12035147    -0.63682620
      5      H     0.79076924     1.48436828    -1.20465177
      6      H     1.44477649     1.98370559     0.49814744

Total System Charge              0.00000

Performing a single point calculation on the final geometry ...

 *** adf ***



 ===========================
 A T T A C H E D   F I L E S
 ===========================
  
 Restart/tmp/amstmp_optA_kid0.973058126/GO1_GOStep9.rkf*** GO1_GOStep9 ***



 ===============================
 M O D E L   P A R A M E T E R S
 ===============================
  
 DENSITY FUNCTIONAL POTENTIAL (scf)
    LDA:                               Exchange only                           == Not Default ==
    Gradient Corrections:              Becke88 LYP                             == Not Default ==

 SPIN  (restricted / unrestr.)
    Molecule:                          UNrestricted                            == Not Default ==
    Fragments:                         Restricted                               

 OTHER ASPECTS
    Relativistic Corrections:          scalar (ZORA,MAPA)                       

    Nuclear Charge Density Model:      Point Charge Nuclei                      
    Core Treatment:                    Frozen Orbital(s)                        

    Hyperfine or Zeeman Interaction:   ---                                      

 Settings for Grimme D3 dispersion correction

      damping                        BJ
      s6                          1.000
      s8                          2.700
      a1                          0.430
      a2                          4.236

 Other (technical) parameters

      alpha                      14.000
      version                         4
 



 ===============
 G E O M E T R Y  ***  3D  Molecule  ***
 ===============
  

 ATOMS
 =====                            X Y Z                    CHARGE
                                (Angstrom)             Nucl     +Core       At.Mass
                       --------------------------    ----------------       -------
    1  C               1.1931    1.2221   -0.2285      6.00      6.00       12.0000
    2  C               1.3794   -0.1646    0.0629      6.00      6.00       12.0000
    3  Br              2.1254   -0.4174    1.9581     35.00     35.00       78.9183
    4  O               1.1593   -1.1204   -0.6368      8.00      8.00       15.9949
    5  H               0.7908    1.4844   -1.2047      1.00      1.00        1.0078
    6  H               1.4448    1.9837    0.4981      1.00      1.00        1.0078


 FRAGMENTS
 =========                                     Atoms in this Fragment     Cart. coord.s (Angstrom)
                                               -------------------------------------------------------
    1  C                                                 1  C            1.1931    1.2221   -0.2285
    2  C                                                 2  C            1.3794   -0.1646    0.0629
    3  Br                                                3  Br           2.1254   -0.4174    1.9581
    4  O                                                 4  O            1.1593   -1.1204   -0.6368
    5  H                                                 5  H            0.7908    1.4844   -1.2047
    6  H                                                 6  H            1.4448    1.9837    0.4981


 Interatomic Distance Matrix (Angstrom)
 --------------------------------------

   1)     0.000
   2)     1.429   0.000
   3)     2.888   2.052   0.000
   4)     2.378   1.205   2.857   0.000
   5)     1.088   2.162   3.924   2.691   0.000
   6)     1.082   2.193   2.891   3.317   1.891   0.000

 Min. Distance =    1.0824
 Max. Distance =    3.9244



 =====================================
 S Y M M E T R Y ,   E L E C T R O N S
 =====================================
  
 Symmetry: NOSYM

 Irreducible Representations, including subspecies
 -------------------------------------------------
 A


 Configuration of Valence Electrons
 ==================================
 ( determined in the SCF procedure )

 Total:   29 (Spin-A)  + 28 (Spin-B)

 Net Charge: 0 (Nuclei minus Electrons)
 Spin polar: 1 (Spin_A minus Spin_B electrons)

 Aufbau principle for MO occupations will be applied through SCF cycle no.     150
 Thereafter, the program will assign electrons to MOs that are spatially
 similar to the occupied MOs in a "reference" cycle ("KeepOrbitals").
 The reference cycle is always the PREVIOUS cycle: it will evolve with
 the SCF procedure.
 ***************************************************************************************************



                                      ****************************************
                                      *  B U I L D : (Fragments, Functions)  *
                                      ****************************************
  



 =======
 S F O s  ***  (Symmetrized Fragment Orbitals)  ***
 =======
  
 SFOs are linear combinations of (valence) Fragment Orbitals (FOs), such that the SFOs transform as the
 irreducible representations of the (molecular) symmetry group. Each SFO is therefore characterized by
 an irrep of the molecule and by a few (or only one) generating FOs.
 The SFOs constitute a symmetry-adapted basis for the Fock matrix. The MO eigenvector coefficients in
 this basis provide a direct interpretation of the MOs in terms of Frontier Orbital Theory.

 The SFOs are combined with auxiliary Core Functions (CFs) to ensure orthogonalization on the (frozen)
 Core Orbitals (COs). The Core-orthogonalized SFOs (CSFOs) constitute the true Fock basis.

 The FOs, and hence also the (C)SFOs are combinations of the elementary basis functions (BAS). The basis
 functions that participate in the description of the SFOs depend on the irrep. The indices of the
 involved functions are printed below for each irrep.
 (The complete list of primitive basis functions is printed in another section)

 Total nr. of (C)SFOs (summation over all irreps) :   156

 NOTE: a (C)SFO that is defined as a combination of more than one FO is usually NOT normalized.



                                       === A ===
 Nr. of SFOs :  156
 Cartesian basis functions that participate in this irrep (total number =   177) :
      1     2     3     4     5     6     9    12     7    10
     13     8    11    14    15    16    17    18    19    20
     21    22    23    24    25    26    27    28    29    30
     31    32    33    34    35    36    39    42    37    40
     43    38    41    44    45    46    47    48    49    50
     51    52    53    54    55    56    57    58    59    60
     61    62    63    70    71    96    97    98    64    67
     72    75    99   102   105    65    68    73    76   100
    103   106    66    69    74    77   101   104   107    78
     84    90   108    79    85    91   109    80    86    92
    110    81    87    93   111    82    88    94   112    83
     89    95   113   114   115   116   117   118   119   120
    121   122   123   124   125   126   127   128   129   132
    135   130   133   136   131   134   137   138   139   140
    141   142   143   144   145   146   147   148   149   150
    151   152   153   154   155   156   157   158   159   160
    161   162   163   164   165   166   167   168   169   170
    171   172   173   174   175   176   177

    SFO  (index         Fragment          Generating    Expansion in Fragment Orbitals
  indx  incl.CFs)   Occup   Orb.Energy   FragmentType  Coeff.   Orbital     on Fragment
 --------------------------------------------------------------------------------------
     1       1      2.000     -10.066 au  C             1.00      1 S               1
                        (    -273.921 eV)
     2       2      2.000      -0.501 au  C             1.00      2 S               1
                        (     -13.620 eV)
     3       3       --         0.373 au  C             1.00      3 S               1
                        (      10.158 eV)
     4       4       --         5.405 au  C             1.00      4 S               1
                        (     147.073 eV)
     5       5       --        49.848 au  C             1.00      5 S               1
                        (    1356.422 eV)
     6       6      0.667      -0.193 au  C             1.00      1 P:x             1
                        (      -5.239 eV)
     7       7       --         0.169 au  C             1.00      2 P:x             1
                        (       4.589 eV)
     8       8       --         2.013 au  C             1.00      3 P:x             1
                        (      54.789 eV)
     9       9      0.667      -0.193 au  C             1.00      1 P:y             1
                        (      -5.239 eV)
    10      10       --         0.169 au  C             1.00      2 P:y             1
                        (       4.589 eV)
    11      11       --         2.013 au  C             1.00      3 P:y             1
                        (      54.789 eV)
    12      12      0.667      -0.193 au  C             1.00      1 P:z             1
                        (      -5.239 eV)
    13      13       --         0.169 au  C             1.00      2 P:z             1
                        (       4.589 eV)
    14      14       --         2.013 au  C             1.00      3 P:z             1
                        (      54.789 eV)
    15      15       --         1.243 au  C             1.00      1 D:z2            1
                        (      33.824 eV)
    16      16       --         1.243 au  C             1.00      1 D:x2-y2         1
                        (      33.824 eV)
    17      17       --         1.243 au  C             1.00      1 D:xy            1
                        (      33.824 eV)
    18      18       --         1.243 au  C             1.00      1 D:xz            1
                        (      33.824 eV)
    19      19       --         1.243 au  C             1.00      1 D:yz            1
                        (      33.824 eV)
    20      20       --         4.016 au  C             1.00      1 F:z3            1
                        (     109.271 eV)
    21      21       --         4.016 au  C             1.00      1 F:z             1
                        (     109.271 eV)
    22      22       --         4.016 au  C             1.00      1 F:xyz           1
                        (     109.271 eV)
    23      23       --         4.016 au  C             1.00      1 F:z2x           1
                        (     109.271 eV)
    24      24       --         4.016 au  C             1.00      1 F:z2y           1
                        (     109.271 eV)
    25      25       --         4.016 au  C             1.00      1 F:x             1
                        (     109.271 eV)
    26      26       --         4.016 au  C             1.00      1 F:y             1
                        (     109.271 eV)
    27      27      2.000     -10.066 au  C             1.00      1 S               2
                        (    -273.921 eV)
    28      28      2.000      -0.501 au  C             1.00      2 S               2
                        (     -13.620 eV)
    29      29       --         0.373 au  C             1.00      3 S               2
                        (      10.158 eV)
    30      30       --         5.405 au  C             1.00      4 S               2
                        (     147.073 eV)
    31      31       --        49.848 au  C             1.00      5 S               2
                        (    1356.422 eV)
    32      32      0.667      -0.193 au  C             1.00      1 P:x             2
                        (      -5.239 eV)
    33      33       --         0.169 au  C             1.00      2 P:x             2
                        (       4.589 eV)
    34      34       --         2.013 au  C             1.00      3 P:x             2
                        (      54.789 eV)
    35      35      0.667      -0.193 au  C             1.00      1 P:y             2
                        (      -5.239 eV)
    36      36       --         0.169 au  C             1.00      2 P:y             2
                        (       4.589 eV)
    37      37       --         2.013 au  C             1.00      3 P:y             2
                        (      54.789 eV)
    38      38      0.667      -0.193 au  C             1.00      1 P:z             2
                        (      -5.239 eV)
    39      39       --         0.169 au  C             1.00      2 P:z             2
                        (       4.589 eV)
    40      40       --         2.013 au  C             1.00      3 P:z             2
                        (      54.789 eV)
    41      41       --         1.243 au  C             1.00      1 D:z2            2
                        (      33.824 eV)
    42      42       --         1.243 au  C             1.00      1 D:x2-y2         2
                        (      33.824 eV)
    43      43       --         1.243 au  C             1.00      1 D:xy            2
                        (      33.824 eV)
    44      44       --         1.243 au  C             1.00      1 D:xz            2
                        (      33.824 eV)
    45      45       --         1.243 au  C             1.00      1 D:yz            2
                        (      33.824 eV)
    46      46       --         4.016 au  C             1.00      1 F:z3            2
                        (     109.271 eV)
    47      47       --         4.016 au  C             1.00      1 F:z             2
                        (     109.271 eV)
    48      48       --         4.016 au  C             1.00      1 F:xyz           2
                        (     109.271 eV)
    49      49       --         4.016 au  C             1.00      1 F:z2x           2
                        (     109.271 eV)
    50      50       --         4.016 au  C             1.00      1 F:z2y           2
                        (     109.271 eV)
    51      51       --         4.016 au  C             1.00      1 F:x             2
                        (     109.271 eV)
    52      52       --         4.016 au  C             1.00      1 F:y             2
                        (     109.271 eV)
    53      53      2.000    -488.642 au  Br            1.00      1 S               3
                        (  -13296.634 eV)
    54      54      2.000     -63.585 au  Br            1.00      2 S               3
                        (   -1730.246 eV)
    55      55      2.000      -8.709 au  Br            1.00      3 S               3
                        (    -236.987 eV)
    56      56      2.000      -0.733 au  Br            1.00      4 S               3
                        (     -19.946 eV)
    57      57       --         0.224 au  Br            1.00      5 S               3
                        (       6.099 eV)
    58      58       --         2.414 au  Br            1.00      6 S               3
                        (      65.683 eV)
    59      59       --        13.546 au  Br            1.00      7 S               3
                        (     368.609 eV)
    60      60       --       615.209 au  Br            1.00      8 S               3
                        (   16740.684 eV)
    61      61      2.000     -56.116 au  Br            1.00      1 P:x             3
                        (   -1526.987 eV)
    62      62      2.000      -6.365 au  Br            1.00      2 P:x             3
                        (    -173.205 eV)
    63      63      1.667      -0.284 au  Br            1.00      3 P:x             3
                        (      -7.716 eV)
    64      64       --         0.137 au  Br            1.00      4 P:x             3
                        (       3.720 eV)
    65      65       --         1.208 au  Br            1.00      5 P:x             3
                        (      32.874 eV)
    66      66       --         8.734 au  Br            1.00      6 P:x             3
                        (     237.661 eV)
    67      67       --        95.627 au  Br            1.00      7 P:x             3
                        (    2602.141 eV)
    68      68      2.000     -56.116 au  Br            1.00      1 P:y             3
                        (   -1526.987 eV)
    69      69      2.000      -6.365 au  Br            1.00      2 P:y             3
                        (    -173.205 eV)
    70      70      1.667      -0.284 au  Br            1.00      3 P:y             3
                        (      -7.716 eV)
    71      71       --         0.137 au  Br            1.00      4 P:y             3
                        (       3.720 eV)
    72      72       --         1.208 au  Br            1.00      5 P:y             3
                        (      32.874 eV)
    73      73       --         8.734 au  Br            1.00      6 P:y             3
                        (     237.661 eV)
    74      74       --        95.627 au  Br            1.00      7 P:y             3
                        (    2602.141 eV)
    75      75      2.000     -56.116 au  Br            1.00      1 P:z             3
                        (   -1526.987 eV)
    76      76      2.000      -6.365 au  Br            1.00      2 P:z             3
                        (    -173.205 eV)
    77      77      1.667      -0.284 au  Br            1.00      3 P:z             3
                        (      -7.716 eV)
    78      78       --         0.137 au  Br            1.00      4 P:z             3
                        (       3.720 eV)
    79      79       --         1.208 au  Br            1.00      5 P:z             3
                        (      32.874 eV)
    80      80       --         8.734 au  Br            1.00      6 P:z             3
                        (     237.661 eV)
    81      81       --        95.627 au  Br            1.00      7 P:z             3
                        (    2602.141 eV)
    82      82      2.000      -2.452 au  Br            1.00      1 D:z2            3
                        (     -66.719 eV)
    83      83       --         0.270 au  Br            1.00      2 D:z2            3
                        (       7.341 eV)
    84      84       --         2.706 au  Br            1.00      3 D:z2            3
                        (      73.633 eV)
    85      85       --        20.525 au  Br            1.00      4 D:z2            3
                        (     558.519 eV)
    86      86      2.000      -2.452 au  Br            1.00      1 D:x2-y2         3
                        (     -66.719 eV)
    87      87       --         0.270 au  Br            1.00      2 D:x2-y2         3
                        (       7.341 eV)
    88      88       --         2.706 au  Br            1.00      3 D:x2-y2         3
                        (      73.633 eV)
    89      89       --        20.525 au  Br            1.00      4 D:x2-y2         3
                        (     558.519 eV)
    90      90      2.000      -2.452 au  Br            1.00      1 D:xy            3
                        (     -66.719 eV)
    91      91       --         0.270 au  Br            1.00      2 D:xy            3
                        (       7.341 eV)
    92      92       --         2.706 au  Br            1.00      3 D:xy            3
                        (      73.633 eV)
    93      93       --        20.525 au  Br            1.00      4 D:xy            3
                        (     558.519 eV)
    94      94      2.000      -2.452 au  Br            1.00      1 D:xz            3
                        (     -66.719 eV)
    95      95       --         0.270 au  Br            1.00      2 D:xz            3
                        (       7.341 eV)
    96      96       --         2.706 au  Br            1.00      3 D:xz            3
                        (      73.633 eV)
    97      97       --        20.525 au  Br            1.00      4 D:xz            3
                        (     558.519 eV)
    98      98      2.000      -2.452 au  Br            1.00      1 D:yz            3
                        (     -66.719 eV)
    99      99       --         0.270 au  Br            1.00      2 D:yz            3
                        (       7.341 eV)
   100     100       --         2.706 au  Br            1.00      3 D:yz            3
                        (      73.633 eV)
   101     101       --        20.525 au  Br            1.00      4 D:yz            3
                        (     558.519 eV)
   102     102       --         0.857 au  Br            1.00      1 F:z3            3
                        (      23.313 eV)
   103     103       --         0.857 au  Br            1.00      1 F:z             3
                        (      23.313 eV)
   104     104       --         0.857 au  Br            1.00      1 F:xyz           3
                        (      23.313 eV)
   105     105       --         0.857 au  Br            1.00      1 F:z2x           3
                        (      23.313 eV)
   106     106       --         0.857 au  Br            1.00      1 F:z2y           3
                        (      23.313 eV)
   107     107       --         0.857 au  Br            1.00      1 F:x             3
                        (      23.313 eV)
   108     108       --         0.857 au  Br            1.00      1 F:y             3
                        (      23.313 eV)
   109     109      2.000     -18.941 au  O             1.00      1 S               4
                        (    -515.403 eV)
   110     110      2.000      -0.876 au  O             1.00      2 S               4
                        (     -23.838 eV)
   111     111       --         0.791 au  O             1.00      3 S               4
                        (      21.524 eV)
   112     112       --        13.422 au  O             1.00      4 S               4
                        (     365.226 eV)
   113     113       --       121.561 au  O             1.00      5 S               4
                        (    3307.838 eV)
   114     114      1.333      -0.331 au  O             1.00      1 P:x             4
                        (      -9.020 eV)
   115     115       --         0.347 au  O             1.00      2 P:x             4
                        (       9.437 eV)
   116     116       --         3.820 au  O             1.00      3 P:x             4
                        (     103.939 eV)
   117     117      1.333      -0.331 au  O             1.00      1 P:y             4
                        (      -9.020 eV)
   118     118       --         0.347 au  O             1.00      2 P:y             4
                        (       9.437 eV)
   119     119       --         3.820 au  O             1.00      3 P:y             4
                        (     103.939 eV)
   120     120      1.333      -0.331 au  O             1.00      1 P:z             4
                        (      -9.020 eV)
   121     121       --         0.347 au  O             1.00      2 P:z             4
                        (       9.437 eV)
   122     122       --         3.820 au  O             1.00      3 P:z             4
                        (     103.939 eV)
   123     123       --         1.071 au  O             1.00      1 D:z2            4
                        (      29.134 eV)
   124     124       --         1.071 au  O             1.00      1 D:x2-y2         4
                        (      29.134 eV)
   125     125       --         1.071 au  O             1.00      1 D:xy            4
                        (      29.134 eV)
   126     126       --         1.071 au  O             1.00      1 D:xz            4
                        (      29.134 eV)
   127     127       --         1.071 au  O             1.00      1 D:yz            4
                        (      29.134 eV)
   128     128       --         3.359 au  O             1.00      1 F:z3            4
                        (      91.410 eV)
   129     129       --         3.359 au  O             1.00      1 F:z             4
                        (      91.410 eV)
   130     130       --         3.359 au  O             1.00      1 F:xyz           4
                        (      91.410 eV)
   131     131       --         3.359 au  O             1.00      1 F:z2x           4
                        (      91.410 eV)
   132     132       --         3.359 au  O             1.00      1 F:z2y           4
                        (      91.410 eV)
   133     133       --         3.359 au  O             1.00      1 F:x             4
                        (      91.410 eV)
   134     134       --         3.359 au  O             1.00      1 F:y             4
                        (      91.410 eV)
   135     135      1.000      -0.240 au  H             1.00      1 S               5
                        (      -6.532 eV)
   136     136       --         0.088 au  H             1.00      2 S               5
                        (       2.394 eV)
   137     137       --         1.502 au  H             1.00      3 S               5
                        (      40.869 eV)
   138     138       --         0.406 au  H             1.00      1 P:x             5
                        (      11.051 eV)
   139     139       --         0.406 au  H             1.00      1 P:y             5
                        (      11.051 eV)
   140     140       --         0.406 au  H             1.00      1 P:z             5
                        (      11.051 eV)
   141     141       --         2.569 au  H             1.00      1 D:z2            5
                        (      69.917 eV)
   142     142       --         2.569 au  H             1.00      1 D:x2-y2         5
                        (      69.917 eV)
   143     143       --         2.569 au  H             1.00      1 D:xy            5
                        (      69.917 eV)
   144     144       --         2.569 au  H             1.00      1 D:xz            5
                        (      69.917 eV)
   145     145       --         2.569 au  H             1.00      1 D:yz            5
                        (      69.917 eV)
   146     146      1.000      -0.240 au  H             1.00      1 S               6
                        (      -6.532 eV)
   147     147       --         0.088 au  H             1.00      2 S               6
                        (       2.394 eV)
   148     148       --         1.502 au  H             1.00      3 S               6
                        (      40.869 eV)
   149     149       --         0.406 au  H             1.00      1 P:x             6
                        (      11.051 eV)
   150     150       --         0.406 au  H             1.00      1 P:y             6
                        (      11.051 eV)
   151     151       --         0.406 au  H             1.00      1 P:z             6
                        (      11.051 eV)
   152     152       --         2.569 au  H             1.00      1 D:z2            6
                        (      69.917 eV)
   153     153       --         2.569 au  H             1.00      1 D:x2-y2         6
                        (      69.917 eV)
   154     154       --         2.569 au  H             1.00      1 D:xy            6
                        (      69.917 eV)
   155     155       --         2.569 au  H             1.00      1 D:xz            6
                        (      69.917 eV)
   156     156       --         2.569 au  H             1.00      1 D:yz            6
                        (      69.917 eV)



 ================================
 (Slater-type)  F U N C T I O N S  ***  (Basis and Fit)  ***
 ================================
  

 Atom Type    1  (C)
 ==============

 Valence Basis Sets:  10
 -----------------------
   1 S    7.680000
   1 S    5.000000
   2 S    1.280000
   2 S    2.100000
   2 S    4.600000
   2 P    0.820000
   2 P    1.480000
   2 P    2.940000
   3 D    2.200000
   4 F    3.300000

 Atom Type    2  (Br)
 ==============

 Valence Basis Sets:  20
 -----------------------
   1 S   41.300000
   1 S   32.800000
   2 S   13.900000
   2 P   19.450000
   2 P   13.100000
   3 S    7.200000
   3 S    4.950000
   3 P    7.900000
   3 P    5.050000
   3 D   10.900000
   3 D    6.050000
   3 D    3.500000
   4 S    4.500000
   4 S    2.800000
   4 S    1.800000
   4 P    3.250000
   4 P    1.950000
   4 P    1.200000
   4 D    1.800000
   4 F    1.800000

 Atom Type    3  (O)
 ==============

 Valence Basis Sets:  10
 -----------------------
   1 S    9.800000
   1 S    6.800000
   2 S    7.580000
   2 S    2.880000
   2 S    1.720000
   2 P    4.080000
   2 P    2.080000
   2 P    1.120000
   3 D    2.000000
   4 F    3.000000

 Atom Type    4  (H)
 ==============

 Valence Basis Sets:   5
 -----------------------
   1 S    0.690000
   1 S    0.920000
   1 S    1.580000
   2 P    1.250000
   3 D    2.500000


 BAS: List of all Elementary Cartesian Basis Functions
 =====================================================

 The numbering in the list below (to the right of the function characteristics) is referred
 to in print-outs of MO eigenvectors and Mulliken populations in the BAS representation
 (as contrasted to the SFO representation).

 Notes:
 1. The functions are characterized by a polynomial prefactor (powers of x,y,z and r) and
    an exponential decay factor alpha.
 2. Since the basis sets are specific for an atom TYPE, the individual functions occur on
    all atoms of that type.
 3. The word 'Core' in the left margin signals that it is a Core Function (CF) : not a
    degree of freedom in the valence set, but only used to ensure orthogonalization of
    the other valence basis functions on the frozen Core Orbitals.


 (power of) X  Y  Z  R     Alpha  on Atom
            ==========     =====     ==========

 C                                    1    2
                                  ---------------------------------------------------------------------------
            0  0  0  0     7.680      1   31
            0  0  0  0     5.000      2   32
            0  0  0  1     1.280      3   33
            0  0  0  1     2.100      4   34
            0  0  0  1     4.600      5   35
            1  0  0  0     0.820      6   36
            0  1  0  0     0.820      7   37
            0  0  1  0     0.820      8   38
            1  0  0  0     1.480      9   39
            0  1  0  0     1.480     10   40
            0  0  1  0     1.480     11   41
            1  0  0  0     2.940     12   42
            0  1  0  0     2.940     13   43
            0  0  1  0     2.940     14   44
            2  0  0  0     2.200     15   45
            1  1  0  0     2.200     16   46
            1  0  1  0     2.200     17   47
            0  2  0  0     2.200     18   48
            0  1  1  0     2.200     19   49
            0  0  2  0     2.200     20   50
            3  0  0  0     3.300     21   51
            2  1  0  0     3.300     22   52
            2  0  1  0     3.300     23   53
            1  2  0  0     3.300     24   54
            1  1  1  0     3.300     25   55
            1  0  2  0     3.300     26   56
            0  3  0  0     3.300     27   57
            0  2  1  0     3.300     28   58
            0  1  2  0     3.300     29   59
            0  0  3  0     3.300     30   60

 Br                                   3
                                  ---------------------------------------------------------------------------
            0  0  0  0    41.300     61
            0  0  0  0    32.800     62
            0  0  0  1    13.900     63
            1  0  0  0    19.450     64
            0  1  0  0    19.450     65
            0  0  1  0    19.450     66
            1  0  0  0    13.100     67
            0  1  0  0    13.100     68
            0  0  1  0    13.100     69
            0  0  0  2     7.200     70
            0  0  0  2     4.950     71
            1  0  0  1     7.900     72
            0  1  0  1     7.900     73
            0  0  1  1     7.900     74
            1  0  0  1     5.050     75
            0  1  0  1     5.050     76
            0  0  1  1     5.050     77
            2  0  0  0    10.900     78
            1  1  0  0    10.900     79
            1  0  1  0    10.900     80
            0  2  0  0    10.900     81
            0  1  1  0    10.900     82
            0  0  2  0    10.900     83
            2  0  0  0     6.050     84
            1  1  0  0     6.050     85
            1  0  1  0     6.050     86
            0  2  0  0     6.050     87
            0  1  1  0     6.050     88
            0  0  2  0     6.050     89
            2  0  0  0     3.500     90
            1  1  0  0     3.500     91
            1  0  1  0     3.500     92
            0  2  0  0     3.500     93
            0  1  1  0     3.500     94
            0  0  2  0     3.500     95
            0  0  0  3     4.500     96
            0  0  0  3     2.800     97
            0  0  0  3     1.800     98
            1  0  0  2     3.250     99
            0  1  0  2     3.250    100
            0  0  1  2     3.250    101
            1  0  0  2     1.950    102
            0  1  0  2     1.950    103
            0  0  1  2     1.950    104
            1  0  0  2     1.200    105
            0  1  0  2     1.200    106
            0  0  1  2     1.200    107
            2  0  0  1     1.800    108
            1  1  0  1     1.800    109
            1  0  1  1     1.800    110
            0  2  0  1     1.800    111
            0  1  1  1     1.800    112
            0  0  2  1     1.800    113
            3  0  0  0     1.800    114
            2  1  0  0     1.800    115
            2  0  1  0     1.800    116
            1  2  0  0     1.800    117
            1  1  1  0     1.800    118
            1  0  2  0     1.800    119
            0  3  0  0     1.800    120
            0  2  1  0     1.800    121
            0  1  2  0     1.800    122
            0  0  3  0     1.800    123

 O                                    4
                                  ---------------------------------------------------------------------------
            0  0  0  0     9.800    124
            0  0  0  0     6.800    125
            0  0  0  1     7.580    126
            0  0  0  1     2.880    127
            0  0  0  1     1.720    128
            1  0  0  0     4.080    129
            0  1  0  0     4.080    130
            0  0  1  0     4.080    131
            1  0  0  0     2.080    132
            0  1  0  0     2.080    133
            0  0  1  0     2.080    134
            1  0  0  0     1.120    135
            0  1  0  0     1.120    136
            0  0  1  0     1.120    137
            2  0  0  0     2.000    138
            1  1  0  0     2.000    139
            1  0  1  0     2.000    140
            0  2  0  0     2.000    141
            0  1  1  0     2.000    142
            0  0  2  0     2.000    143
            3  0  0  0     3.000    144
            2  1  0  0     3.000    145
            2  0  1  0     3.000    146
            1  2  0  0     3.000    147
            1  1  1  0     3.000    148
            1  0  2  0     3.000    149
            0  3  0  0     3.000    150
            0  2  1  0     3.000    151
            0  1  2  0     3.000    152
            0  0  3  0     3.000    153

 H                                    5    6
                                  ---------------------------------------------------------------------------
            0  0  0  0     0.690    154  166
            0  0  0  0     0.920    155  167
            0  0  0  0     1.580    156  168
            1  0  0  0     1.250    157  169
            0  1  0  0     1.250    158  170
            0  0  1  0     1.250    159  171
            2  0  0  0     2.500    160  172
            1  1  0  0     2.500    161  173
            1  0  1  0     2.500    162  174
            0  2  0  0     2.500    163  175
            0  1  1  0     2.500    164  176
            0  0  2  0     2.500    165  177

 Total number of charge fitting functions (nprimf)       522
 Total number of Cartesian basis functions (naos)        177
 Total number of Cartesian core functions  (ncos)          0

 ***************************************************************************************************



                                              ***********************
                                              *  T E C H N I C A L  *
                                              ***********************
  



 =============================================================
 P A R A L L E L I Z A T I O N  and  V E C T O R I Z A T I O N
 =============================================================
  
 Nr of parallel processes:                                1
 Maximum vector length in NumInt loops:                 128



 =====================
 S C F   U P D A T E S
 =====================
  
 Max. nr. of cycles:                               300
 Convergence criterion:                              0.0000010000
   secondary criterion:                              0.0010000000

 Mix parameter (when DIIS does not apply):           0.0500000000
 Mixed ADIIS+SDIIS will be used                  
    Max number of expansion vectors:                10
    Pure ADIIS when Max([F,P]) is above              0.1000000000
    Pure SDIIS when Max([F,P]) is below              0.0010000000
 Automatic ElectronSmearing (in case of problematic SCF convergence) disabled



 =================
 P R E C I S I O N  ***  (General: NumInt, NeglectFunctionTails, ...)  ***
 =================
  

 NumInt:           Target precision:                 6.0000000000
 -------           Initial precision:                6.0000000000
                   Min. precision (optimization):    6.0000000000

 Neglect Functions:          Basis functions:        0.1000000000E-07
 ------------------          Fit functions:          0.1000000000E-07



 ===========================
 L I N E A R   S C A L I N G
 ===========================
  

 Cut-off radii density fit:                        0.1000000000E-09
 Overlap cut-off criterion AO matrix elements:     0.1000000000E-07
 Cut-offs for Coulomb potential and fitted density:0.1000000000E-09
 Cut-off criterion for Coulomb multipole terms:    0.1000000000E-09
 Progressive Convergence parameter:                 0.000000000    

 Number of elements of the density matrix on this node (used, total):     15753     15753



 ===========================================
 Numerical Integration : Fuzzy Cells (Becke)
 ===========================================
  
 Becke grid quality: GOOD           
  
 Lebedev angular grid order:             min:  11 max:  31
 Nr. of radial points:                   min:  54 max:  91

 Total nr. of points:      82237
 Nr. of blocks:              643
 Block length:               128
 Nr. of dummy points:         67


 Test of Precision of the Numerical Integration Grid
 ===================================================

 Integral of the Total Core Density:                   0.00000000000000



 ========================
 Density Fitting (zlmFit)
 ========================
  
 ZlmFit Fit Quality: GOOD           
  
 Max L-expansion:                        min:   8 max:   9
 Nr. of radial interpolation points:     min:  78 max: 144



 =====
 S C F  ***  ScaSCF  ***
 =====
  
 Initial density matrix is taken from previous geometry

 CYCLE    1
  ***********************************************************
  ** : orbital data taken from :/tmp/amstmp_optA_kid0.973058126/GO1_GOStep9.rkf
  ***********************************************************
 SCF Error: norm([F,P])=      0.000000620197, max([F,P])=      0.000000073150
 ***** SPIN 1 *****
 orbitals (Q,E):
 ---------------
 A :20...39          ( 1.00    -0.7010)  ( 1.00    -0.5166)  ( 1.00    -0.4588)  ( 1.00    -0.4361)
                     ( 1.00    -0.4084)  ( 1.00    -0.3826)  ( 1.00    -0.2719)  ( 1.00    -0.2696)
                     ( 1.00    -0.2519)  ( 1.00    -0.2500)  ( 0.00    -0.0641)  ( 0.00    -0.0530)
                     ( 0.00    -0.0074)  ( 0.00     0.0349)  ( 0.00     0.0695)  ( 0.00     0.1066)
                     ( 0.00     0.1201)  ( 0.00     0.1401)  ( 0.00     0.1698)  ( 0.00     0.1731)
 ***** SPIN 2 *****
 orbitals (Q,E):
 ---------------
 A :19...38          ( 1.00    -0.7411)  ( 1.00    -0.6838)  ( 1.00    -0.5086)  ( 1.00    -0.4535)
                     ( 1.00    -0.4304)  ( 1.00    -0.3924)  ( 1.00    -0.3793)  ( 1.00    -0.2655)
                     ( 1.00    -0.2610)  ( 1.00    -0.2502)  ( 0.00    -0.2003)  ( 0.00    -0.0625)
                     ( 0.00    -0.0330)  ( 0.00    -0.0042)  ( 0.00     0.0360)  ( 0.00     0.0713)
                     ( 0.00     0.1075)  ( 0.00     0.1321)  ( 0.00     0.1420)  ( 0.00     0.1708)
  
 Spin polar: 1 (Spin_A minus Spin_B electrons)

 CYCLE    2
  SDIIS (wt  0.000):  0.7614  0.2386
 A-DIIS (wt  1.000):  0.0000  1.0000
  DIIS coefficients:  0.0000  1.0000
 SCF Error: norm([F,P])=      0.000001793428, max([F,P])=      0.000000218670
 ***** SPIN 1 *****
 orbitals (Q,E):
 ---------------
 A :20...30          ( 1.00    -0.7010)  ( 1.00    -0.5166)  ( 1.00    -0.4588)  ( 1.00    -0.4361)
                     ( 1.00    -0.4084)  ( 1.00    -0.3826)  ( 1.00    -0.2719)  ( 1.00    -0.2696)
                     ( 1.00    -0.2519)  ( 1.00    -0.2500)  ( 0.00    -0.0641)
 ***** SPIN 2 *****
 orbitals (Q,E):
 ---------------
 A :19...29          ( 1.00    -0.7411)  ( 1.00    -0.6838)  ( 1.00    -0.5086)  ( 1.00    -0.4535)
                     ( 1.00    -0.4304)  ( 1.00    -0.3924)  ( 1.00    -0.3793)  ( 1.00    -0.2655)
                     ( 1.00    -0.2610)  ( 1.00    -0.2502)  ( 0.00    -0.2003)
  
 Spin polar: 1 (Spin_A minus Spin_B electrons)

 SCF CONVERGED

 CYCLE    3
 ***************************************************************************************************



                                                *******************
                                                *  R E S U L T S  *
                                                *******************
  
 *** Using FIT density in Focky
  SDIIS (wt  0.000):  0.4377  0.4722  0.0901
 A-DIIS (wt  1.000):  0.0000  0.9252  0.0748
  DIIS coefficients:  0.0000  0.9252  0.0748
 SCF Error: norm([F,P])=      0.000007046353, max([F,P])=      0.000000952846


                                   ***** SPIN 1 *****

 Scaled ZORA Orbital Energies, per Irrep and Spin:
 =================================================
                        Occup              E (au)              E (eV)       Diff (eV) with prev. cycle
                        -----      --------------------        ------       --------------------------
 A
              20        1.000     -0.70095262749451E+00       -19.074               1.47E-07
              21        1.000     -0.51662037107681E+00       -14.058              -2.00E-06
              22        1.000     -0.45880841349141E+00       -12.485              -1.49E-06
              23        1.000     -0.43611600535625E+00       -11.867              -4.84E-06
              24        1.000     -0.40839626213541E+00       -11.113              -4.39E-06
              25        1.000     -0.38257203369829E+00       -10.410              -2.14E-06
              26        1.000     -0.27186260867223E+00        -7.398              -5.34E-07
              27        1.000     -0.26955070596093E+00        -7.335              -1.73E-06
              28        1.000     -0.25190295345800E+00        -6.855               1.35E-06
              29        1.000     -0.24999962836010E+00        -6.803               1.44E-07
              30        0.000     -0.64066470533138E-01        -1.743
              31        0.000     -0.52978406656514E-01        -1.442
              32        0.000     -0.73617085046280E-02        -0.200
              33        0.000      0.34871305005355E-01         0.949
              34        0.000      0.69492285525413E-01         1.891
              35        0.000      0.10664799145303E+00         2.902
              36        0.000      0.12005050641791E+00         3.267
              37        0.000      0.14005277552423E+00         3.811
              38        0.000      0.16976237128871E+00         4.619
              39        0.000      0.17313521166705E+00         4.711
  
 HOMO :       29 A                -0.24999962836010E+00
 LUMO :       30 A                -0.64066470533138E-01
  


                                   ***** SPIN 2 *****

 Scaled ZORA Orbital Energies, per Irrep and Spin:
 =================================================
                        Occup              E (au)              E (eV)       Diff (eV) with prev. cycle
                        -----      --------------------        ------       --------------------------
 A
              19        1.000     -0.74110264934814E+00       -20.166               1.53E-06
              20        1.000     -0.68379204435545E+00       -18.607              -6.53E-07
              21        1.000     -0.50859810184503E+00       -13.840              -1.94E-06
              22        1.000     -0.45354362580045E+00       -12.342              -1.49E-06
              23        1.000     -0.43038586380295E+00       -11.711              -4.72E-06
              24        1.000     -0.39243684455688E+00       -10.679              -4.15E-06
              25        1.000     -0.37933660711322E+00       -10.322              -2.08E-06
              26        1.000     -0.26546702443474E+00        -7.224              -1.24E-06
              27        1.000     -0.26098145890745E+00        -7.102               1.69E-06
              28        1.000     -0.25020080215674E+00        -6.808               8.35E-07
              29        0.000     -0.20029263157205E+00        -5.450
              30        0.000     -0.62522861926459E-01        -1.701
              31        0.000     -0.32967601715017E-01        -0.897
              32        0.000     -0.41688833194248E-02        -0.113
              33        0.000      0.35970881845197E-01         0.979
              34        0.000      0.71267281201630E-01         1.939
              35        0.000      0.10752839385408E+00         2.926
              36        0.000      0.13212645028746E+00         3.595
              37        0.000      0.14202190513103E+00         3.865
              38        0.000      0.17077619590729E+00         4.647
  
 HOMO :       28 A                -0.25020080215674E+00
 LUMO :       29 A                -0.20029263157205E+00
  


 Orbital Energies, both Spins
 ========================================

 Irrep        no.  (spin)   Occup              E (au)                E (eV)
 ---------------------------------------------------------------------------
 A             1     A       1.00       -0.48860653025687E+03    -13295.6602
 A             1      B      1.00       -0.48860638019612E+03    -13295.6561
 A             2     A       1.00       -0.63550346521224E+02     -1729.2929
 A             2      B      1.00       -0.63550258463359E+02     -1729.2905
 A             3     A       1.00       -0.56082272745634E+02     -1526.0763
 A             3      B      1.00       -0.56082229579781E+02     -1526.0751
 A             4     A       1.00       -0.56079480883839E+02     -1526.0003
 A             4      B      1.00       -0.56079147277504E+02     -1525.9912
 A             5     A       1.00       -0.56078559555656E+02     -1525.9752
 A             5      B      1.00       -0.56078491103085E+02     -1525.9734
 A             6     A       1.00       -0.18836451054710E+02      -512.5659
 A             6      B      1.00       -0.18831626817462E+02      -512.4346
 A             7      B      1.00       -0.10060876554817E+02      -273.7704
 A             7     A       1.00       -0.10060117066195E+02      -273.7497
 A             8     A       1.00       -0.99946388132898E+01      -271.9680
 A             8      B      1.00       -0.99841620615688E+01      -271.6829
 A             9     A       1.00       -0.86749582859466E+01      -236.0576
 A             9      B      1.00       -0.86747642594481E+01      -236.0523
 A            10     A       1.00       -0.63374720952635E+01      -172.4514
 A            10      B      1.00       -0.63374082472062E+01      -172.4497
 A            11     A       1.00       -0.63289386940284E+01      -172.2192
 A            11      B      1.00       -0.63284456646478E+01      -172.2058
 A            12     A       1.00       -0.63265840370720E+01      -172.1551
 A            12      B      1.00       -0.63264850065667E+01      -172.1524
 A            13     A       1.00       -0.24230584802899E+01       -65.9348
 A            13      B      1.00       -0.24228810042466E+01       -65.9299
 A            14     A       1.00       -0.24212210718765E+01       -65.8848
 A            14      B      1.00       -0.24208404850358E+01       -65.8744
 A            15     A       1.00       -0.24195645446739E+01       -65.8397
 A            15      B      1.00       -0.24195403677645E+01       -65.8390
 A            16     A       1.00       -0.24131388388986E+01       -65.6648
 A            17     A       1.00       -0.24130896476624E+01       -65.6635
 A            16      B      1.00       -0.24127263372108E+01       -65.6536
 A            17      B      1.00       -0.24127129914956E+01       -65.6533
 A            18     A       1.00       -0.10048752425293E+01       -27.3440
 A            18      B      1.00       -0.99727368022151E+00       -27.1372
 A            19     A       1.00       -0.74787380655605E+00       -20.3507
 A            19      B      1.00       -0.74110264934814E+00       -20.1664
 A            20     A       1.00       -0.70095262749451E+00       -19.0739
 A            20      B      1.00       -0.68379204435545E+00       -18.6069
 A            21     A       1.00       -0.51662037107681E+00       -14.0580
 A            21      B      1.00       -0.50859810184503E+00       -13.8397
 A            22     A       1.00       -0.45880841349141E+00       -12.4848
 A            22      B      1.00       -0.45354362580045E+00       -12.3416
 A            23     A       1.00       -0.43611600535625E+00       -11.8673
 A            23      B      1.00       -0.43038586380295E+00       -11.7114
 A            24     A       1.00       -0.40839626213541E+00       -11.1130
 A            24      B      1.00       -0.39243684455688E+00       -10.6787
 A            25     A       1.00       -0.38257203369829E+00       -10.4103
 A            25      B      1.00       -0.37933660711322E+00       -10.3223
 A            26     A       1.00       -0.27186260867223E+00        -7.3978
 A            27     A       1.00       -0.26955070596093E+00        -7.3348
 A            26      B      1.00       -0.26546702443474E+00        -7.2237
 A            27      B      1.00       -0.26098145890745E+00        -7.1017
 A            28     A       1.00       -0.25190295345800E+00        -6.8546
 A            28      B      1.00       -0.25020080215674E+00        -6.8083
 A            29     A       1.00       -0.24999962836010E+00        -6.8028
 A            29      B      0.00       -0.20029263157205E+00        -5.4502
 A            30     A       0.00       -0.64066470533138E-01        -1.7433
 A            30      B      0.00       -0.62522861926459E-01        -1.7013
 A            31     A       0.00       -0.52978406656514E-01        -1.4416
 A            31      B      0.00       -0.32967601715017E-01        -0.8971
 A            32     A       0.00       -0.73617085046280E-02        -0.2003
 A            32      B      0.00       -0.41688833194248E-02        -0.1134
 A            33     A       0.00        0.34871305005355E-01         0.9489
 A            33      B      0.00        0.35970881845197E-01         0.9788
 A            34     A       0.00        0.69492285525413E-01         1.8910
 A            34      B      0.00        0.71267281201630E-01         1.9393
 A            35     A       0.00        0.10664799145303E+00         2.9020
 A            35      B      0.00        0.10752839385408E+00         2.9260
 A            36     A       0.00        0.12005050641791E+00         3.2667
 A            36      B      0.00        0.13212645028746E+00         3.5953
 A            37     A       0.00        0.14005277552423E+00         3.8110
 A            37      B      0.00        0.14202190513103E+00         3.8646
 A            38     A       0.00        0.16976237128871E+00         4.6195
 A            38      B      0.00        0.17077619590729E+00         4.6471
 A            39     A       0.00        0.17313521166705E+00         4.7112
 A            40     A       0.00        0.17474404283334E+00         4.7550
 A            39      B      0.00        0.18181506819884E+00         4.9474
 A            40      B      0.00        0.18503720894531E+00         5.0351
 A            41     A       0.00        0.21296092047085E+00         5.7950
 A            41      B      0.00        0.21948394169583E+00         5.9725
 A            42     A       0.00        0.22885793353750E+00         6.2275
 A            42      B      0.00        0.23882369058479E+00         6.4987
 A            43     A       0.00        0.25335101220756E+00         6.8940
 A            43      B      0.00        0.25900554020140E+00         7.0479
 A            44     A       0.00        0.28326033116320E+00         7.7079
 A            44      B      0.00        0.28675672819012E+00         7.8030
 A            45     A       0.00        0.29231716174012E+00         7.9544
 A            45      B      0.00        0.29790018371600E+00         8.1063
 A            46     A       0.00        0.32731742372507E+00         8.9068
 A            46      B      0.00        0.33132611569810E+00         9.0158
 A            47     A       0.00        0.33758911868057E+00         9.1863
 A            47      B      0.00        0.34192815558085E+00         9.3043
 A            48     A       0.00        0.35966346553402E+00         9.7869
 A            48      B      0.00        0.36615316993789E+00         9.9635
 A            49     A       0.00        0.42076633567567E+00        11.4496
 A            49      B      0.00        0.42207094960918E+00        11.4851
 A            50     A       0.00        0.44606939074453E+00        12.1382
 A            50      B      0.00        0.45036561229949E+00        12.2551
 A            51     A       0.00        0.47128296188653E+00        12.8243
 A            51      B      0.00        0.47960291803157E+00        13.0507
 A            52     A       0.00        0.54687134442468E+00        14.8811
 A            52      B      0.00        0.55030304924031E+00        14.9745
 A            53     A       0.00        0.55876628286574E+00        15.2048
 A            54     A       0.00        0.56902948915241E+00        15.4841
 A            53      B      0.00        0.56929359977524E+00        15.4913
 A            54      B      0.00        0.57376858895556E+00        15.6130
 A            55     A       0.00        0.61261239431519E+00        16.6700
 A            55      B      0.00        0.61700114050690E+00        16.7895
 A            56     A       0.00        0.63564485715781E+00        17.2968
 A            56      B      0.00        0.64138637425566E+00        17.4530
 A            57     A       0.00        0.68799027017653E+00        18.7212
 A            57      B      0.00        0.69251764642059E+00        18.8444
 A            58     A       0.00        0.76248427864694E+00        20.7483
 A            58      B      0.00        0.76991492281753E+00        20.9505
 A            59     A       0.00        0.79901353987812E+00        21.7423
 A            59      B      0.00        0.80371684392618E+00        21.8702
 A            60     A       0.00        0.83108295928832E+00        22.6149
 A            60      B      0.00        0.83333914524287E+00        22.6763
 A            61     A       0.00        0.84790000222867E+00        23.0725
 A            61      B      0.00        0.84996830626635E+00        23.1288
 A            62     A       0.00        0.86842411657868E+00        23.6310
 A            63     A       0.00        0.87321771438779E+00        23.7615
 A            62      B      0.00        0.87390264816944E+00        23.7801
 A            63      B      0.00        0.87899793662731E+00        23.9188
 A            64     A       0.00        0.88658189058553E+00        24.1251
 A            64      B      0.00        0.88917043168434E+00        24.1956
 A            65     A       0.00        0.91564849561703E+00        24.9161
 A            65      B      0.00        0.92041606010337E+00        25.0458
 A            66     A       0.00        0.93806596108991E+00        25.5261
 A            66      B      0.00        0.93889719809546E+00        25.5487
 A            67     A       0.00        0.98885350997588E+00        26.9081
 A            67      B      0.00        0.99120685536828E+00        26.9721
 A            68     A       0.00        0.10780408748475E+01        29.3350
 A            68      B      0.00        0.10834007760909E+01        29.4808
 A            69     A       0.00        0.10948714890794E+01        29.7930
 A            69      B      0.00        0.11029485465393E+01        30.0128
 A            70     A       0.00        0.11138523578294E+01        30.3095
 A            70      B      0.00        0.11272920575741E+01        30.6752
 A            71     A       0.00        0.11511565807309E+01        31.3246
 A            71      B      0.00        0.11624702277353E+01        31.6324
 A            72     A       0.00        0.11708581109369E+01        31.8607
 A            72      B      0.00        0.11832720952839E+01        32.1985
 A            73     A       0.00        0.12220012603126E+01        33.2523
 A            73      B      0.00        0.12268177161864E+01        33.3834
 A            74     A       0.00        0.12428132937151E+01        33.8187
 A            74      B      0.00        0.12474342311550E+01        33.9444
 A            75     A       0.00        0.12584989380522E+01        34.2455
 A            75      B      0.00        0.12608743028321E+01        34.3101
 A            76     A       0.00        0.13750020477029E+01        37.4157
[...]
                                    4.32%     2 D:z2            7.341  0.00     3 Br
                                    3.16%     1 P:x            -5.239  0.67     2 C
                                    2.86%     2 S               2.394  0.00     5 H
                                   -2.50%     3 S              10.158  0.00     2 C
                                    2.18%     4 S             -19.946  2.00     3 Br
                                    2.06%     2 D:xz            7.341  0.00     3 Br
                                   -1.90%     5 S               6.099  0.00     3 Br
                                    1.88%     1 P:y            -5.239  0.67     1 C
                                    1.44%     1 P:y            -9.020  1.33     4 O
                                   -1.42%     2 P:z             4.589  0.00     1 C
                                    1.39%     1 P:x            -9.020  1.33     4 O
                                    1.39%     1 P:y            -5.239  0.67     2 C
                                    1.28%     2 S             -13.620  2.00     1 C
      -0.897  0.00    31 A         42.45%     1 P:x            -5.239  0.67     2 C
                                   25.82%     1 P:x            -5.239  0.67     1 C
                                   17.43%     1 P:x            -9.020  1.33     4 O
                                   -6.77%     2 P:x             4.589  0.00     2 C
                                    6.55%     1 P:z            -5.239  0.67     2 C
                                    4.20%     1 P:z            -5.239  0.67     1 C
                                    2.70%     1 P:z            -9.020  1.33     4 O
                                   -2.21%     2 P:x             9.437  0.00     4 O
                                    2.15%     3 P:x            -7.716  1.67     3 Br
                                    1.69%     1 P:x            11.051  0.00     5 H
                                    1.51%     2 D:xz            7.341  0.00     3 Br
                                    1.33%     1 P:x            11.051  0.00     6 H
                                   -1.08%     2 P:z             4.589  0.00     2 C
      -0.113  0.00    32 A         49.52%     2 S               2.394  0.00     6 H
                                   34.56%     1 S              -6.532  1.00     6 H
                                   28.95%     2 S               2.394  0.00     5 H
                                   11.57%     1 S              -6.532  1.00     5 H
                                   -9.83%     2 P:y             4.589  0.00     1 C
                                   -7.33%     3 S              10.158  0.00     1 C
                                   -3.53%     5 S               6.099  0.00     3 Br
                                   -3.24%     2 P:y             4.589  0.00     2 C
                                    3.17%     1 P:y            -5.239  0.67     1 C
                                   -3.08%     3 S              10.158  0.00     2 C
                                   -2.12%     3 S              40.869  0.00     6 H
                                   -1.94%     2 S             -13.620  2.00     2 C
                                    1.76%     2 S             -13.620  2.00     1 C
       0.979  0.00    33 A        -48.34%     2 P:z             4.589  0.00     1 C
                                   43.79%     1 S              -6.532  1.00     5 H
                                   37.31%     2 S               2.394  0.00     5 H
                                   26.39%     1 S              -6.532  1.00     6 H
                                   17.18%     2 S               2.394  0.00     6 H
                                   10.62%     2 P:z             4.589  0.00     2 C
                                   -7.06%     2 P:x             4.589  0.00     1 C
                                    5.00%     1 P:z            -5.239  0.67     2 C
                                    4.07%     4 P:z             3.720  0.00     3 Br
                                   -3.91%     5 S               6.099  0.00     3 Br
                                    3.85%     1 P:z            -5.239  0.67     1 C
                                    2.75%     3 S              40.869  0.00     5 H
                                    2.38%     3 S              40.869  0.00     6 H
                                   -1.95%     2 P:y             4.589  0.00     1 C
                                    1.81%     2 P:x             4.589  0.00     2 C
                                    1.58%     1 P:y            -5.239  0.67     2 C
                                   -1.30%     2 P:z             9.437  0.00     4 O
                                    1.17%     3 P:z            54.789  0.00     1 C
                                    1.12%     1 P:z            11.051  0.00     5 H
       1.939  0.00    34 A         78.94%     2 P:y             4.589  0.00     1 C
                                   22.60%     1 P:y            -5.239  0.67     1 C
                                   19.77%     2 P:y             4.589  0.00     2 C
                                   17.76%     1 P:y            -5.239  0.67     2 C
                                  -15.63%     3 S              10.158  0.00     2 C
                                   -7.40%     5 S               6.099  0.00     3 Br
                                   -4.46%     3 S              10.158  0.00     1 C
                                    4.21%     2 S             -13.620  2.00     1 C
                                   -3.77%     2 S             -13.620  2.00     2 C
                                   -3.02%     1 S              -6.532  1.00     6 H
                                   -2.64%     1 S              -6.532  1.00     5 H
                                   -2.52%     2 S               2.394  0.00     5 H
                                   -2.42%     3 P:y            54.789  0.00     2 C
                                   -2.21%     3 P:y            54.789  0.00     1 C
                                   -2.08%     3 S              21.524  0.00     4 O
                                    1.87%     1 P:z            -5.239  0.67     1 C
                                   -1.13%     3 P:z            -7.716  1.67     3 Br
                                   -1.05%     2 P:y             9.437  0.00     4 O
       2.926  0.00    35 A         36.77%     4 P:z             3.720  0.00     3 Br
                                   32.98%     2 P:z             4.589  0.00     2 C
                                   12.48%     1 P:z            -5.239  0.67     2 C
                                  -10.11%     3 S              21.524  0.00     4 O
                                   -8.52%     5 S               6.099  0.00     3 Br
                                    5.76%     4 P:x             3.720  0.00     3 Br
                                    5.10%     1 P:y            -5.239  0.67     2 C
                                   -5.04%     2 S               2.394  0.00     5 H
                                    4.99%     1 S              -6.532  1.00     5 H
                                    4.54%     2 P:x             4.589  0.00     2 C
                                    4.10%     2 S             -13.620  2.00     2 C
                                    2.32%     2 P:y             4.589  0.00     2 C
                                    2.13%     2 D:z2            7.341  0.00     3 Br
                                    2.10%     1 P:z            -5.239  0.67     1 C
                                    2.03%     2 S             -23.838  2.00     4 O
                                    2.03%     1 S              -6.532  1.00     6 H
                                    1.68%     2 D:yz            7.341  0.00     3 Br
                                    1.43%     1 P:x            -5.239  0.67     2 C
                                    1.43%     1 P:y            11.051  0.00     6 H
                                   -1.21%     2 P:y             4.589  0.00     1 C
                                    1.17%     1 P:y            -9.020  1.33     4 O
                                   -1.14%     3 P:z            -7.716  1.67     3 Br
       3.595  0.00    36 A         42.74%     4 P:x             3.720  0.00     3 Br
                                   23.14%     2 P:x             4.589  0.00     1 C
                                   19.37%     2 P:x             4.589  0.00     2 C
                                    6.79%     4 P:z             3.720  0.00     3 Br
                                    3.45%     2 P:z             4.589  0.00     1 C
                                    3.16%     2 P:z             4.589  0.00     2 C

 Energy gradients wrt nuclear displacements
 ==========================================

     Atom      Cartesian (a.u./angstrom)
                 X         Y         Z
 ----------------------------------------
     1 C    -0.000129  0.000308 -0.000106
     2 C    -0.000031  0.000198  0.000059
     3 Br    0.000110 -0.000073 -0.000121
     4 O    -0.000013 -0.000053 -0.000139
     5 H    -0.000066 -0.000168  0.000125
     6 H     0.000128 -0.000211  0.000183
 ----------------------------------------



 =======================================================================
 Electrostatic potential at the Nuclei due to electrons and other nuclei
 =======================================================================
  
         Atom                  Potential
         ----                  ---------
     1)   C                  14.72429210
     2)   C                  14.65435814
     3)   Br                180.54655245
     4)   O                  22.36539319
     5)   H                   1.04857423
     6)   H                   1.05106853
 Mulliken charges used for AMS results%charges...


    =====================
     CALCULATION RESULTS
    =====================

Energy (hartree)            -1.13345946

Gradients (hartree/bohr)
  Index   Atom            d/dx            d/dy            d/dz
      1      C   -0.0000681679    0.0001627780   -0.0000562581
      2      C   -0.0000161957    0.0001045954    0.0000311818
      3     Br    0.0000582754   -0.0000388793   -0.0000641455
      4      O   -0.0000068293   -0.0000280010   -0.0000734189
      5      H   -0.0000350357   -0.0000887287    0.0000659040
      6      H    0.0000679532   -0.0001117643    0.0000967367


--------------
Atomic charges
--------------
  Index   Atom    Charge
      1      C    0.4240
      2      C    0.4731
      3     Br   -0.2498
      4      O   -0.3995
      5      H   -0.1279
      6      H   -0.1198


Dipole moment vector    (Debye):    -0.43475368    2.85361656   -0.73381357
              magnitude (Debye):     2.97835870


-----------------------
Molecular orbitals info
-----------------------
n orbitals:              156
n spin:                    2

Note: only printing virtual orbitals with
      energy smaller than HOMO + 100. eV

                     spin-alpha   spin-beta
HOMO (eV):              -6.8028     -6.8083
LUMO (eV):              -1.7433     -5.4502
HOMO-LUMO gap (eV):      5.0595      1.3581

Smallest gap (eV):       1.3526

          |======= spin-alpha =======|       |======= spin-beta ========|

   Index   Energy (eV)    Occupation          Energy (eV)    Occupation
     107       92.2208         0.000              92.7536         0.000       
     106       91.8347         0.000              92.0933         0.000       
     105       90.6923         0.000              91.1301         0.000       
     104       88.4506         0.000              88.6924         0.000       
     103       85.4997         0.000              85.6660         0.000       
     102       82.8423         0.000              83.0399         0.000       
     101       79.5543         0.000              79.7347         0.000       
     100       79.1669         0.000              79.6272         0.000       
      99       78.7545         0.000              78.8722         0.000       
      98       77.3006         0.000              77.5896         0.000       
      97       76.1576         0.000              76.1648         0.000       
      96       75.7141         0.000              75.7386         0.000       
      95       74.1645         0.000              74.3738         0.000       
      94       71.9766         0.000              72.0910         0.000       
      93       71.6401         0.000              71.8116         0.000       
      92       69.6986         0.000              69.7276         0.000       
      91       68.2430         0.000              68.3529         0.000       
      90       67.2690         0.000              67.5856         0.000       
      89       65.0628         0.000              65.1146         0.000       
      88       61.7693         0.000              62.4154         0.000       
      87       61.4478         0.000              61.6130         0.000       
      86       58.6833         0.000              58.7777         0.000       
      85       55.6651         0.000              56.2755         0.000       
      84       53.0354         0.000              53.1367         0.000       
      83       50.9817         0.000              51.5745         0.000       
      82       49.1574         0.000              49.3119         0.000       
      81       45.8858         0.000              46.2330         0.000       
      80       43.2662         0.000              43.9966         0.000       
      79       42.9776         0.000              43.4376         0.000       
      78       40.6606         0.000              40.8086         0.000       
      77       38.1081         0.000              38.6808         0.000       
      76       37.4157         0.000              37.4783         0.000       
      75       34.2455         0.000              34.3101         0.000       
      74       33.8187         0.000              33.9444         0.000       
      73       33.2523         0.000              33.3834         0.000       
      72       31.8607         0.000              32.1985         0.000       
      71       31.3246         0.000              31.6324         0.000       
      70       30.3095         0.000              30.6752         0.000       
      69       29.7930         0.000              30.0128         0.000       
      68       29.3350         0.000              29.4808         0.000       
      67       26.9081         0.000              26.9721         0.000       
      66       25.5261         0.000              25.5487         0.000       
      65       24.9161         0.000              25.0458         0.000       
      64       24.1251         0.000              24.1956         0.000       
      63       23.7615         0.000              23.9188         0.000       
      62       23.6310         0.000              23.7801         0.000       
      61       23.0725         0.000              23.1288         0.000       
      60       22.6149         0.000              22.6763         0.000       
      59       21.7423         0.000              21.8702         0.000       
      58       20.7483         0.000              20.9505         0.000       
      57       18.7212         0.000              18.8444         0.000       
      56       17.2968         0.000              17.4530         0.000       
      55       16.6700         0.000              16.7895         0.000       
      54       15.4841         0.000              15.6130         0.000       
      53       15.2048         0.000              15.4913         0.000       
      52       14.8811         0.000              14.9745         0.000       
      51       12.8243         0.000              13.0507         0.000       
      50       12.1382         0.000              12.2551         0.000       
      49       11.4496         0.000              11.4851         0.000       
      48        9.7869         0.000               9.9635         0.000       
      47        9.1863         0.000               9.3043         0.000       
      46        8.9068         0.000               9.0158         0.000       
      45        7.9544         0.000               8.1063         0.000       
      44        7.7079         0.000               7.8030         0.000       
      43        6.8940         0.000               7.0479         0.000       
      42        6.2275         0.000               6.4987         0.000       
      41        5.7950         0.000               5.9725         0.000       
      40        4.7550         0.000               5.0351         0.000       
      39        4.7112         0.000               4.9474         0.000       
      38        4.6195         0.000               4.6471         0.000       
      37        3.8110         0.000               3.8646         0.000       
      36        3.2667         0.000               3.5953         0.000       
      35        2.9020         0.000               2.9260         0.000       
      34        1.8910         0.000               1.9393         0.000       
      33        0.9489         0.000               0.9788         0.000       
      32       -0.2003         0.000              -0.1134         0.000       
      31       -1.4416         0.000              -0.8971         0.000       
      30       -1.7433         0.000 < LUMO       -1.7013         0.000       
      29       -6.8028         1.000 < HOMO       -5.4502         0.000 < LUMO
      28       -6.8546         1.000              -6.8083         1.000 < HOMO
      27       -7.3348         1.000              -7.1017         1.000       
      26       -7.3978         1.000              -7.2237         1.000       
      25      -10.4103         1.000             -10.3223         1.000       
      24      -11.1130         1.000             -10.6787         1.000       
      23      -11.8673         1.000             -11.7114         1.000       
      22      -12.4848         1.000             -12.3416         1.000       
      21      -14.0580         1.000             -13.8397         1.000       
      20      -19.0739         1.000             -18.6069         1.000       
      19      -20.3507         1.000             -20.1664         1.000       
      18      -27.3440         1.000             -27.1372         1.000       
      17      -65.6635         1.000             -65.6533         1.000       
      16      -65.6648         1.000             -65.6536         1.000       
      15      -65.8397         1.000             -65.8390         1.000       
      14      -65.8848         1.000             -65.8744         1.000       
      13      -65.9348         1.000             -65.9299         1.000       
      12     -172.1551         1.000            -172.1524         1.000       
      11     -172.2192         1.000            -172.2058         1.000       
      10     -172.4514         1.000            -172.4497         1.000       
       9     -236.0576         1.000            -236.0523         1.000       
       8     -271.9680         1.000            -271.6829         1.000       
       7     -273.7497         1.000            -273.7704         1.000       
       6     -512.5659         1.000            -512.4346         1.000       
       5    -1525.9752         1.000           -1525.9734         1.000       
       4    -1526.0003         1.000           -1525.9912         1.000       
       3    -1526.0763         1.000           -1526.0751         1.000       
       2    -1729.2929         1.000           -1729.2905         1.000       
       1   -13295.6602         1.000          -13295.6561         1.000       

AMS application finished. Exiting.
NORMAL TERMINATION
     Total cpu time:     339.72
  Total system time:       2.57
 Total elapsed time:     343.89
