
 *******************************************************************************
 *                                                                             *
 *  --------------------------------                                           *
 *   Amsterdam Modeling Suite (AMS)              2026.103                      *
 *  --------------------------------                                           *
 *                                               r260501 2026-05-01 873454b5   *
 *                                                                             *
 *                                                                             *
 *                              =================                              *
 *                              |               |                              *
 *                              |     A M S     |                              *
 *                              |               |                              *
 *                              =================                              *
 *                                                                             *
 *                                                                             *
 *   Online information and documentation:  https://www.scm.com/support/       *
 *   E-mail:  support@scm.com   info@scm.com                                   *
 *                                                                             *
 *   Scientific publications using AMS results must be properly referenced     *
 *   See the User Manuals (or the web site) for recommended citations          *
 *   The terms and conditions of the End User License Agreement apply to       *
 *   the use of AMS, https://www.scm.com/license-terms/                        *
 *                                                                             *
 **********************  x86_64_linux_intel / intelmpi  ************************
 
 Licensed to: Jong-June Jeon / University of Seoul 2026-05-13 16:10:32
 SCM User ID: u30731
  
 AMS 2026.103  RunTime: May30-2026 06:42:44  ShM Nodes: 1  Procs: 1

 AMS jobname: c4_fragA_opt
 AMS jobid  : 1875814199

 Start   directory: /gpfs/home1/yeseo1ee/projects/eda-asm-prediction/adf_outputs/batch_000/dipolar_000757/
 Results directory: /gpfs/home1/yeseo1ee/projects/eda-asm-prediction/adf_outputs/batch_000/dipolar_000757/c4_fragA_opt.results/
 Scratch directory: /tmp/amstmp_c4_fragA_opt_kid0.1875814199/

 RNG seed: 1812274453 1745468969 2041103566 1453181820 857928316 1189816995 721148908 -833879390



                      ************************************************************************
                      *  ADF 2026.103  RunTime: May30-2026 06:42:44  ShM Nodes: 1  Procs: 1  *
                      ************************************************************************
  

       ***************************
       *  GEOMETRY OPTIMIZATION  *
       ***************************

Optimization Method                    Quasi Newton
Optimization Coordinates               Delocalized Coordinates
Optimize lattice                       F
 
 ------------------------------------------------------
 Convergence criteria (Hartree,Angstrom)
 ------------------------------------------------------
 Maximum gradient               0.000100000000
 Maximum rms gradient           0.000066666667
 Maximum step allowed           0.010000000000
 Maximum rms step allowed       0.006666666667
 Maximum energy change allowe   0.000230000000
 Maximum stress energy allowe   0.000500000000
 
Initial model Hessian                  Automatic Hessian
 
------------------------------------
Quasi-Newton Optimizer Parameters
------------------------------------
Hessian Update Method                  BFGS
Maximum number of steps                  200
First GDIIS cycle                          0
Maximum GDIIS vectors                      0
Trust radius (bohr)                        0.200000
Trust radius varies                        T
Constraints converged at all steps         T
Use projector                              T
 
 Rigid motions settings for: old optimizer
 Atomic rotations (x,y,z):     T T T
 Atomic translations (x,y,z):  T T T
 Tolerance:                  1.000000000000000E-006

--------
Geometry
--------
Formula: C6H11N3O3
Atoms
  Index Symbol   x (angstrom)   y (angstrom)   z (angstrom)
      1      C     4.20917000     0.70598000    -1.99738000
      2      N     2.87380000     0.45982000    -1.49464000
      3      C     2.17684000     1.43848000    -0.86220000
      4      O     2.60110000     2.60218000    -0.78103000
      5      N     0.91835000     1.02880000    -0.43506000
      6      N     0.39101000     1.62630000     0.61965000
      7      C     1.24733000     1.95143000     1.78119000
      8      C    -0.90685000     1.41612000     0.86752000
      9      C    -1.97861000     1.29777000    -0.12623000
     10      O    -3.11795000     0.99808000     0.20726000
     11      O    -1.64465000     1.60659000    -1.38064000
     12      C    -2.67034000     1.45758000    -2.36916000
     13      H     4.21871000     1.59139000    -2.64943000
     14      H     4.53451000    -0.16292000    -2.58376000
     15      H     4.94065000     0.87591000    -1.18763000
     16      H     2.58814000    -0.50008000    -1.33987000
     17      H     0.63999000     2.44123000     2.54872000
     18      H     1.66977000     1.01442000     2.17192000
     19      H     2.05093000     2.61865000     1.45832000
     20      H    -1.24836000     1.64979000     1.87347000
     21      H    -2.21714000     1.76082000    -3.32027000
     22      H    -3.53390000     2.09827000    -2.13917000
     23      H    -2.99576000     0.40865000    -2.42352000

Total System Charge              0.00000


----------------
ADF Engine Input
----------------
 
   Basis
     Type TZ2P
     Core None
   End
   XC
     GGA BLYP
     Dispersion GRIMME3 BJDAMP
   End
   Symmetry NOSYM
   NumericalQuality Normal
   Unrestricted No
   SCF
     Iterations 200
     Converge 1.0e-6
   End
   Save TAPE21
 

 Title: *** (NO TITLE) ***

 Using automatic Hessian for delocalized coordinates.
 *** GO1_GOStep1 ***

 Energy gradients wrt nuclear displacements
 ==========================================

     Atom      Cartesian (a.u./angstrom)
                 X         Y         Z
 ----------------------------------------
     1 C    -0.020092 -0.002351  0.008225
     2 N    -0.001993  0.026749  0.005255
     3 C     0.003813 -0.042338 -0.008856
     4 O    -0.010512 -0.011393 -0.002564
     5 N    -0.003259  0.014530  0.019495
     6 N     0.014007  0.069716 -0.001350
     7 C    -0.018331 -0.020758 -0.021823
     8 C     0.015064 -0.054058 -0.010728
     9 C     0.006511  0.014244 -0.019350
    10 O     0.017388  0.006751 -0.012689
    11 O    -0.036124 -0.008320  0.021168
    12 C     0.019172  0.000690  0.018103
    13 H     0.002131  0.003519 -0.004795
    14 H     0.002212 -0.001981 -0.001960
    15 H     0.003292 -0.000682  0.002782
    16 H     0.005520  0.000080  0.003060
    17 H    -0.002209  0.001627  0.002601
    18 H     0.002721 -0.004622  0.003853
    19 H     0.003735  0.002602  0.001773
    20 H    -0.001387  0.005287  0.004127
    21 H    -0.000056  0.001017 -0.005507
    22 H    -0.002571  0.004292  0.000346
    23 H     0.000967 -0.004599 -0.001166
 ----------------------------------------
 
----------------------------------------------------------------------
Geometry Convergence after Step   1       (Hartree/Angstrom,Angstrom)
----------------------------------------------------------------------
current energy                               -4.85898444 Hartree
energy change                      -4.85898444     0.00023000    F
constrained gradient max            0.06974111     0.00010000    F
constrained gradient rms            0.01592114     0.00006667    F
gradient max                        0.06974111
gradient rms                        0.01592114
cart. step max                      0.12669408     0.01000000    F
cart. step rms                      0.04457478     0.00666667    F
 

--------
Geometry
--------
Formula: C6H11N3O3
Atoms
  Index Symbol   x (angstrom)   y (angstrom)   z (angstrom)
      1      C     4.26491557     0.72195052    -1.96701757
      2      N     2.90490638     0.48264049    -1.51245697
      3      C     2.20524098     1.44956838    -0.83994013
      4      O     2.64707288     2.60416677    -0.67616913
      5      N     0.93023585     1.00059639    -0.47364897
      6      N     0.38707222     1.58127305     0.59170696
      7      C     1.26362749     1.92439127     1.74650719
      8      C    -0.92321759     1.44394204     0.85585292
      9      C    -2.01943590     1.32222112    -0.11424895
     10      O    -3.16778281     1.07975654     0.26304146
     11      O    -1.68016158     1.56380575    -1.39858392
     12      C    -2.73646652     1.42897618    -2.37021279
     13      H     4.30859612     1.64259898    -2.56184969
     14      H     4.58178285    -0.11903502    -2.59447451
     15      H     4.97647186     0.82703516    -1.13152154
     16      H     2.58554583    -0.47556590    -1.42365054
     17      H     0.67217674     2.43592598     2.50975406
     18      H     1.67941354     0.99212756     2.14737163
     19      H     2.06683129     2.57430580     1.39472310
     20      H    -1.23899858     1.71321448     1.85861287
     21      H    -2.27980424     1.66650153    -3.33559150
     22      H    -3.55882828     2.12336833    -2.15572800
     23      H    -3.12245408     0.40149461    -2.37441600

Total System Charge              0.00000

 *** GO1_GOStep2 ***

 Energy gradients wrt nuclear displacements
 ==========================================

     Atom      Cartesian (a.u./angstrom)
                 X         Y         Z
 ----------------------------------------
     1 C    -0.011388 -0.001098  0.004277
     2 N    -0.001624  0.008686  0.001105
     3 C    -0.005626 -0.025870 -0.001281
     4 O    -0.001949  0.008580  0.003565
     5 N     0.004967 -0.004009  0.005338
     6 N     0.014748  0.053708 -0.005567
     7 C    -0.009612 -0.016939 -0.017795
     8 C    -0.003465 -0.041615  0.005080
     9 C     0.014387  0.013048 -0.013477
    10 O    -0.006894 -0.001085  0.002249
    11 O    -0.018360  0.000282  0.004613
    12 C     0.012963  0.000315  0.010516
    13 H     0.001570  0.001500 -0.002341
    14 H     0.001519 -0.001066 -0.001042
    15 H     0.002209 -0.000493  0.001193
    16 H     0.004954 -0.001477  0.002804
    17 H    -0.000237  0.001651  0.001385
    18 H     0.001903 -0.001705  0.002457
    19 H     0.003687  0.001714  0.000570
    20 H    -0.001566  0.005884  0.001463
    21 H    -0.000623  0.000296 -0.003235
    22 H    -0.001559  0.002086 -0.000691
    23 H    -0.000002 -0.002394 -0.001187
 ----------------------------------------

 dE(predicted):    -0.62455E-02, dE(actual):    -0.55749E-02, Trust radius:    0.400000, all in a.u.
 
----------------------------------------------------------------------
Geometry Convergence after Step   2       (Hartree/Angstrom,Angstrom)
----------------------------------------------------------------------
current energy                               -4.86455933 Hartree
energy change                      -0.00557489     0.00023000    F
constrained gradient max            0.05370056     0.00010000    F
constrained gradient rms            0.01083020     0.00006667    F
gradient max                        0.05370056
gradient rms                        0.01083020
cart. step max                      0.21357271     0.01000000    F
cart. step rms                      0.08414159     0.00666667    F
 

--------
Geometry
--------
Formula: C6H11N3O3
Atoms
  Index Symbol   x (angstrom)   y (angstrom)   z (angstrom)
      1      C     4.20021862     0.72077656    -2.07610058
      2      N     2.84127384     0.53420036    -1.58026021
      3      C     2.23800909     1.47570886    -0.77664876
      4      O     2.75672760     2.58249976    -0.54490348
      5      N     0.94517757     1.04276362    -0.41475893
      6      N     0.38803463     1.57308260     0.67548626
      7      C     1.22639705     1.93317135     1.86787181
      8      C    -0.93436012     1.51789757     0.88528671
      9      C    -1.99701907     1.35323756    -0.11612953
     10      O    -3.16412219     1.16994873     0.22834170
     11      O    -1.58742712     1.48010301    -1.40604065
     12      C    -2.63040534     1.33833961    -2.40318473
     13      H     4.28659401     1.69795650    -2.56228234
     14      H     4.41876194    -0.06336249    -2.80804722
     15      H     4.94968596     0.67747096    -1.27111172
     16      H     2.43893709    -0.39654198    -1.58685744
     17      H     0.60481889     2.44538722     2.60417342
     18      H     1.62873311     1.00491369     2.28492919
     19      H     2.03404288     2.58297668     1.53421921
     20      H    -1.27514629     1.80185644     1.87308804
     21      H    -2.12868736     1.47223910    -3.36385703
     22      H    -3.40834893     2.09735105    -2.26442344
     23      H    -3.08515585     0.34328321    -2.34073029

Total System Charge              0.00000

 *** GO1_GOStep3 ***

 Energy gradients wrt nuclear displacements
 ==========================================

     Atom      Cartesian (a.u./angstrom)
                 X         Y         Z
 ----------------------------------------
     1 C    -0.002704 -0.000859  0.001553
     2 N    -0.002815  0.003267 -0.002772
     3 C     0.000004 -0.010473  0.001368
     4 O     0.001985  0.006314 -0.003744
     5 N     0.002465 -0.006914 -0.010722
     6 N     0.004652  0.028867  0.006555
     7 C    -0.006226 -0.008641 -0.004375
     8 C    -0.004601 -0.024603  0.008275
     9 C     0.004215  0.007133 -0.005746
    10 O    -0.004018 -0.001337  0.002571
    11 O    -0.003311  0.002098 -0.000595
    12 C     0.006204  0.000244  0.005189
    13 H     0.000623  0.000073 -0.000573
    14 H     0.000773 -0.000395 -0.000448
    15 H     0.000796 -0.000144 -0.000117
    16 H     0.003420 -0.001800  0.001885
    17 H     0.000745  0.001397  0.000984
    18 H    -0.000280 -0.000185  0.001325
    19 H    -0.000598  0.000263  0.002537
    20 H    -0.000042  0.006090 -0.000596
    21 H    -0.000562 -0.000077 -0.001060
    22 H    -0.000501  0.000389 -0.000783
    23 H    -0.000226 -0.000707 -0.000711
 ----------------------------------------

 dE(predicted):    -0.56801E-02, dE(actual):    -0.42035E-02, Trust radius:    0.400000, all in a.u.
 
----------------------------------------------------------------------
Geometry Convergence after Step   3       (Hartree/Angstrom,Angstrom)
----------------------------------------------------------------------
current energy                               -4.86876283 Hartree
energy change                      -0.00420350     0.00023000    F
constrained gradient max            0.02885306     0.00010000    F
constrained gradient rms            0.00587509     0.00006667    F
gradient max                        0.02885306
gradient rms                        0.00587509
cart. step max                      0.21554018     0.01000000    F
cart. step rms                      0.06434227     0.00666667    F
 

--------
Geometry
--------
Formula: C6H11N3O3
Atoms
  Index Symbol   x (angstrom)   y (angstrom)   z (angstrom)
      1      C     4.21475720     0.71335485    -2.06977388
      2      N     2.82737401     0.59360143    -1.63087113
      3      C     2.28292660     1.47545538    -0.72222995
      4      O     2.88834148     2.48336641    -0.32936330
      5      N     0.95491734     1.09195260    -0.42886518
      6      N     0.39329777     1.58638820     0.66943277
      7      C     1.23009203     1.96246121     1.86510227
      8      C    -0.92844637     1.56241506     0.86100066
      9      C    -1.99352333     1.35548069    -0.13046150
     10      O    -3.15667983     1.19194442     0.22242575
     11      O    -1.59522469     1.42968060    -1.43017811
     12      C    -2.66754313     1.28151626    -2.40144732
     13      H     4.40591589     1.73610700    -2.40825297
     14      H     4.37992740     0.02186794    -2.90133891
     15      H     4.92782977     0.48483455    -1.26393303
     16      H     2.33045492    -0.27723798    -1.78129848
     17      H     0.60060171     2.46806837     2.59811543
     18      H     1.64301792     1.03947978     2.28129446
     19      H     2.02779555     2.61876701     1.52172996
     20      H    -1.27040346     1.82718371     1.85246369
     21      H    -2.18167421     1.36904713    -3.37459434
     22      H    -3.41977104     2.06621595    -2.26925731
     23      H    -3.14724354     0.30330942    -2.29163957

Total System Charge              0.00000

 *** GO1_GOStep4 ***

 Energy gradients wrt nuclear displacements
 ==========================================

     Atom      Cartesian (a.u./angstrom)
                 X         Y         Z
 ----------------------------------------
     1 C     0.000698 -0.000220  0.000361
     2 N    -0.001606  0.000739 -0.003128
     3 C     0.003796  0.003694  0.000629
     4 O    -0.005152 -0.003841  0.002777
     5 N    -0.000465 -0.004272 -0.004869
     6 N    -0.002726  0.015722  0.005155
     7 C    -0.000150 -0.006974 -0.006116
     8 C     0.000746 -0.014394  0.005360
     9 C    -0.005321  0.001238 -0.002158
    10 O     0.005675  0.000701 -0.002325
    11 O    -0.001764  0.002006  0.000422
    12 C     0.002705  0.000523  0.002547
    13 H    -0.000147 -0.000625  0.000122
    14 H     0.000059 -0.000145 -0.000035
    15 H     0.000106  0.000112 -0.000322
    16 H     0.002432 -0.001920  0.001710
    17 H     0.002259  0.002352  0.000274
    18 H    -0.001304  0.000094  0.000731
    19 H    -0.000127  0.001600  0.000363
    20 H     0.000900  0.003884 -0.000922
    21 H    -0.000439 -0.000026  0.000024
    22 H    -0.000127 -0.000088 -0.000407
    23 H    -0.000047 -0.000161 -0.000192
 ----------------------------------------

 dE(predicted):    -0.35870E-02, dE(actual):    -0.20178E-02, Trust radius:    0.400000, all in a.u.
 
----------------------------------------------------------------------
Geometry Convergence after Step   4       (Hartree/Angstrom,Angstrom)
----------------------------------------------------------------------
current energy                               -4.87078064 Hartree
energy change                      -0.00201781     0.00023000    F
constrained gradient max            0.01572702     0.00010000    F
constrained gradient rms            0.00356478     0.00006667    F
gradient max                        0.01572702
gradient rms                        0.00356478
cart. step max                      0.21287445     0.01000000    F
cart. step rms                      0.07597475     0.00666667    F
 

--------
Geometry
--------
Formula: C6H11N3O3
Atoms
  Index Symbol   x (angstrom)   y (angstrom)   z (angstrom)
      1      C     4.21340697     0.69988208    -2.10234657
      2      N     2.81779237     0.67209407    -1.66916744
      3      C     2.35901681     1.48515190    -0.65352970
      4      O     3.05044145     2.39648764    -0.17376645
      5      N     0.99850000     1.17025218    -0.41752535
      6      N     0.41250357     1.62534728     0.67737348
      7      C     1.20910829     1.97217429     1.91884216
      8      C    -0.91407641     1.65876110     0.82469629
      9      C    -1.98116392     1.40335450    -0.15406773
     10      O    -3.14572264     1.27216913     0.21547422
     11      O    -1.59005266     1.36347238    -1.46309509
     12      C    -2.68792855     1.18913161    -2.41101378
     13      H     4.51919339     1.73443818    -2.28191037
     14      H     4.30159678     0.12909023    -3.03061201
     15      H     4.88873064     0.27196010    -1.34766361
     16      H     2.21055389    -0.08796864    -1.95419988
     17      H     0.54002042     2.43416089     2.64431810
     18      H     1.62311978     1.03945665     2.30935221
     19      H     2.00819672     2.64621067     1.61860399
     20      H    -1.26706274     1.86562518     1.82488307
     21      H    -2.21029621     1.18272364    -3.39128165
     22      H    -3.40064463     2.01510942    -2.32575903
     23      H    -3.20849332     0.24617554    -2.21954487

Total System Charge              0.00000

 *** GO1_GOStep5 ***

 Energy gradients wrt nuclear displacements
 ==========================================

     Atom      Cartesian (a.u./angstrom)
                 X         Y         Z
 ----------------------------------------
     1 C     0.004425 -0.000584 -0.000254
     2 N    -0.004270  0.001236 -0.005980
     3 C     0.005191 -0.000106  0.012174
     4 O     0.000108  0.001584 -0.004662
     5 N    -0.000423 -0.003246 -0.004205
     6 N    -0.006090  0.003576  0.001038
     7 C     0.001567 -0.002693  0.001423
     8 C     0.006791 -0.000114  0.003150
     9 C    -0.004918  0.002419  0.001196
    10 O     0.000491 -0.001972 -0.000399
    11 O     0.002003 -0.000693 -0.003181
    12 C    -0.001863  0.000475 -0.001852
    13 H    -0.000598 -0.001091  0.000464
    14 H    -0.000636  0.000350  0.000600
    15 H    -0.000494  0.000583 -0.000361
    16 H     0.000197 -0.001064  0.000732
    17 H     0.000523  0.001171 -0.000108
    18 H    -0.002193  0.000256  0.000119
    19 H    -0.001898  0.000356 -0.000229
    20 H     0.002140 -0.000659 -0.000599
    21 H    -0.000162  0.000058  0.000946
    22 H     0.000088 -0.000693 -0.000031
    23 H     0.000020  0.000851  0.000016
 ----------------------------------------

 dE(predicted):    -0.13635E-02, dE(actual):    -0.98143E-03, Trust radius:    0.400000, all in a.u.
 
----------------------------------------------------------------------
Geometry Convergence after Step   5       (Hartree/Angstrom,Angstrom)
----------------------------------------------------------------------
current energy                               -4.87176207 Hartree
energy change                      -0.00098143     0.00023000    F
constrained gradient max            0.01216492     0.00010000    F
constrained gradient rms            0.00269849     0.00006667    F
gradient max                        0.01216492
gradient rms                        0.00269849
cart. step max                      0.19526349     0.01000000    F
cart. step rms                      0.06577229     0.00666667    F
 

--------
Geometry
--------
Formula: C6H11N3O3
Atoms
  Index Symbol   x (angstrom)   y (angstrom)   z (angstrom)
      1      C     4.18561354     0.68612853    -2.10913678
      2      N     2.78133226     0.75900817    -1.71602183
      3      C     2.35887680     1.54957577    -0.67129566
      4      O     3.12783684     2.32133339    -0.07600396
      5      N     0.98976270     1.27873660    -0.43838922
      6      N     0.41712878     1.66334738     0.68432999
      7      C     1.20949983     1.94758491     1.94763312
      8      C    -0.91160754     1.73019252     0.81766633
      9      C    -1.97250986     1.45840981    -0.15894455
     10      O    -3.14807454     1.40628227     0.19984060
     11      O    -1.56618035     1.31454650    -1.45475673
     12      C    -2.65453833     1.09604865    -2.40575411
     13      H     4.59696011     1.69724620    -2.18980816
     14      H     4.25160291     0.18919094    -3.08104090
     15      H     4.78911772     0.12997800    -1.37684244
     16      H     2.10463195     0.10729486    -2.09587130
     17      H     0.52328961     2.33036149     2.70243280
     18      H     1.65589327     1.00256806     2.26853210
     19      H     1.99251874     2.65919170     1.69468878
     20      H    -1.27547709     1.92493768     1.81714705
     21      H    -2.16238835     1.01009305    -3.37565337
     22      H    -3.34786300     1.94291613    -2.38898685
     23      H    -3.19868599     0.18028742    -2.15570491

Total System Charge              0.00000

 *** GO1_GOStep6 ***

 Energy gradients wrt nuclear displacements
 ==========================================

     Atom      Cartesian (a.u./angstrom)
                 X         Y         Z
 ----------------------------------------
     1 C     0.003525 -0.002124  0.001462
     2 N    -0.000359 -0.002541  0.002177
     3 C    -0.004834  0.020332 -0.017181
     4 O     0.006163 -0.006272  0.002309
     5 N    -0.001957 -0.004276  0.005479
     6 N    -0.004155 -0.007370  0.003496
     7 C     0.000645 -0.001185  0.004206
     8 C     0.006747  0.007213 -0.002879
     9 C    -0.001376 -0.004564  0.002109
    10 O    -0.001189  0.000021  0.000358
    11 O     0.002942  0.001195 -0.000075
    12 C    -0.002205 -0.001084 -0.002603
    13 H    -0.000536  0.000116  0.000181
    14 H    -0.000639  0.000099  0.000363
    15 H     0.000141  0.000125 -0.000294
    16 H    -0.000376 -0.000353  0.000713
    17 H    -0.000786  0.000661  0.000021
    18 H    -0.001628 -0.000436  0.000195
    19 H    -0.001259 -0.000064 -0.000864
    20 H     0.000556 -0.000250 -0.000228
    21 H     0.000206  0.000161  0.000495
    22 H     0.000204  0.000068  0.000425
    23 H     0.000170  0.000528  0.000138
 ----------------------------------------

 dE(predicted):    -0.61019E-03, dE(actual):     0.18307E-03, Trust radius:    0.082409, all in a.u.
 
----------------------------------------------------------------------
Geometry Convergence after Step   6       (Hartree/Angstrom,Angstrom)
----------------------------------------------------------------------
current energy                               -4.87157900 Hartree
energy change                       0.00018307     0.00023000    T
constrained gradient max            0.02031549     0.00010000    F
constrained gradient rms            0.00411283     0.00006667    F
gradient max                        0.02031549
gradient rms                        0.00411283
cart. step max                      0.04733790     0.01000000    F
cart. step rms                      0.01575511     0.00666667    F
 

--------
Geometry
--------
Formula: C6H11N3O3
Atoms
  Index Symbol   x (angstrom)   y (angstrom)   z (angstrom)
      1      C     4.18184224     0.70212626    -2.11697093
      2      N     2.78166821     0.74942337    -1.71036617
      3      C     2.35910452     1.50521748    -0.64162024
      4      O     3.11660349     2.28351563    -0.04020957
      5      N     0.98498274     1.25669667    -0.43034481
      6      N     0.41366326     1.65981798     0.68588732
      7      C     1.21318486     1.94788347     1.94258556
      8      C    -0.91685469     1.74083254     0.81728629
      9      C    -1.97513196     1.47422384    -0.16156206
     10      O    -3.15284834     1.44226726     0.19156328
     11      O    -1.56454389     1.30605910    -1.45106265
     12      C    -2.64853613     1.08476855    -2.40377514
     13      H     4.58515680     1.71877819    -2.16937089
     14      H     4.24583828     0.23652884    -3.10481182
     15      H     4.79600545     0.12825088    -1.40712590
     16      H     2.10770241     0.10578736    -2.10804217
     17      H     0.53387628     2.34184832     2.69772433
     18      H     1.65471241     1.00230345     2.26995666
     19      H     2.00361304     2.64967953     1.68380513
     20      H    -1.28350505     1.95384908     1.81261225
     21      H    -2.15285305     0.97831955    -3.37029280
     22      H    -3.33335912     1.93901783    -2.40471965
     23      H    -3.20358175     0.17806482    -2.14308602

Total System Charge              0.00000

 *** GO1_GOStep7 ***

 Energy gradients wrt nuclear displacements
 ==========================================

     Atom      Cartesian (a.u./angstrom)
                 X         Y         Z
 ----------------------------------------
     1 C     0.001245 -0.001414  0.001200
     2 N    -0.000100  0.000551 -0.000235
     3 C    -0.001564  0.006888 -0.007290
     4 O     0.000046 -0.002258  0.001974
     5 N    -0.001406 -0.000418  0.004200
     6 N    -0.001015 -0.005331  0.000873
     7 C     0.002300 -0.001361  0.000701
     8 C     0.002148  0.005530 -0.002927
     9 C    -0.001122 -0.003330  0.000455
    10 O     0.000384 -0.000146 -0.000001
    11 O     0.001366  0.001091  0.001560
    12 C    -0.001154 -0.000647 -0.001309
    13 H    -0.000055  0.000312 -0.000052
    14 H    -0.000217 -0.000014 -0.000089
    15 H     0.000013 -0.000073  0.000251
    16 H    -0.000088 -0.000171  0.000577
    17 H     0.000046  0.000942 -0.000161
    18 H    -0.001065 -0.000608  0.000363
    19 H     0.000384  0.000294 -0.000893
    20 H    -0.000664 -0.000375  0.000217
    21 H     0.000236  0.000119  0.000092
    22 H     0.000139  0.000322  0.000303
    23 H     0.000143  0.000098  0.000190
 ----------------------------------------

 dE(predicted):    -0.73223E-03, dE(actual):    -0.67785E-03, Trust radius:    0.164817, all in a.u.
 
----------------------------------------------------------------------
Geometry Convergence after Step   7       (Hartree/Angstrom,Angstrom)
----------------------------------------------------------------------
current energy                               -4.87225685 Hartree
energy change                      -0.00067785     0.00023000    F
constrained gradient max            0.00727457     0.00010000    F
constrained gradient rms            0.00188659     0.00006667    F
gradient max                        0.00727457
gradient rms                        0.00188659
cart. step max                      0.10219235     0.01000000    F
cart. step rms                      0.03161534     0.00666667    F
 

--------
Geometry
--------
Formula: C6H11N3O3
Atoms
  Index Symbol   x (angstrom)   y (angstrom)   z (angstrom)
      1      C     4.17279640     0.70736249    -2.15053672
      2      N     2.78500801     0.74318323    -1.70439404
      3      C     2.39034607     1.45199002    -0.59319400
      4      O     3.17159877     2.18132328     0.03945359
      5      N     1.00319272     1.25827058    -0.41437190
      6      N     0.41651918     1.66731926     0.69351805
      7      C     1.19348918     1.97611413     1.95962468
      8      C    -0.91716684     1.73987111     0.81606455
      9      C    -1.97082014     1.48266146    -0.16913719
     10      O    -3.15181864     1.47986541     0.17625140
     11      O    -1.55635904     1.28508049    -1.45360529
     12      C    -2.64003781     1.06492916    -2.40605932
     13      H     4.58721311     1.72082581    -2.14893444
     14      H     4.20628850     0.30529710    -3.16739317
     15      H     4.79872122     0.08285458    -1.49606962
     16      H     2.08972441     0.14428782    -2.13393353
     17      H     0.49293220     2.33854430     2.71075978
     18      H     1.66748010     1.04588652     2.28536462
     19      H     1.96309175     2.70529512     1.71608949
     20      H    -1.28940435     1.96998628     1.80536438
     21      H    -2.14345233     0.93316535    -3.36902592
     22      H    -3.31166726     1.92926084    -2.42547616
     23      H    -3.21093520     0.17188565    -2.13229926

Total System Charge              0.00000

 *** GO1_GOStep8 ***

 Energy gradients wrt nuclear displacements
 ==========================================

     Atom      Cartesian (a.u./angstrom)
                 X         Y         Z
 ----------------------------------------
     1 C     0.000668 -0.000931  0.000027
     2 N    -0.000049  0.002635 -0.001452
     3 C    -0.000459 -0.003817 -0.000861
     4 O     0.000602  0.001376 -0.000803
     5 N     0.003776  0.001331  0.000284
     6 N    -0.001653 -0.001523 -0.000632
     7 C    -0.000224  0.000386  0.001514
     8 C     0.000161  0.003055  0.000618
     9 C    -0.000274 -0.001937 -0.000575
    10 O    -0.000227  0.000119  0.000500
    11 O     0.000475  0.001051  0.000733
    12 C    -0.000894 -0.000309 -0.000632
    13 H    -0.000018  0.000077 -0.000178
    14 H     0.000063  0.000187 -0.000071
    15 H    -0.000174 -0.000113  0.000224
    16 H    -0.000055 -0.000745  0.000871
    17 H    -0.000068  0.000471  0.000051
    18 H    -0.001262 -0.001023  0.000161
    19 H     0.000077 -0.000033 -0.000815
    20 H    -0.000560 -0.000503  0.000728
    21 H     0.000038  0.000089  0.000103
    22 H     0.000047  0.000110  0.000133
    23 H     0.000012  0.000048  0.000072
 ----------------------------------------

 dE(predicted):    -0.40364E-03, dE(actual):    -0.31267E-03, Trust radius:    0.329634, all in a.u.
 
----------------------------------------------------------------------
Geometry Convergence after Step   8       (Hartree/Angstrom,Angstrom)
----------------------------------------------------------------------
current energy                               -4.87256952 Hartree
energy change                      -0.00031267     0.00023000    F
constrained gradient max            0.00379389     0.00010000    F
constrained gradient rms            0.00105217     0.00006667    F
gradient max                        0.00379389
gradient rms                        0.00105217
cart. step max                      0.21126080     0.01000000    F
cart. step rms                      0.07311883     0.00666667    F
 

--------
Geometry
--------
Formula: C6H11N3O3
Atoms
  Index Symbol   x (angstrom)   y (angstrom)   z (angstrom)
      1      C     4.13310971     0.72127017    -2.18888409
      2      N     2.75529934     0.78408148    -1.72037576
      3      C     2.40632435     1.38953308    -0.53644738
      4      O     3.23720790     1.97006247     0.18235926
      5      N     1.00490059     1.30107200    -0.40219423
      6      N     0.41978799     1.69097001     0.71006268
      7      C     1.18326546     1.99099865     1.98831692
      8      C    -0.91605870     1.78181920     0.81258094
      9      C    -1.95655598     1.54184124    -0.18749222
     10      O    -3.14457842     1.61849901     0.12782120
     11      O    -1.52529317     1.21826532    -1.44057331
     12      C    -2.59676505     0.98007733    -2.40150707
     13      H     4.61776707     1.69299634    -2.04612195
     14      H     4.13342951     0.47044250    -3.25391548
     15      H     4.71868609    -0.03381869    -1.64373619
     16      H     2.01116758     0.33253021    -2.23853903
     17      H     0.46204299     2.27193392     2.75402874
     18      H     1.71974323     1.08137105     2.27274941
     19      H     1.91184010     2.77123187     1.78178912
     20      H    -1.30036252     2.04781033     1.78789641
     21      H    -2.08661318     0.74207929    -3.33696125
     22      H    -3.21771707     1.87524154    -2.51005037
     23      H    -3.22388781     0.14495166    -2.07274635

Total System Charge              0.00000

 *** GO1_GOStep9 ***

 Energy gradients wrt nuclear displacements
 ==========================================

     Atom      Cartesian (a.u./angstrom)
                 X         Y         Z
 ----------------------------------------
     1 C    -0.001113 -0.000046 -0.000141
     2 N    -0.000490  0.003673 -0.000611
     3 C    -0.002878 -0.010362  0.001538
     4 O     0.002467  0.003932 -0.001169
     5 N     0.001418  0.002783  0.000127
     6 N     0.001370 -0.001323 -0.002279
     7 C    -0.001977  0.004667  0.002512
     8 C    -0.000874 -0.000894 -0.000617
     9 C     0.002335  0.005288 -0.002574
    10 O    -0.001248 -0.001884  0.001736
    11 O     0.000564 -0.000927  0.001914
    12 C    -0.000096 -0.000409 -0.000535
    13 H     0.000067  0.000085 -0.000346
    14 H     0.000153  0.000205 -0.000087
    15 H    -0.000074 -0.000298  0.000106
    16 H     0.000022 -0.000185  0.000655
    17 H     0.000175 -0.000758  0.000164
    18 H    -0.000093 -0.001833  0.000085
    19 H     0.000742 -0.001391 -0.001064
    20 H    -0.000779 -0.000190  0.000393
    21 H     0.000166 -0.000124 -0.000019
    22 H     0.000062  0.000175  0.000126
    23 H     0.000083 -0.000185  0.000085
 ----------------------------------------

 dE(predicted):    -0.32553E-03, dE(actual):    -0.18568E-03, Trust radius:    0.329634, all in a.u.
 
----------------------------------------------------------------------
Geometry Convergence after Step   9       (Hartree/Angstrom,Angstrom)
----------------------------------------------------------------------
current energy                               -4.87275520 Hartree
energy change                      -0.00018568     0.00023000    T
constrained gradient max            0.01032837     0.00010000    F
constrained gradient rms            0.00198372     0.00006667    F
gradient max                        0.01032837
gradient rms                        0.00198372
cart. step max                      0.09988706     0.01000000    F
cart. step rms                      0.03887774     0.00666667    F
 

--------
Geometry
--------
Formula: C6H11N3O3
Atoms
  Index Symbol   x (angstrom)   y (angstrom)   z (angstrom)
      1      C     4.15337784     0.71725479    -2.17495427
      2      N     2.77239497     0.78429334    -1.71869690
      3      C     2.41769368     1.36530687    -0.52395597
      4      O     3.25075971     1.88960853     0.23315514
      5      N     1.01187786     1.31030237    -0.41916317
      6      N     0.42473357     1.68516287     0.69624934
      7      C     1.18493087     2.01799565     1.96964687
      8      C    -0.91321023     1.74717076     0.80700386
      9      C    -1.96067026     1.49968596    -0.18288682
     10      O    -3.14349224     1.66053905     0.12002789
     11      O    -1.54640494     1.14352961    -1.43347677
     12      C    -2.63090728     0.97453171    -2.39364846
     13      H     4.65827713     1.66784503    -1.97223511
     14      H     4.16133112     0.52494999    -3.25219220
     15      H     4.71600469    -0.08003809    -1.66729569
     16      H     2.02143323     0.40452428    -2.28251810
     17      H     0.45335215     2.20169219     2.75437251
     18      H     1.81789525     1.16231572     2.21775697
     19      H     1.83191579     2.87111893     1.78333887
     20      H    -1.29172729     2.04466326     1.77481875
     21      H    -2.13887452     0.69660736    -3.32789717
     22      H    -3.18905140     1.90936912    -2.50826153
     23      H    -3.31489969     0.18683070    -2.06112801

Total System Charge              0.00000

 *** GO1_GOStep10 ***

 Energy gradients wrt nuclear displacements
 ==========================================

     Atom      Cartesian (a.u./angstrom)
                 X         Y         Z
 ----------------------------------------
     1 C    -0.001652  0.000079  0.000578
     2 N     0.000182  0.002279 -0.000084
     3 C    -0.003907 -0.008088  0.003656
     4 O     0.002059  0.003695 -0.001312
     5 N     0.001333  0.003031 -0.000226
     6 N     0.003575  0.000284 -0.003728
     7 C    -0.003026  0.006291  0.001589
     8 C    -0.002287  0.000750 -0.001426
     9 C     0.002023 -0.009517  0.002415
    10 O    -0.000505  0.003280 -0.001043
    11 O    -0.001015  0.001984  0.000148
    12 C     0.000447  0.001423  0.000316
    13 H     0.000095 -0.000119 -0.000212
    14 H     0.000043  0.000018 -0.000162
    15 H     0.000245 -0.000131 -0.000036
    16 H    -0.000183  0.000383  0.000185
    17 H     0.000372 -0.001650 -0.000149
    18 H     0.001432 -0.001603  0.000191
    19 H     0.001099 -0.002780 -0.000431
    20 H    -0.000112  0.000785 -0.000250
    21 H    -0.000029 -0.000048 -0.000171
    22 H    -0.000149 -0.000092 -0.000223
    23 H    -0.000040 -0.000254  0.000373
 ----------------------------------------

 dE(predicted):    -0.29003E-03, dE(actual):    -0.15727E-03, Trust radius:    0.329634, all in a.u.
 
----------------------------------------------------------------------
Geometry Convergence after Step  10       (Hartree/Angstrom,Angstrom)
----------------------------------------------------------------------
current energy                               -4.87291247 Hartree
energy change                      -0.00015727     0.00023000    T
constrained gradient max            0.00951954     0.00010000    F
constrained gradient rms            0.00227383     0.00006667    F
gradient max                        0.00951954
gradient rms                        0.00227383
cart. step max                      0.09066341     0.01000000    F
cart. step rms                      0.03461158     0.00666667    F
 

--------
Geometry
--------
Formula: C6H11N3O3
Atoms
  Index Symbol   x (angstrom)   y (angstrom)   z (angstrom)
      1      C     4.19979225     0.71097770    -2.14481174
      2      N     2.80775735     0.78923932    -1.72408632
      3      C     2.42949121     1.37290208    -0.53632501
      4      O     3.25097708     1.84830825     0.26139291
      5      N     1.01968201     1.32997577    -0.45497202
      6      N     0.42851154     1.68345294     0.66749955
      7      C     1.18821845     2.01582472     1.94160093
      8      C    -0.90882589     1.73451743     0.79053510
      9      C    -1.97069132     1.53237795    -0.19526773
     10      O    -3.14756544     1.68402733     0.13106870
     11      O    -1.58532388     1.14295437    -1.44620460
     12      C    -2.69454581     0.97041019    -2.37694908
     13      H     4.71254772     1.64967656    -1.90932456
     14      H     4.23434450     0.53796230    -3.22478575
     15      H     4.73669567    -0.10371340    -1.63751844
     16      H     2.06586075     0.44579504    -2.32235328
     17      H     0.45548483     2.12414445     2.73930192
     18      H     1.88235458     1.20095674     2.15327060
     19      H     1.77019439     2.92067279     1.78628238
     20      H    -1.27442921     2.01684654     1.76728195
     21      H    -2.22953793     0.66471054    -3.31619409
     22      H    -3.24050909     1.91134500    -2.49905457
     23      H    -3.38374377     0.20189540    -2.01232685

Total System Charge              0.00000

 *** GO1_GOStep11 ***

 Energy gradients wrt nuclear displacements
 ==========================================

     Atom      Cartesian (a.u./angstrom)
                 X         Y         Z
 ----------------------------------------
     1 C    -0.001378 -0.000028  0.000336
     2 N     0.002610 -0.002070 -0.000123
     3 C    -0.001796  0.003751  0.001543
     4 O    -0.001924 -0.001446  0.000177
     5 N     0.003007  0.000269  0.001302
     6 N     0.001251  0.000567 -0.003168
     7 C    -0.001850  0.006256 -0.001204
     8 C    -0.002877 -0.005170  0.002377
     9 C     0.001280  0.008367 -0.001121
    10 O     0.000624 -0.003398 -0.000614
    11 O    -0.002636 -0.002976 -0.000187
    12 C     0.000214  0.001086  0.001303
    13 H    -0.000032 -0.000287 -0.000026
    14 H    -0.000076 -0.000128 -0.000112
    15 H     0.000353  0.000074 -0.000258
    16 H    -0.000174  0.000243  0.000044
    17 H     0.000405 -0.001626 -0.000594
    18 H     0.001834 -0.000940  0.000068
    19 H     0.000858 -0.002773  0.000573
    20 H     0.000899  0.000451 -0.000268
    21 H    -0.000253 -0.000063 -0.000047
    22 H    -0.000101 -0.000135 -0.000006
    23 H    -0.000238 -0.000025  0.000006
 ----------------------------------------

 dE(predicted):    -0.29704E-03, dE(actual):     0.34201E-04, Trust radius:    0.055524, all in a.u.
 
----------------------------------------------------------------------
Geometry Convergence after Step  11       (Hartree/Angstrom,Angstrom)
----------------------------------------------------------------------
current energy                               -4.87287827 Hartree
energy change                       0.00003420     0.00023000    T
constrained gradient max            0.00835815     0.00010000    F
constrained gradient rms            0.00196986     0.00006667    F
gradient max                        0.00835815
gradient rms                        0.00196986
cart. step max                      0.07520369     0.01000000    F
cart. step rms                      0.02172027     0.00666667    F
 

--------
Geometry
--------
Formula: C6H11N3O3
Atoms
  Index Symbol   x (angstrom)   y (angstrom)   z (angstrom)
      1      C     4.16616220     0.71304080    -2.16924582
      2      N     2.77897772     0.78889999    -1.73073276
      3      C     2.41847973     1.36000613    -0.53181235
      4      O     3.25250308     1.82802594     0.25818496
      5      N     1.00886161     1.32250915    -0.43260742
      6      N     0.42395705     1.68354334     0.69143772
      7      C     1.18493569     2.01985182     1.96340386
      8      C    -0.91277478     1.74556691     0.80695495
      9      C    -1.96403790     1.53361720    -0.18806123
     10      O    -3.14472113     1.69910224     0.11950362
     11      O    -1.55505351     1.14735290    -1.43277208
     12      C    -2.64293746     0.96117015    -2.38637459
     13      H     4.68277396     1.64920582    -1.93140976
     14      H     4.18770315     0.54983710    -3.25104773
     15      H     4.70717100    -0.10708958    -1.67515426
     16      H     2.02912796     0.45020602    -2.32180017
     17      H     0.45193521     2.14554812     2.75887910
     18      H     1.87079128     1.20147272     2.18454622
     19      H     1.77133935     2.92118770     1.79725135
     20      H    -1.28700765     2.03084277     1.77992048
     21      H    -2.15433424     0.66113672    -3.31542238
     22      H    -3.19708153     1.89583789    -2.51982277
     23      H    -3.33003078     0.18438817    -2.03575894

Total System Charge              0.00000

 *** GO1_GOStep12 ***

 Energy gradients wrt nuclear displacements
 ==========================================

     Atom      Cartesian (a.u./angstrom)
                 X         Y         Z
 ----------------------------------------
     1 C    -0.000880  0.000115  0.000117
     2 N     0.002120 -0.001461  0.000018
     3 C    -0.000726  0.001162 -0.001158
     4 O    -0.000407 -0.000530 -0.000291
     5 N     0.000235  0.000890  0.000926
     6 N    -0.000190  0.000776 -0.000577
     7 C    -0.001440  0.003537  0.000305
     8 C    -0.001006 -0.002809  0.000564
     9 C     0.001321  0.001914  0.000078
    10 O    -0.000736 -0.000357  0.000619
    11 O    -0.000055 -0.000587 -0.000263
    12 C     0.000168 -0.000076  0.000093
    13 H     0.000106 -0.000039 -0.000034
    14 H     0.000033 -0.000021 -0.000112
    15 H     0.000155 -0.000057 -0.000137
    16 H    -0.000246  0.000134 -0.000058
    17 H     0.000157 -0.001097 -0.000302
    18 H     0.000925 -0.000493  0.000315
    19 H     0.000439 -0.001393  0.000170
    20 H     0.000215  0.000352 -0.000221
    21 H    -0.000065  0.000002 -0.000044
    22 H    -0.000003 -0.000035  0.000055
    23 H    -0.000120  0.000074 -0.000065
 ----------------------------------------

 dE(predicted):    -0.20510E-03, dE(actual):    -0.19721E-03, Trust radius:    0.111048, all in a.u.
 
----------------------------------------------------------------------
Geometry Convergence after Step  12       (Hartree/Angstrom,Angstrom)
----------------------------------------------------------------------
current energy                               -4.87307548 Hartree
energy change                      -0.00019721     0.00023000    T
constrained gradient max            0.00352154     0.00010000    F
constrained gradient rms            0.00084889     0.00006667    F
gradient max                        0.00352154
gradient rms                        0.00084889
cart. step max                      0.05304936     0.01000000    F
cart. step rms                      0.01703936     0.00666667    F
 

--------
Geometry
--------
Formula: C6H11N3O3
Atoms
  Index Symbol   x (angstrom)   y (angstrom)   z (angstrom)
      1      C     4.16346076     0.72941870    -2.17599155
      2      N     2.77677733     0.79800347    -1.73318356
      3      C     2.42125074     1.34375340    -0.52182833
      4      O     3.25774616     1.79879213     0.27369170
      5      N     1.01136813     1.30638259    -0.42475824
      6      N     0.42517586     1.68026673     0.69354960
      7      C     1.18456634     2.00132979     1.97056186
      8      C    -0.91020111     1.77734804     0.79712786
      9      C    -1.96090074     1.55892785    -0.19772610
     10      O    -3.13964148     1.75215160     0.09925603
     11      O    -1.55275849     1.14470705    -1.43343689
     12      C    -2.64288930     0.93900894    -2.38123459
     13      H     4.67994215     1.66187656    -1.92363881
     14      H     4.18256023     0.58422216    -3.26030885
     15      H     4.70476362    -0.09879837    -1.69603307
     16      H     2.02516213     0.46796221    -2.32670906
     17      H     0.44866557     2.15419382     2.75899370
     18      H     1.84504331     1.16563785     2.20073562
     19      H     1.79417367     2.88755122     1.80189191
     20      H    -1.28618929     2.07252934     1.76667515
     21      H    -2.15562072     0.61878564    -3.30415436
     22      H    -3.19658388     1.87110446    -2.53325594
     23      H    -3.32913101     0.17010483    -2.01216409

Total System Charge              0.00000

 *** GO1_GOStep13 ***

 Energy gradients wrt nuclear displacements
 ==========================================

     Atom      Cartesian (a.u./angstrom)
                 X         Y         Z
 ----------------------------------------
     1 C    -0.000211  0.000281 -0.000018
     2 N     0.000056 -0.000515  0.000343
     3 C    -0.000331  0.000298 -0.000298
     4 O     0.000383  0.000219  0.000002
     5 N     0.000024  0.000451  0.000688
     6 N     0.000280 -0.000589 -0.001314
     7 C    -0.000349  0.000545  0.000925
     8 C     0.000020  0.000497 -0.000503
     9 C    -0.000214 -0.001881  0.001070
    10 O     0.000357  0.000538 -0.000477
    11 O     0.000101  0.000781 -0.000122
    12 C    -0.000421 -0.000567  0.000103
    13 H     0.000053  0.000063 -0.000020
    14 H     0.000010  0.000068 -0.000079
    15 H    -0.000052 -0.000078 -0.000063
    16 H    -0.000169  0.000074  0.000113
    17 H    -0.000102 -0.000335 -0.000146
    18 H     0.000351 -0.000161  0.000131
    19 H     0.000194 -0.000169 -0.000574
    20 H    -0.000019  0.000276 -0.000022
    21 H     0.000035  0.000056  0.000049
    22 H     0.000019  0.000098  0.000153
    23 H    -0.000015  0.000050  0.000060
 ----------------------------------------

 dE(predicted):    -0.60895E-04, dE(actual):    -0.70655E-05, Trust radius:    0.021709, all in a.u.
 
----------------------------------------------------------------------
Geometry Convergence after Step  13       (Hartree/Angstrom,Angstrom)
----------------------------------------------------------------------
current energy                               -4.87308255 Hartree
energy change                      -0.00000707     0.00023000    T
constrained gradient max            0.00185417     0.00010000    F
constrained gradient rms            0.00043307     0.00006667    F
gradient max                        0.00185417
gradient rms                        0.00043307
cart. step max                      0.01755942     0.01000000    F
cart. step rms                      0.00495275     0.00666667    T
 

--------
Geometry
--------
Formula: C6H11N3O3
Atoms
  Index Symbol   x (angstrom)   y (angstrom)   z (angstrom)
      1      C     4.15977240     0.72923220    -2.17886754
      2      N     2.77274062     0.80412614    -1.73769094
      3      C     2.41974413     1.33923582    -0.52070807
      4      O     3.25858545     1.78123272     0.27963527
      5      N     1.00945073     1.30881474    -0.42390037
      6      N     0.42442414     1.68377898     0.69552353
      7      C     1.18429862     2.00355019     1.97233294
      8      C    -0.91095287     1.78124150     0.79912450
      9      C    -1.96053154     1.56304997    -0.19728007
     10      O    -3.14005971     1.75389510     0.09888133
     11      O    -1.54973751     1.14424727    -1.43071540
     12      C    -2.63644334     0.93485042    -2.38149750
     13      H     4.68185475     1.65652789    -1.91927736
     14      H     4.17949593     0.59134766    -3.26410908
     15      H     4.69495632    -0.10567828    -1.70376222
     16      H     2.02013443     0.48364549    -2.33518031
     17      H     0.44888605     2.15584489     2.76146741
     18      H     1.84521029     1.16831529     2.20111717
     19      H     1.79232450     2.89145109     1.80621979
     20      H    -1.28753554     2.07326939     1.76938366
     21      H    -2.14613400     0.60963418    -3.30105196
     22      H    -3.18973950     1.86596754    -2.54044401
     23      H    -3.32400433     0.16767981    -2.01114077

Total System Charge              0.00000

 *** GO1_GOStep14 ***

 Energy gradients wrt nuclear displacements
 ==========================================

     Atom      Cartesian (a.u./angstrom)
                 X         Y         Z
 ----------------------------------------
     1 C    -0.000030  0.000205 -0.000138
     2 N     0.000034 -0.000408  0.000232
     3 C     0.000026 -0.000275 -0.000300
     4 O     0.000172  0.000264 -0.000098
     5 N    -0.000100  0.000061  0.000107
     6 N    -0.000086  0.000217 -0.000544
     7 C    -0.000067  0.000160  0.000650
     8 C    -0.000020  0.000302 -0.000132
     9 C     0.000187 -0.000511  0.000425
    10 O    -0.000222  0.000165  0.000122
    11 O     0.000323  0.000066  0.000020
    12 C    -0.000235 -0.000215 -0.000163
    13 H    -0.000023  0.000020 -0.000000
    14 H     0.000022  0.000076 -0.000089
    15 H    -0.000029 -0.000035 -0.000100
    16 H    -0.000074  0.000095  0.000005
    17 H     0.000028 -0.000149 -0.000045
    18 H     0.000104 -0.000008  0.000039
    19 H     0.000032  0.000012 -0.000232
    20 H    -0.000031 -0.000006  0.000039
    21 H    -0.000000 -0.000012  0.000057
    22 H    -0.000053 -0.000038  0.000059
    23 H     0.000042  0.000013  0.000086
 ----------------------------------------

 dE(predicted):    -0.97580E-05, dE(actual):     0.22104E-05, Trust radius:    0.020000, all in a.u.
 
----------------------------------------------------------------------
Geometry Convergence after Step  14       (Hartree/Angstrom,Angstrom)
----------------------------------------------------------------------
current energy                               -4.87308034 Hartree
energy change                       0.00000221     0.00023000    T
constrained gradient max            0.00066623     0.00010000    F
constrained gradient rms            0.00018571     0.00006667    F
gradient max                        0.00066623
gradient rms                        0.00018571
cart. step max                      0.00493558     0.01000000    T
cart. step rms                      0.00146964     0.00666667    T
 

--------
Geometry
--------
Formula: C6H11N3O3
Atoms
  Index Symbol   x (angstrom)   y (angstrom)   z (angstrom)
      1      C     4.16044709     0.72932337    -2.17823233
      2      N     2.77271855     0.80879273    -1.74001724
      3      C     2.41936768     1.34054697    -0.52164524
      4      O     3.25811527     1.77982381     0.28016198
      5      N     1.00915036     1.30904010    -0.42450589
      6      N     0.42436825     1.68281919     0.69575016
      7      C     1.18464195     2.00284247     1.97181765
      8      C    -0.91094625     1.77993483     0.79950741
      9      C    -1.96060246     1.56486685    -0.19784286
     10      O    -3.14004753     1.75449442     0.09896308
     11      O    -1.55035530     1.14552253    -1.43110214
     12      C    -2.63716586     0.93471952    -2.38111599
     13      H     4.68400934     1.65656346    -1.92146932
     14      H     4.18162440     0.58703863    -3.26285357
     15      H     4.69311259    -0.10472385    -1.69882663
     16      H     2.02087597     0.48703475    -2.33779136
     17      H     0.44962476     2.15692078     2.76109189
     18      H     1.84470479     1.16726055     2.20102915
     19      H     1.79293782     2.89066829     1.80616864
     20      H    -1.28730608     2.07060182     1.77025157
     21      H    -2.14729050     0.60784306    -3.30032361
     22      H    -3.19071768     1.86540322    -2.54154958
     23      H    -3.32452715     0.16792249    -2.00940578

Total System Charge              0.00000

 *** GO1_GOStep15 ***

 Energy gradients wrt nuclear displacements
 ==========================================

     Atom      Cartesian (a.u./angstrom)
                 X         Y         Z
 ----------------------------------------
     1 C     0.000026  0.000089 -0.000158
     2 N     0.000038 -0.000351  0.000292
     3 C     0.000151  0.000053 -0.000304
     4 O    -0.000079  0.000113 -0.000155
     5 N    -0.000042 -0.000069 -0.000010
     6 N    -0.000220  0.000001  0.000041
     7 C     0.000154 -0.000037  0.000204
     8 C     0.000060 -0.000027  0.000024
     9 C     0.000067  0.000492 -0.000061
    10 O    -0.000008 -0.000239  0.000120
    11 O     0.000032 -0.000146  0.000126
    12 C    -0.000063 -0.000056 -0.000051
    13 H    -0.000050  0.000017  0.000025
    14 H    -0.000004  0.000047 -0.000071
    15 H    -0.000016 -0.000010 -0.000122
    16 H    -0.000021  0.000065 -0.000074
    17 H     0.000068  0.000062 -0.000002
    18 H    -0.000053  0.000059 -0.000063
    19 H    -0.000024  0.000137  0.000008
    20 H     0.000044 -0.000010  0.000050
    21 H    -0.000033 -0.000061  0.000056
    22 H    -0.000053 -0.000068  0.000046
    23 H     0.000024 -0.000059  0.000080
 ----------------------------------------

 dE(predicted):    -0.33015E-05, dE(actual):    -0.35351E-05, Trust radius:    0.040000, all in a.u.
 
----------------------------------------------------------------------
Geometry Convergence after Step  15       (Hartree/Angstrom,Angstrom)
----------------------------------------------------------------------
current energy                               -4.87308387 Hartree
energy change                      -0.00000354     0.00023000    T
constrained gradient max            0.00051080     0.00010000    F
constrained gradient rms            0.00011639     0.00006667    F
gradient max                        0.00051080
gradient rms                        0.00011639
cart. step max                      0.02462891     0.01000000    F
cart. step rms                      0.00640023     0.00666667    T
 

--------
Geometry
--------
Formula: C6H11N3O3
Atoms
  Index Symbol   x (angstrom)   y (angstrom)   z (angstrom)
      1      C     4.16159301     0.73079572    -2.17845275
      2      N     2.77294520     0.82255102    -1.74577177
      3      C     2.42098154     1.33812321    -0.52002665
      4      O     3.26158263     1.75733838     0.29051364
      5      N     1.01040894     1.31472926    -0.42655064
      6      N     0.42507224     1.68412713     0.69506734
      7      C     1.18419790     2.00248033     1.97175287
      8      C    -0.91038968     1.78107135     0.79816944
      9      C    -1.96017960     1.56835233    -0.19985431
     10      O    -3.13867941     1.76637148     0.09512323
     11      O    -1.55192011     1.13883156    -1.43012806
     12      C    -2.63958599     0.92808988    -2.37876189
     13      H     4.69355134     1.65198810    -1.91722149
     14      H     4.18533992     0.59121678    -3.26332799
     15      H     4.68402944    -0.10979366    -1.69924465
     16      H     2.02061179     0.51166366    -2.34862872
     17      H     0.44847468     2.15247524     2.76129144
     18      H     1.84690655     1.16863646     2.19868439
     19      H     1.78962592     2.89303000     1.81053771
     20      H    -1.28681031     2.07290284     1.76850077
     21      H    -2.15186984     0.58993316    -3.29505418
     22      H    -3.18651418     1.86121032    -2.54728247
     23      H    -3.33263197     0.16913546    -2.00127526

Total System Charge              0.00000

 *** GO1_GOStep16 ***

 Energy gradients wrt nuclear displacements
 ==========================================

     Atom      Cartesian (a.u./angstrom)
                 X         Y         Z
 ----------------------------------------
     1 C     0.000068  0.000088 -0.000219
     2 N    -0.000056 -0.000301  0.000342
     3 C     0.000190  0.000075 -0.000024
     4 O    -0.000170 -0.000021 -0.000252
     5 N     0.000165 -0.000172 -0.000189
     6 N    -0.000082  0.000013  0.000451
     7 C     0.000286  0.000081 -0.000413
     8 C     0.000021 -0.000122  0.000177
     9 C    -0.000064  0.000635 -0.000417
    10 O     0.000075 -0.000324  0.000097
    11 O    -0.000292 -0.000289  0.000070
    12 C     0.000089  0.000263  0.000212
    13 H    -0.000095 -0.000023  0.000025
    14 H    -0.000038  0.000032 -0.000057
    15 H    -0.000021  0.000007 -0.000138
    16 H     0.000077  0.000078 -0.000122
    17 H     0.000051  0.000138  0.000056
    18 H    -0.000049  0.000132 -0.000129
    19 H    -0.000139  0.000055  0.000339
    20 H     0.000098  0.000010  0.000031
    21 H    -0.000055 -0.000116  0.000032
    22 H    -0.000053 -0.000116  0.000039
    23 H    -0.000006 -0.000121  0.000090
 ----------------------------------------

 dE(predicted):    -0.39733E-05, dE(actual):     0.19276E-04, Trust radius:    0.020000, all in a.u.
 
----------------------------------------------------------------------
Geometry Convergence after Step  16       (Hartree/Angstrom,Angstrom)
----------------------------------------------------------------------
current energy                               -4.87306460 Hartree
energy change                       0.00001928     0.00023000    T
constrained gradient max            0.00064890     0.00010000    F
constrained gradient rms            0.00018094     0.00006667    F
gradient max                        0.00064890
gradient rms                        0.00018094
cart. step max                      0.00587432     0.01000000    T
cart. step rms                      0.00172947     0.00666667    T
 

--------
Geometry
--------
Formula: C6H11N3O3
Atoms
  Index Symbol   x (angstrom)   y (angstrom)   z (angstrom)
      1      C     4.16120277     0.73081894    -2.17801696
      2      N     2.77222408     0.82772461    -1.74754407
      3      C     2.42054163     1.34114466    -0.52074221
      4      O     3.26144388     1.75822609     0.29074824
      5      N     1.01000299     1.31761501    -0.42755005
      6      N     0.42480304     1.68495066     0.69477601
      7      C     1.18450313     2.00078666     1.97150983
      8      C    -0.91060846     1.78112034     0.79854987
      9      C    -1.96041263     1.56845228    -0.19951087
     10      O    -3.13887905     1.76727355     0.09514551
     11      O    -1.55177395     1.13843996    -1.42950140
     12      C    -2.63897654     0.92736263    -2.37857951
     13      H     4.69510252     1.65217717    -1.92137521
     14      H     4.18567833     0.58534247    -3.26207221
     15      H     4.68122250    -0.10830717    -1.69361890
     16      H     2.01994752     0.51473844    -2.34940402
     17      H     0.44929188     2.15235860     2.76124146
     18      H     1.84530964     1.16528447     2.19804346
     19      H     1.79197471     2.88994708     1.81013475
     20      H    -1.28696241     2.07179879     1.76925078
     21      H    -2.15091216     0.58801886    -3.29422358
     22      H    -3.18512611     1.86070870    -2.54834969
     23      H    -3.33285732     0.16927719    -2.00085122

Total System Charge              0.00000

 *** GO1_GOStep17 ***

 Energy gradients wrt nuclear displacements
 ==========================================

     Atom      Cartesian (a.u./angstrom)
                 X         Y         Z
 ----------------------------------------
     1 C     0.000104  0.000069 -0.000204
     2 N    -0.000168 -0.000343  0.000247
     3 C     0.000031  0.000272  0.000025
     4 O    -0.000019  0.000024  0.000000
     5 N     0.000123 -0.000267 -0.000227
     6 N    -0.000044  0.000140  0.000357
     7 C     0.000287 -0.000162 -0.000457
     8 C     0.000112 -0.000052  0.000226
     9 C    -0.000079  0.000420 -0.000422
    10 O     0.000005 -0.000212  0.000160
    11 O    -0.000194 -0.000218  0.000046
    12 C     0.000119  0.000226  0.000187
    13 H    -0.000064 -0.000031  0.000013
    14 H    -0.000057  0.000019 -0.000036
    15 H    -0.000036  0.000007 -0.000127
    16 H     0.000053  0.000039 -0.000114
    17 H     0.000061  0.000172  0.000073
    18 H    -0.000038  0.000115 -0.000130
    19 H    -0.000138  0.000115  0.000200
    20 H     0.000075  0.000007  0.000016
    21 H    -0.000061 -0.000105  0.000043
    22 H    -0.000042 -0.000117  0.000047
    23 H    -0.000029 -0.000117  0.000075
 ----------------------------------------

 dE(predicted):    -0.33625E-05, dE(actual):    -0.14102E-05, Trust radius:    0.020000, all in a.u.
 
----------------------------------------------------------------------
Geometry Convergence after Step  17       (Hartree/Angstrom,Angstrom)
----------------------------------------------------------------------
current energy                               -4.87306601 Hartree
energy change                      -0.00000141     0.00023000    T
constrained gradient max            0.00046110     0.00010000    F
constrained gradient rms            0.00016140     0.00006667    F
gradient max                        0.00046110
gradient rms                        0.00016140
cart. step max                      0.00492836     0.01000000    T
cart. step rms                      0.00172619     0.00666667    T
 

--------
Geometry
--------
Formula: C6H11N3O3
Atoms
  Index Symbol   x (angstrom)   y (angstrom)   z (angstrom)
      1      C     4.16049538     0.73105625    -2.17811928
      2      N     2.77132948     0.83265297    -1.74960674
      3      C     2.42019036     1.34371402    -0.52166376
      4      O     3.26174352     1.75846755     0.29038971
      5      N     1.00973238     1.32070636    -0.42803216
      6      N     0.42465213     1.68536219     0.69497177
      7      C     1.18435058     1.99914798     1.97221507
      8      C    -0.91075126     1.78142398     0.79889803
      9      C    -1.96028904     1.56846655    -0.19914853
     10      O    -3.13867782     1.76964759     0.09420707
     11      O    -1.55118249     1.13744356    -1.42866076
     12      C    -2.63796639     0.92608767    -2.37833861
     13      H     4.69638540     1.65243104    -1.92561399
     14      H     4.18566999     0.58042799    -3.26144791
     15      H     4.67823156    -0.10687124    -1.68910576
     16      H     2.01874748     0.51816762    -2.35031907
     17      H     0.44910093     2.15225725     2.76154146
     18      H     1.84317041     1.16200225     2.19917811
     19      H     1.79448706     2.88639739     1.80995821
     20      H    -1.28734734     2.07161234     1.76967958
     21      H    -2.14945727     0.58541581    -3.29322401
     22      H    -3.18288053     1.85995545    -2.54946188
     23      H    -3.33299454     0.16928742    -2.00023656

Total System Charge              0.00000

 *** GO1_GOStep18 ***

 Energy gradients wrt nuclear displacements
 ==========================================

     Atom      Cartesian (a.u./angstrom)
                 X         Y         Z
 ----------------------------------------
     1 C     0.000030  0.000104 -0.000131
     2 N    -0.000023 -0.000381  0.000144
     3 C    -0.000085  0.000358 -0.000099
     4 O     0.000053 -0.000015 -0.000048
     5 N     0.000023 -0.000117  0.000044
     6 N     0.000052  0.000019  0.000138
     7 C     0.000019 -0.000154 -0.000214
     8 C     0.000163  0.000156  0.000050
     9 C    -0.000062 -0.000121 -0.000062
    10 O     0.000027 -0.000003  0.000049
    11 O    -0.000078  0.000035  0.000067
    12 C     0.000049 -0.000006  0.000099
    13 H     0.000004 -0.000020 -0.000017
    14 H    -0.000052  0.000024 -0.000036
    15 H    -0.000036 -0.000035 -0.000084
    16 H    -0.000020  0.000034 -0.000031
    17 H     0.000022  0.000065  0.000043
    18 H     0.000059  0.000070 -0.000050
    19 H    -0.000038  0.000128 -0.000058
    20 H     0.000012  0.000039  0.000015
    21 H    -0.000050 -0.000059  0.000047
    22 H    -0.000029 -0.000054  0.000068
    23 H    -0.000040 -0.000070  0.000068
 ----------------------------------------
 
----------------------------------------------------------------------
Geometry Convergence after Step  18       (Hartree/Angstrom,Angstrom)
----------------------------------------------------------------------
current energy                               -4.87306588 Hartree
energy change                       0.00000012     0.00023000    T
constrained gradient max            0.00037389     0.00010000    F
constrained gradient rms            0.00009046     0.00006667    F
gradient max                        0.00037389
gradient rms                        0.00009046
cart. step max                      0.00625938     0.01000000    T
cart. step rms                      0.00188720     0.00666667    T
 

--------
Geometry
--------
Formula: C6H11N3O3
Atoms
  Index Symbol   x (angstrom)   y (angstrom)   z (angstrom)
      1      C     4.16037372     0.73155647    -2.17819285
      2      N     2.77095072     0.83844379    -1.75197781
      3      C     2.42033741     1.34482324    -0.52191998
      4      O     3.26241717     1.75475108     0.29208196
      5      N     1.00983363     1.32384690    -0.42897893
      6      N     0.42473560     1.68640503     0.69471235
      7      C     1.18426732     1.99787168     1.97262907
      8      C    -0.91070901     1.78225664     0.79866075
      9      C    -1.96016803     1.56967346    -0.19951957
     10      O    -3.13843508     1.77238364     0.09330926
     11      O    -1.55120903     1.13626851    -1.42828121
     12      C    -2.63801310     0.92413926    -2.37778328
     13      H     4.69874804     1.65206474    -1.92785048
     14      H     4.18648074     0.57768277    -3.26103366
     15      H     4.67501135    -0.10639571    -1.68593390
     16      H     2.01826034     0.52442699    -2.35281105
     17      H     0.44886831     2.15238953     2.76150299
     18      H     1.84087959     1.15900563     2.19973060
     19      H     1.79689061     2.88354354     1.81121484
     20      H    -1.28731489     2.07195785     1.76957676
     21      H    -2.14969179     0.58047321    -3.29163340
     22      H    -3.18150529     1.85836952    -2.55145085
     23      H    -3.33426834     0.16932222    -1.99799161

Total System Charge              0.00000

 *** GO1_GOStep19 ***

 Energy gradients wrt nuclear displacements
 ==========================================

     Atom      Cartesian (a.u./angstrom)
                 X         Y         Z
 ----------------------------------------
     1 C    -0.000003  0.000089 -0.000102
     2 N    -0.000020 -0.000311  0.000064
     3 C    -0.000094  0.000240 -0.000039
     4 O     0.000085  0.000045 -0.000025
     5 N     0.000049 -0.000113 -0.000020
     6 N     0.000092  0.000063  0.000136
     7 C    -0.000036 -0.000132 -0.000186
     8 C     0.000106  0.000142  0.000039
     9 C    -0.000035 -0.000073 -0.000041
    10 O    -0.000002 -0.000014  0.000067
    11 O    -0.000058 -0.000017  0.000045
    12 C     0.000032  0.000006  0.000084
    13 H    -0.000016 -0.000032 -0.000023
    14 H    -0.000049  0.000015 -0.000037
    15 H    -0.000029 -0.000037 -0.000075
    16 H    -0.000026  0.000011 -0.000025
    17 H     0.000040  0.000053  0.000032
    18 H     0.000065  0.000082 -0.000039
    19 H    -0.000008  0.000112 -0.000052
    20 H     0.000023  0.000034  0.000015
    21 H    -0.000047 -0.000053  0.000048
    22 H    -0.000037 -0.000053  0.000059
    23 H    -0.000030 -0.000058  0.000074
 ----------------------------------------

 dE(predicted):    -0.24528E-05, dE(actual):     0.39823E-05, Trust radius:    0.020000, all in a.u.
 
----------------------------------------------------------------------
Geometry Convergence after Step  19       (Hartree/Angstrom,Angstrom)
----------------------------------------------------------------------
current energy                               -4.87306190 Hartree
energy change                       0.00000398     0.00023000    T
constrained gradient max            0.00030178     0.00010000    F
constrained gradient rms            0.00007149     0.00006667    F
gradient max                        0.00030178
gradient rms                        0.00007149
cart. step max                      0.00883964     0.01000000    T
cart. step rms                      0.00251936     0.00666667    T
 

--------
Geometry
--------
Formula: C6H11N3O3
Atoms
  Index Symbol   x (angstrom)   y (angstrom)   z (angstrom)
      1      C     4.16040463     0.73240092    -2.17834752
      2      N     2.77067637     0.84492954    -1.75471204
      3      C     2.42052464     1.34526255    -0.52205258
      4      O     3.26319402     1.74823545     0.29480797
      5      N     1.00990396     1.32760243    -0.43017716
      6      N     0.42481391     1.68776108     0.69428395
      7      C     1.18412649     1.99624213     1.97320802
      8      C    -0.91063871     1.78408460     0.79808965
      9      C    -1.95997433     1.57217093    -0.20026299
     10      O    -3.13800281     1.77764389     0.09164287
     11      O    -1.55129217     1.13506898    -1.42786839
     12      C    -2.63826436     0.92091921    -2.37679533
     13      H     4.70192804     1.65118543    -1.92843167
     14      H     4.18770837     0.57708950    -3.26095013
     15      H     4.67111967    -0.10678743    -1.68409738
     16      H     2.01780383     0.53326663    -2.35655271
     17      H     0.44840175     2.15194202     2.76148504
     18      H     1.83825550     1.15537650     2.20018614
     19      H     1.79951494     2.88020614     1.81314896
     20      H    -1.28722008     2.07369087     1.76903623
     21      H    -2.15020804     0.57321649    -3.28924070
     22      H    -3.18042261     1.85525678    -2.55403442
     23      H    -3.33561302     0.16849538    -1.99430582

Total System Charge              0.00000

 *** GO1_GOStep20 ***

 Energy gradients wrt nuclear displacements
 ==========================================

     Atom      Cartesian (a.u./angstrom)
                 X         Y         Z
 ----------------------------------------
     1 C    -0.000039  0.000078 -0.000070
     2 N     0.000026 -0.000251  0.000009
     3 C    -0.000057  0.000112 -0.000024
     4 O     0.000053  0.000052 -0.000037
     5 N     0.000042 -0.000084 -0.000012
     6 N     0.000082  0.000071  0.000080
     7 C    -0.000061 -0.000024 -0.000106
     8 C     0.000018  0.000131 -0.000003
     9 C     0.000009 -0.000058  0.000048
    10 O    -0.000026  0.000002  0.000078
    11 O    -0.000007 -0.000025  0.000005
    12 C    -0.000025 -0.000042  0.000060
    13 H    -0.000026 -0.000035 -0.000032
    14 H    -0.000039  0.000015 -0.000045
    15 H    -0.000018 -0.000034 -0.000070
    16 H    -0.000033 -0.000002 -0.000008
    17 H     0.000057  0.000019  0.000004
    18 H     0.000082  0.000085 -0.000027
    19 H     0.000021  0.000075 -0.000036
    20 H     0.000031  0.000035  0.000015
    21 H    -0.000039 -0.000044  0.000048
    22 H    -0.000040 -0.000043  0.000051
    23 H    -0.000013 -0.000033  0.000073
 ----------------------------------------

 dE(predicted):    -0.24041E-05, dE(actual):     0.68820E-05, Trust radius:    0.020000, all in a.u.
 
----------------------------------------------------------------------
Geometry Convergence after Step  20       (Hartree/Angstrom,Angstrom)
----------------------------------------------------------------------
current energy                               -4.87305502 Hartree
energy change                       0.00000688     0.00023000    T
constrained gradient max            0.00023946     0.00010000    F
constrained gradient rms            0.00004860     0.00006667    T
gradient max                        0.00023946
gradient rms                        0.00004860
cart. step max                      0.00855271     0.01000000    T
cart. step rms                      0.00234919     0.00666667    T
 

--------
Geometry
--------
Formula: C6H11N3O3
Atoms
  Index Symbol   x (angstrom)   y (angstrom)   z (angstrom)
      1      C     4.16040574     0.73283360    -2.17826775
      2      N     2.77035919     0.85151680    -1.75740139
      3      C     2.42056172     1.34670191    -0.52259425
      4      O     3.26373758     1.74353370     0.29673236
      5      N     1.00986135     1.33172837    -0.43153381
      6      N     0.42483206     1.68907157     0.69384872
      7      C     1.18408056     1.99459191     1.97364468
      8      C    -0.91061622     1.78538126     0.79774046
      9      C    -1.95981643     1.57427148    -0.20086550
     10      O    -3.13766925     1.78182010     0.09021977
     11      O    -1.55129688     1.13409989    -1.42742467
     12      C    -2.63836684     0.91814767    -2.37584509
     13      H     4.70527961     1.64992635    -1.92934531
     14      H     4.18894154     0.57529292    -3.26050991
     15      H     4.66693055    -0.10735611    -1.68140119
     16      H     2.01738003     0.54181934    -2.36013197
     17      H     0.44812169     2.15154002     2.76142910
     18      H     1.83572650     1.15170698     2.20038297
     19      H     1.80205145     2.87693315     1.81480666
     20      H    -1.28718873     2.07448802     1.76883777
     21      H    -2.15053783     0.56686761    -3.28702348
     22      H    -3.17937307     1.85254369    -2.55624162
     23      H    -3.33666434     0.16779978    -1.99099656

Total System Charge              0.00000

 *** GO1_GOStep21 ***

 Energy gradients wrt nuclear displacements
 ==========================================

     Atom      Cartesian (a.u./angstrom)
                 X         Y         Z
 ----------------------------------------
     1 C    -0.000058  0.000054 -0.000055
     2 N     0.000029 -0.000205  0.000020
     3 C    -0.000010  0.000083 -0.000055
     4 O     0.000007  0.000023 -0.000060
     5 N     0.000021 -0.000068  0.000007
     6 N     0.000048  0.000037  0.000042
     7 C    -0.000034  0.000044 -0.000047
     8 C    -0.000014  0.000087 -0.000024
     9 C     0.000015  0.000030  0.000061
    10 O    -0.000001 -0.000026  0.000061
    11 O     0.000011 -0.000036  0.000026
    12 C    -0.000042 -0.000053  0.000051
    13 H    -0.000017 -0.000028 -0.000035
    14 H    -0.000032  0.000006 -0.000050
    15 H    -0.000010 -0.000035 -0.000067
    16 H    -0.000032 -0.000002 -0.000003
    17 H     0.000057  0.000015 -0.000012
    18 H     0.000080  0.000076 -0.000029
    19 H     0.000027  0.000060 -0.000028
    20 H     0.000035  0.000044  0.000015
    21 H    -0.000035 -0.000045  0.000054
    22 H    -0.000039 -0.000033  0.000050
    23 H    -0.000007 -0.000031  0.000077
 ----------------------------------------

 dE(predicted):    -0.20887E-05, dE(actual):     0.52966E-05, Trust radius:    0.020000, all in a.u.
 
----------------------------------------------------------------------
Geometry Convergence after Step  21       (Hartree/Angstrom,Angstrom)
----------------------------------------------------------------------
current energy                               -4.87304972 Hartree
energy change                       0.00000530     0.00023000    T
constrained gradient max            0.00019046     0.00010000    F
constrained gradient rms            0.00003623     0.00006667    T
gradient max                        0.00019046
gradient rms                        0.00003623
cart. step max                      0.00602962     0.01000000    T
cart. step rms                      0.00199021     0.00666667    T
 

--------
Geometry
--------
Formula: C6H11N3O3
Atoms
  Index Symbol   x (angstrom)   y (angstrom)   z (angstrom)
      1      C     4.16058470     0.73312126    -2.17789460
[...]
                                    1.40%     3 S              40.869  0.00    14 H
                                    1.24%     1 P:z            -5.239  0.67     3 C
                                    1.22%     2 S             -18.450  2.00     9 N
                                   -1.22%     2 P:z             4.589  0.00     3 C
                                   -1.06%     2 P:z             7.649  0.00     7 N
                                    1.03%     2 S               2.394  0.00    19 H
       1.998  0.00    61 A         19.30%     1 S              -6.532  1.00    13 H
                                   18.40%     1 S              -6.532  1.00    19 H
                                   13.93%     2 S               2.394  0.00    13 H
                                  -11.95%     2 P:y             4.589  0.00     1 C
                                  -11.33%     2 P:y             4.589  0.00     3 C
                                   10.59%     2 S               2.394  0.00    19 H
                                    8.70%     1 S              -6.532  1.00    15 H
                                    8.18%     2 S               2.394  0.00    15 H
                                    8.06%     1 S              -6.532  1.00    18 H
                                    7.15%     2 S               2.394  0.00    18 H
                                    4.09%     1 P:y            -5.239  0.67     2 C
                                    2.28%     1 P:y            -5.239  0.67     3 C
                                    2.12%     1 P:x            -5.239  0.67     1 C
                                    1.96%     1 P:y            -7.062  1.00     8 N
                                    1.85%     1 P:y            -5.239  0.67     1 C
                                    1.73%     1 P:y            -9.020  1.33    10 O
                                    1.67%     3 S              40.869  0.00    19 H
                                    1.49%     1 P:y            -7.062  1.00     9 N
                                    1.42%     3 S              40.869  0.00    13 H
                                    1.35%     3 S              40.869  0.00    15 H
                                    1.09%     1 P:y            -7.062  1.00     7 N
                                    1.08%     3 S              40.869  0.00    18 H
                                   -1.01%     2 P:y             7.649  0.00     8 N

 Energy gradients wrt nuclear displacements
 ==========================================

     Atom      Cartesian (a.u./angstrom)
                 X         Y         Z
 ----------------------------------------
     1 C    -0.000041  0.000017 -0.000045
     2 N    -0.000016 -0.000115  0.000028
     3 C     0.000013  0.000099 -0.000083
     4 O     0.000006  0.000005 -0.000024
     5 N    -0.000016 -0.000032  0.000008
     6 N     0.000010 -0.000002 -0.000037
     7 C     0.000073  0.000041  0.000024
     8 C     0.000008  0.000043 -0.000014
     9 C     0.000008  0.000028  0.000041
    10 O     0.000020 -0.000012  0.000039
    11 O    -0.000004 -0.000018  0.000047
    12 C    -0.000033 -0.000022  0.000040
    13 H    -0.000017 -0.000033 -0.000034
    14 H    -0.000034 -0.000024 -0.000043
    15 H    -0.000018 -0.000039 -0.000053
    16 H    -0.000026 -0.000034 -0.000006
    17 H     0.000047  0.000052 -0.000017
    18 H     0.000049  0.000062 -0.000028
    19 H     0.000024  0.000059 -0.000047
    20 H     0.000036  0.000049  0.000013
    21 H    -0.000038 -0.000050  0.000059
    22 H    -0.000031 -0.000040  0.000050
    23 H    -0.000021 -0.000034  0.000082
 ----------------------------------------



 =======================================================================
 Electrostatic potential at the Nuclei due to electrons and other nuclei
 =======================================================================
  
         Atom                  Potential
         ----                  ---------
     1)   C                  14.75214608
     2)   N                  18.38835589
     3)   C                  14.67471288
     4)   O                  22.43889541
     5)   N                  18.40400453
     6)   N                  18.27410790
     7)   C                  14.73630395
     8)   C                  14.73571134
     9)   C                  14.66390107
    10)   O                  22.42006418
    11)   O                  22.35816717
    12)   C                  14.73488873
    13)   H                   1.10958292
    14)   H                   1.09970080
    15)   H                   1.11125521
    16)   H                   1.02040887
    17)   H                   1.08031774
    18)   H                   1.08355521
    19)   H                   1.08462271
    20)   H                   1.07395551
    21)   H                   1.10093760
    22)   H                   1.10369170
    23)   H                   1.10355221
 Mulliken charges used for AMS results%charges...


    =====================
     CALCULATION RESULTS
    =====================

Energy (hartree)            -4.87304145

Gradients (hartree/bohr)
  Index   Atom            d/dx            d/dy            d/dz
      1      C   -0.0000219471    0.0000089784   -0.0000238964
      2      N   -0.0000084341   -0.0000610304    0.0000149950
      3      C    0.0000067605    0.0000524335   -0.0000437479
      4      O    0.0000034116    0.0000026260   -0.0000128024
      5      N   -0.0000085482   -0.0000169584    0.0000040686
      6      N    0.0000054568   -0.0000009594   -0.0000195634
      7      C    0.0000385451    0.0000214738    0.0000127138
      8      C    0.0000041361    0.0000226890   -0.0000072537
      9      C    0.0000041507    0.0000150634    0.0000218335
     10      O    0.0000107310   -0.0000064422    0.0000205373
     11      O   -0.0000019236   -0.0000093484    0.0000251114
     12      C   -0.0000175817   -0.0000115544    0.0000213223
     13      H   -0.0000088862   -0.0000177210   -0.0000178074
     14      H   -0.0000180066   -0.0000125344   -0.0000228765
     15      H   -0.0000092755   -0.0000208812   -0.0000278109
     16      H   -0.0000139969   -0.0000180034   -0.0000033069
     17      H    0.0000250702    0.0000276152   -0.0000091903
     18      H    0.0000259352    0.0000327650   -0.0000149899
     19      H    0.0000129031    0.0000311036   -0.0000250567
     20      H    0.0000190423    0.0000261823    0.0000069070
     21      H   -0.0000203536   -0.0000264214    0.0000311282
     22      H   -0.0000161697   -0.0000212359    0.0000263071
     23      H   -0.0000110196   -0.0000178399    0.0000433784


--------------
Atomic charges
--------------
  Index   Atom    Charge
      1      C    0.7781
      2      N   -0.1421
      3      C    0.6308
      4      O   -0.6253
      5      N   -0.2646
      6      N   -0.0562
      7      C    0.8045
      8      C    0.2145
      9      C    0.6922
     10      O   -0.5659
     11      O   -0.5189
     12      C    0.9664
     13      H   -0.1740
     14      H   -0.2237
     15      H   -0.1820
     16      H   -0.0276
     17      H   -0.2683
     18      H   -0.1474
     19      H   -0.1340
     20      H   -0.1425
     21      H   -0.2426
     22      H   -0.1853
     23      H   -0.1860


Dipole moment vector    (Debye):     1.01614289   -1.09136198   -1.21637178
              magnitude (Debye):     1.92436422


-----------------------
Molecular orbitals info
-----------------------
n orbitals:              433
n spin:                    1

Note: only printing virtual orbitals with
      energy smaller than HOMO + 100. eV

HOMO (eV):              -5.4920
LUMO (eV):              -3.0513
HOMO-LUMO gap (eV):      2.4408

   Index   Energy (eV)    Occupation
     273       94.3518         0.000       
     272       94.2141         0.000       
     271       94.0548         0.000       
     270       93.6907         0.000       
     269       93.3091         0.000       
     268       92.9391         0.000       
     267       92.7199         0.000       
     266       92.2138         0.000       
     265       91.7891         0.000       
     264       91.3752         0.000       
     263       91.0639         0.000       
     262       90.4151         0.000       
     261       89.6895         0.000       
     260       89.0490         0.000       
     259       88.3517         0.000       
     258       88.2723         0.000       
     257       87.4811         0.000       
     256       86.5642         0.000       
     255       85.6522         0.000       
     254       84.9897         0.000       
     253       83.2388         0.000       
     252       82.3662         0.000       
     251       81.7195         0.000       
     250       81.3920         0.000       
     249       80.9571         0.000       
     248       80.4056         0.000       
     247       80.0084         0.000       
     246       78.9083         0.000       
     245       78.5907         0.000       
     244       78.0820         0.000       
     243       77.8957         0.000       
     242       77.7012         0.000       
     241       77.6077         0.000       
     240       77.2829         0.000       
     239       77.1270         0.000       
     238       76.9253         0.000       
     237       76.6038         0.000       
     236       76.1639         0.000       
     235       75.9891         0.000       
     234       75.6112         0.000       
     233       75.3736         0.000       
     232       75.0974         0.000       
     231       74.5806         0.000       
     230       73.9996         0.000       
     229       73.8841         0.000       
     228       72.8835         0.000       
     227       72.4848         0.000       
     226       71.2999         0.000       
     225       70.0016         0.000       
     224       68.7270         0.000       
     223       67.7615         0.000       
     222       66.6939         0.000       
     221       66.5334         0.000       
     220       65.7860         0.000       
     219       65.7337         0.000       
     218       65.3300         0.000       
     217       64.6235         0.000       
     216       63.6890         0.000       
     215       62.9564         0.000       
     214       62.3056         0.000       
     213       62.1869         0.000       
     212       61.5067         0.000       
     211       60.5020         0.000       
     210       60.0029         0.000       
     209       58.6883         0.000       
     208       58.4621         0.000       
     207       57.7117         0.000       
     206       57.5887         0.000       
     205       56.9160         0.000       
     204       56.5064         0.000       
     203       56.3333         0.000       
     202       56.1234         0.000       
     201       55.4720         0.000       
     200       55.3389         0.000       
     199       54.8841         0.000       
     198       54.5001         0.000       
     197       53.6731         0.000       
     196       53.0416         0.000       
     195       51.8992         0.000       
     194       51.2657         0.000       
     193       51.1356         0.000       
     192       50.8966         0.000       
     191       50.6106         0.000       
     190       50.0829         0.000       
     189       50.0356         0.000       
     188       49.7060         0.000       
     187       48.8870         0.000       
     186       47.7605         0.000       
     185       47.5522         0.000       
     184       47.4272         0.000       
     183       46.4724         0.000       
     182       46.2340         0.000       
     181       46.0939         0.000       
     180       45.1542         0.000       
     179       44.7589         0.000       
     178       43.4121         0.000       
     177       43.1792         0.000       
     176       42.7573         0.000       
     175       42.4816         0.000       
     174       42.4020         0.000       
     173       41.9959         0.000       
     172       41.5712         0.000       
     171       40.7153         0.000       
     170       40.4964         0.000       
     169       40.2757         0.000       
     168       39.6397         0.000       
     167       39.4844         0.000       
     166       39.0164         0.000       
     165       38.4752         0.000       
     164       38.1345         0.000       
     163       38.0837         0.000       
     162       37.0320         0.000       
     161       36.6279         0.000       
     160       36.1679         0.000       
     159       35.7433         0.000       
     158       35.4356         0.000       
     157       34.8551         0.000       
     156       34.5366         0.000       
     155       34.2760         0.000       
     154       33.9152         0.000       
     153       33.5678         0.000       
     152       32.8733         0.000       
     151       32.5942         0.000       
     150       32.1084         0.000       
     149       31.4250         0.000       
     148       31.0225         0.000       
     147       30.4257         0.000       
     146       30.0899         0.000       
     145       29.9181         0.000       
     144       29.3934         0.000       
     143       28.7811         0.000       
     142       28.5645         0.000       
     141       28.3069         0.000       
     140       28.0460         0.000       
     139       27.6871         0.000       
     138       27.2567         0.000       
     137       26.9571         0.000       
     136       26.8752         0.000       
     135       26.5986         0.000       
     134       26.4249         0.000       
     133       26.3735         0.000       
     132       25.7789         0.000       
     131       25.3544         0.000       
     130       25.1785         0.000       
     129       24.7616         0.000       
     128       24.5165         0.000       
     127       24.1414         0.000       
     126       23.8243         0.000       
     125       23.1915         0.000       
     124       22.5823         0.000       
     123       22.2975         0.000       
     122       21.8967         0.000       
     121       21.6713         0.000       
     120       21.1831         0.000       
     119       20.3328         0.000       
     118       20.0263         0.000       
     117       18.8921         0.000       
     116       18.5948         0.000       
     115       17.9653         0.000       
     114       17.6377         0.000       
     113       16.9612         0.000       
     112       16.6967         0.000       
     111       16.2617         0.000       
     110       15.9797         0.000       
     109       15.3073         0.000       
     108       14.3762         0.000       
     107       14.3412         0.000       
     106       14.0662         0.000       
     105       13.9306         0.000       
     104       13.2928         0.000       
     103       13.0251         0.000       
     102       12.7506         0.000       
     101       12.4220         0.000       
     100       11.7871         0.000       
      99       11.5418         0.000       
      98       11.2019         0.000       
      97       11.1659         0.000       
      96       10.9849         0.000       
      95       10.8002         0.000       
      94       10.4112         0.000       
      93       10.3255         0.000       
      92       10.0347         0.000       
      91        9.8243         0.000       
      90        9.6106         0.000       
      89        9.4351         0.000       
      88        9.1103         0.000       
      87        9.0601         0.000       
      86        8.8521         0.000       
      85        8.7002         0.000       
      84        8.6148         0.000       
      83        8.3156         0.000       
      82        7.8419         0.000       
      81        7.5837         0.000       
      80        7.3421         0.000       
      79        7.0930         0.000       
      78        6.7812         0.000       
      77        6.1926         0.000       
      76        6.0250         0.000       
      75        5.7715         0.000       
      74        5.5306         0.000       
      73        5.3617         0.000       
      72        5.1830         0.000       
      71        5.0013         0.000       
      70        4.5292         0.000       
      69        4.4685         0.000       
      68        4.3084         0.000       
      67        4.1726         0.000       
      66        4.1093         0.000       
      65        3.7393         0.000       
      64        3.2637         0.000       
      63        3.0252         0.000       
      62        2.4343         0.000       
      61        1.9980         0.000       
      60        1.7362         0.000       
      59        1.6172         0.000       
      58        1.4849         0.000       
      57        1.3879         0.000       
      56        1.2831         0.000       
      55        1.0441         0.000       
      54        0.7301         0.000       
      53        0.5963         0.000       
      52        0.5517         0.000       
      51        0.1868         0.000       
      50        0.0916         0.000       
      49       -0.1299         0.000       
      48       -0.4396         0.000       
      47       -3.0513         0.000 < LUMO
      46       -5.4920         2.000 < HOMO
      45       -5.7171         2.000       
      44       -6.1121         2.000       
      43       -6.3910         2.000       
      42       -7.1578         2.000       
      41       -7.2614         2.000       
      40       -8.6233         2.000       
      39       -8.9046         2.000       
      38       -9.5360         2.000       
      37       -9.6186         2.000       
      36       -9.8192         2.000       
      35       -9.8838         2.000       
      34      -10.4269         2.000       
      33      -10.7095         2.000       
      32      -10.9295         2.000       
      31      -10.9677         2.000       
      30      -11.2484         2.000       
      29      -11.5252         2.000       
      28      -11.7356         2.000       
      27      -12.2338         2.000       
      26      -13.0093         2.000       
      25      -13.4253         2.000       
      24      -13.9027         2.000       
      23      -14.9072         2.000       
      22      -16.0340         2.000       
      21      -17.5983         2.000       
      20      -17.9365         2.000       
      19      -18.9298         2.000       
      18      -20.9741         2.000       
      17      -22.8501         2.000       
      16      -25.0119         2.000       
      15      -25.3941         2.000       
      14      -26.6452         2.000       
      13      -27.2789         2.000       
      12     -270.8737         2.000       
      11     -271.3789         2.000       
      10     -271.3812         2.000       
       9     -271.4444         2.000       
       8     -273.0580         2.000       
       7     -273.3853         2.000       
       6     -382.1346         2.000       
       5     -382.2052         2.000       
       4     -385.4116         2.000       
       3     -510.4201         2.000       
       2     -510.9567         2.000       
       1     -512.5883         2.000       

AMS application finished. Exiting.
NORMAL TERMINATION
     Total cpu time:    2217.94
  Total system time:      12.93
 Total elapsed time:    2242.48
NORMAL TERMINATION
