srun: Job 662082 step creation temporarily disabled, retrying (Requested nodes are busy)
srun: Job 662082 step creation still disabled, retrying (Requested nodes are busy)
srun: Job 662082 step creation still disabled, retrying (Requested nodes are busy)
srun: Job 662082 step creation still disabled, retrying (Requested nodes are busy)
srun: Job 662082 step creation still disabled, retrying (Requested nodes are busy)
srun: Job 662082 step creation still disabled, retrying (Requested nodes are busy)
srun: Job 662082 step creation still disabled, retrying (Requested nodes are busy)
srun: Job 662082 step creation still disabled, retrying (Requested nodes are busy)
srun: Job 662082 step creation still disabled, retrying (Requested nodes are busy)
srun: Job 662082 step creation still disabled, retrying (Requested nodes are busy)
srun: Job 662082 step creation still disabled, retrying (Requested nodes are busy)
srun: Job 662082 step creation still disabled, retrying (Requested nodes are busy)
srun: Job 662082 step creation still disabled, retrying (Requested nodes are busy)
srun: Job 662082 step creation still disabled, retrying (Requested nodes are busy)
srun: Step created for StepId=662082.61

 *******************************************************************************
 *                                                                             *
 *  --------------------------------                                           *
 *   Amsterdam Modeling Suite (AMS)              2026.103                      *
 *  --------------------------------                                           *
 *                                               r260501 2026-05-01 873454b5   *
 *                                                                             *
 *                                                                             *
 *                              =================                              *
 *                              |               |                              *
 *                              |     A M S     |                              *
 *                              |               |                              *
 *                              =================                              *
 *                                                                             *
 *                                                                             *
 *   Online information and documentation:  https://www.scm.com/support/       *
 *   E-mail:  support@scm.com   info@scm.com                                   *
 *                                                                             *
 *   Scientific publications using AMS results must be properly referenced     *
 *   See the User Manuals (or the web site) for recommended citations          *
 *   The terms and conditions of the End User License Agreement apply to       *
 *   the use of AMS, https://www.scm.com/license-terms/                        *
 *                                                                             *
 **********************  x86_64_linux_intel / intelmpi  ************************
 
 Licensed to: Jong-June Jeon / University of Seoul 2026-06-02 13:44:15
 SCM User ID: u30731
  
 AMS 2026.103  RunTime: Jun03-2026 14:57:28  ShM Nodes: 1  Procs: 1

 AMS jobname: c1_fragA_ts
 AMS jobid  : 802643196

 Start   directory: /gpfs/home1/yeseo1ee/projects/eda-asm-prediction/ADF_800/adf_outputs/batch_002/dipolar_005745/
 Results directory: /gpfs/home1/yeseo1ee/projects/eda-asm-prediction/ADF_800/adf_outputs/batch_002/dipolar_005745/c1_fragA_ts.results/
 Scratch directory: /tmp/amstmp_c1_fragA_ts_kid0.802643196/

 RNG seed: -2084017857 751467747 -1715621896 -806222544 1147625827 -67699180 -91461301 -1937027674



                      ************************************************************************
                      *  ADF 2026.103  RunTime: Jun03-2026 14:57:29  ShM Nodes: 1  Procs: 1  *
                      ************************************************************************
  

       ****************************
       * SINGLE POINT CALCULATION *
       ****************************

--------
Geometry
--------
Formula: C10H12O4
Atoms
  Index Symbol   x (angstrom)   y (angstrom)   z (angstrom)
      1      C    -0.36556000    -1.10295000    -1.28983000
      2      O     0.16514000    -1.92663000    -2.25228000
      3      C    -0.74151000    -2.90473000    -2.77058000
      4      C    -0.49997000    -1.64992000     0.05976000
      5      O    -0.04362000    -2.76327000     0.34280000
      6      C    -1.16889000    -0.80652000     1.08506000
      7      C    -1.03763000    -1.22328000     2.51836000
      8      C    -1.93736000     0.24868000     0.70703000
      9      C    -2.72594000     1.05041000     1.69712000
     10      C    -2.12951000     0.58118000    -0.73550000
     11      O    -3.07278000     1.28750000    -1.09660000
     12      C    -1.16370000    -0.00015000    -1.69514000
     13      O    -1.27814000     0.15205000    -3.02640000
     14      C    -1.89292000     1.30237000    -3.62032000
     15      H    -1.06324000    -3.60141000    -1.98062000
     16      H    -0.19573000    -3.46148000    -3.54438000
     17      H    -1.62494000    -2.42619000    -3.22187000
     18      H    -0.33648000    -2.05960000     2.62106000
     19      H    -2.01325000    -1.53283000     2.93016000
     20      H    -0.68472000    -0.38338000     3.13728000
     21      H    -3.55170000     0.44750000     2.11325000
     22      H    -3.16001000     1.94241000     1.23063000
     23      H    -2.09625000     1.35541000     2.54577000
     24      H    -2.98523000     1.19779000    -3.63860000
     25      H    -1.62503000     2.22195000    -3.08442000
     26      H    -1.50535000     1.34214000    -4.64700000

Total System Charge              0.00000


----------------
ADF Engine Input
----------------
 
   Basis
     Type TZ2P
     Core None
   End
   XC
     GGA BLYP
     Dispersion GRIMME3 BJDAMP
   End
   Symmetry NOSYM
   NumericalQuality Normal
   Unrestricted No
   SCF
     Iterations 200
     Converge 1.0e-6
   End
   Save TAPE21
 

 Title: *** (NO TITLE) ***

 *** adf ***



 ===========================
 A T T A C H E D   F I L E S
 ===========================
  



 ===============================
 M O D E L   P A R A M E T E R S
 ===============================
  
 DENSITY FUNCTIONAL POTENTIAL (scf)
    LDA:                               Exchange only                           == Not Default ==
    Gradient Corrections:              Becke88 LYP                             == Not Default ==

 SPIN  (restricted / unrestr.)
    Molecule:                          Restricted                               
    Fragments:                         Restricted                               

 OTHER ASPECTS
    Relativistic Corrections:          scalar (ZORA,MAPA)                       

    Nuclear Charge Density Model:      Point Charge Nuclei                      
    Core Treatment:                    Frozen Orbital(s)                        

    Hyperfine or Zeeman Interaction:   ---                                      

 Settings for Grimme D3 dispersion correction

      damping                        BJ
      s6                          1.000
      s8                          2.700
      a1                          0.430
      a2                          4.236

 Other (technical) parameters

      alpha                      14.000
      version                         4
 


 Fragment File(s)
 ----------------
 C:
         file : /gpfs/home1/yeseo1ee/projects/eda-asm-prediction/ADF_800/adf_outputs/batch_002/dipolar_005745/c1_fragA_ts.results/t21.50BA88D5.C
         jobid: 0
         title: Carbon (TZ2P)
 O:
         file : /gpfs/home1/yeseo1ee/projects/eda-asm-prediction/ADF_800/adf_outputs/batch_002/dipolar_005745/c1_fragA_ts.results/t21.6E90ABAE.O
         jobid: 0
         title: Oxygen (TZ2P)
 H:
         file : /gpfs/home1/yeseo1ee/projects/eda-asm-prediction/ADF_800/adf_outputs/batch_002/dipolar_005745/c1_fragA_ts.results/t21.6F35CCAB.H
         jobid: 0
         title: Hydrogen (TZ2P)



 ===============
 G E O M E T R Y  ***  3D  Molecule  ***
 ===============
  

 ATOMS
 =====                            X Y Z                    CHARGE
                                (Angstrom)             Nucl     +Core       At.Mass
                       --------------------------    ----------------       -------
    1  C              -0.3656   -1.1030   -1.2898      6.00      6.00       12.0000
    2  O               0.1651   -1.9266   -2.2523      8.00      8.00       15.9949
    3  C              -0.7415   -2.9047   -2.7706      6.00      6.00       12.0000
    4  C              -0.5000   -1.6499    0.0598      6.00      6.00       12.0000
    5  O              -0.0436   -2.7633    0.3428      8.00      8.00       15.9949
    6  C              -1.1689   -0.8065    1.0851      6.00      6.00       12.0000
    7  C              -1.0376   -1.2233    2.5184      6.00      6.00       12.0000
    8  C              -1.9374    0.2487    0.7070      6.00      6.00       12.0000
    9  C              -2.7259    1.0504    1.6971      6.00      6.00       12.0000
   10  C              -2.1295    0.5812   -0.7355      6.00      6.00       12.0000
   11  O              -3.0728    1.2875   -1.0966      8.00      8.00       15.9949
   12  C              -1.1637   -0.0001   -1.6951      6.00      6.00       12.0000
   13  O              -1.2781    0.1520   -3.0264      8.00      8.00       15.9949
   14  C              -1.8929    1.3024   -3.6203      6.00      6.00       12.0000
   15  H              -1.0632   -3.6014   -1.9806      1.00      1.00        1.0078
   16  H              -0.1957   -3.4615   -3.5444      1.00      1.00        1.0078
   17  H              -1.6249   -2.4262   -3.2219      1.00      1.00        1.0078
   18  H              -0.3365   -2.0596    2.6211      1.00      1.00        1.0078
   19  H              -2.0133   -1.5328    2.9302      1.00      1.00        1.0078
   20  H              -0.6847   -0.3834    3.1373      1.00      1.00        1.0078
   21  H              -3.5517    0.4475    2.1132      1.00      1.00        1.0078
   22  H              -3.1600    1.9424    1.2306      1.00      1.00        1.0078
   23  H              -2.0962    1.3554    2.5458      1.00      1.00        1.0078
   24  H              -2.9852    1.1978   -3.6386      1.00      1.00        1.0078
   25  H              -1.6250    2.2220   -3.0844      1.00      1.00        1.0078
   26  H              -1.5053    1.3421   -4.6470      1.00      1.00        1.0078


 FRAGMENTS
 =========                                     Atoms in this Fragment     Cart. coord.s (Angstrom)
                                               -------------------------------------------------------
    1  C                                                 1  C           -0.3656   -1.1030   -1.2898
    2  C                                                 3  C           -0.7415   -2.9047   -2.7706
    3  C                                                 4  C           -0.5000   -1.6499    0.0598
    4  C                                                 6  C           -1.1689   -0.8065    1.0851
    5  C                                                 7  C           -1.0376   -1.2233    2.5184
    6  C                                                 8  C           -1.9374    0.2487    0.7070
    7  C                                                 9  C           -2.7259    1.0504    1.6971
    8  C                                                10  C           -2.1295    0.5812   -0.7355
    9  C                                                12  C           -1.1637   -0.0001   -1.6951
   10  C                                                14  C           -1.8929    1.3024   -3.6203
   11  O                                                 2  O            0.1651   -1.9266   -2.2523
   12  O                                                 5  O           -0.0436   -2.7633    0.3428
   13  O                                                11  O           -3.0728    1.2875   -1.0966
   14  O                                                13  O           -1.2781    0.1520   -3.0264
   15  H                                                15  H           -1.0632   -3.6014   -1.9806
   16  H                                                16  H           -0.1957   -3.4615   -3.5444
   17  H                                                17  H           -1.6249   -2.4262   -3.2219
   18  H                                                18  H           -0.3365   -2.0596    2.6211
   19  H                                                19  H           -2.0133   -1.5328    2.9302
   20  H                                                20  H           -0.6847   -0.3834    3.1373
   21  H                                                21  H           -3.5517    0.4475    2.1132
   22  H                                                22  H           -3.1600    1.9424    1.2306
   23  H                                                23  H           -2.0962    1.3554    2.5458
   24  H                                                24  H           -2.9852    1.1978   -3.6386
   25  H                                                25  H           -1.6250    2.2220   -3.0844
   26  H                                                26  H           -1.5053    1.3421   -4.6470



 =====================================
 S Y M M E T R Y ,   E L E C T R O N S
 =====================================
  
 Symmetry: NOSYM

 Irreducible Representations, including subspecies
 -------------------------------------------------
 A


 Configuration of Valence Electrons
 ==================================
 ( determined in the SCF procedure )

 Total:   104

 Net Charge: 0 (Nuclei minus Electrons)

 Aufbau principle for MO occupations will be applied through SCF cycle no.     100
 Thereafter, the program will assign electrons to MOs that are spatially
 similar to the occupied MOs in a "reference" cycle ("KeepOrbitals").
 The reference cycle is always the PREVIOUS cycle: it will evolve with
 the SCF procedure.
 ***************************************************************************************************



                                      ****************************************
                                      *  B U I L D : (Fragments, Functions)  *
                                      ****************************************
  



 =======
 S F O s  ***  (Symmetrized Fragment Orbitals)  ***
 =======
  
 SFOs are linear combinations of (valence) Fragment Orbitals (FOs), such that the SFOs transform as the
 irreducible representations of the (molecular) symmetry group. Each SFO is therefore characterized by
 an irrep of the molecule and by a few (or only one) generating FOs.
 The SFOs constitute a symmetry-adapted basis for the Fock matrix. The MO eigenvector coefficients in
 this basis provide a direct interpretation of the MOs in terms of Frontier Orbital Theory.

 The SFOs are combined with auxiliary Core Functions (CFs) to ensure orthogonalization on the (frozen)
 Core Orbitals (COs). The Core-orthogonalized SFOs (CSFOs) constitute the true Fock basis.

 The FOs, and hence also the (C)SFOs are combinations of the elementary basis functions (BAS). The basis
 functions that participate in the description of the SFOs depend on the irrep. The indices of the
 involved functions are printed below for each irrep.
 (The complete list of primitive basis functions is printed in another section)

 Total nr. of (C)SFOs (summation over all irreps) :   496

 NOTE: a (C)SFO that is defined as a combination of more than one FO is usually NOT normalized.



                                       === A ===
 Nr. of SFOs :  496
 Cartesian basis functions that participate in this irrep (total number =   564) :
      1     2     3     4     5     6     9    12     7    10
     13     8    11    14    15    16    17    18    19    20
     21    22    23    24    25    26    27    28    29    30
     31    32    33    34    35    36    39    42    37    40
     43    38    41    44    45    46    47    48    49    50
     51    52    53    54    55    56    57    58    59    60
     61    62    63    64    65    66    69    72    67    70
     73    68    71    74    75    76    77    78    79    80
     81    82    83    84    85    86    87    88    89    90
     91    92    93    94    95    96    99   102    97   100
    103    98   101   104   105   106   107   108   109   110
    111   112   113   114   115   116   117   118   119   120
    121   122   123   124   125   126   129   132   127   130
    133   128   131   134   135   136   137   138   139   140
    141   142   143   144   145   146   147   148   149   150
    151   152   153   154   155   156   159   162   157   160
    163   158   161   164   165   166   167   168   169   170
    171   172   173   174   175   176   177   178   179   180
    181   182   183   184   185   186   189   192   187   190
    193   188   191   194   195   196   197   198   199   200
    201   202   203   204   205   206   207   208   209   210
    211   212   213   214   215   216   219   222   217   220
    223   218   221   224   225   226   227   228   229   230
    231   232   233   234   235   236   237   238   239   240
    241   242   243   244   245   246   249   252   247   250
    253   248   251   254   255   256   257   258   259   260
    261   262   263   264   265   266   267   268   269   270
    271   272   273   274   275   276   279   282   277   280
    283   278   281   284   285   286   287   288   289   290
    291   292   293   294   295   296   297   298   299   300
    301   302   303   304   305   306   309   312   307   310
    313   308   311   314   315   316   317   318   319   320
    321   322   323   324   325   326   327   328   329   330
    331   332   333   334   335   336   339   342   337   340
    343   338   341   344   345   346   347   348   349   350
    351   352   353   354   355   356   357   358   359   360
    361   362   363   364   365   366   369   372   367   370
    373   368   371   374   375   376   377   378   379   380
    381   382   383   384   385   386   387   388   389   390
    391   392   393   394   395   396   399   402   397   400
    403   398   401   404   405   406   407   408   409   410
    411   412   413   414   415   416   417   418   419   420
    421   422   423   424   425   426   427   428   429   430
    431   432   433   434   435   436   437   438   439   440
    441   442   443   444   445   446   447   448   449   450
    451   452   453   454   455   456   457   458   459   460
    461   462   463   464   465   466   467   468   469   470
    471   472   473   474   475   476   477   478   479   480
    481   482   483   484   485   486   487   488   489   490
    491   492   493   494   495   496   497   498   499   500
    501   502   503   504   505   506   507   508   509   510
    511   512   513   514   515   516   517   518   519   520
    521   522   523   524   525   526   527   528   529   530
    531   532   533   534   535   536   537   538   539   540
    541   542   543   544   545   546   547   548   549   550
    551   552   553   554   555   556   557   558   559   560
    561   562   563   564

    SFO  (index         Fragment          Generating    Expansion in Fragment Orbitals
  indx  incl.CFs)   Occup   Orb.Energy   FragmentType  Coeff.   Orbital     on Fragment
 --------------------------------------------------------------------------------------
     1       1      2.000     -10.066 au  C             1.00      1 S               1
                        (    -273.921 eV)
     2       2      2.000      -0.501 au  C             1.00      2 S               1
                        (     -13.620 eV)
     3       3       --         0.373 au  C             1.00      3 S               1
                        (      10.158 eV)
     4       4       --         5.405 au  C             1.00      4 S               1
                        (     147.073 eV)
     5       5       --        49.848 au  C             1.00      5 S               1
                        (    1356.422 eV)
     6       6      0.667      -0.193 au  C             1.00      1 P:x             1
                        (      -5.239 eV)
     7       7       --         0.169 au  C             1.00      2 P:x             1
                        (       4.589 eV)
     8       8       --         2.013 au  C             1.00      3 P:x             1
                        (      54.789 eV)
     9       9      0.667      -0.193 au  C             1.00      1 P:y             1
                        (      -5.239 eV)
    10      10       --         0.169 au  C             1.00      2 P:y             1
                        (       4.589 eV)
    11      11       --         2.013 au  C             1.00      3 P:y             1
                        (      54.789 eV)
    12      12      0.667      -0.193 au  C             1.00      1 P:z             1
                        (      -5.239 eV)
    13      13       --         0.169 au  C             1.00      2 P:z             1
                        (       4.589 eV)
    14      14       --         2.013 au  C             1.00      3 P:z             1
                        (      54.789 eV)
    15      15       --         1.243 au  C             1.00      1 D:z2            1
                        (      33.824 eV)
    16      16       --         1.243 au  C             1.00      1 D:x2-y2         1
                        (      33.824 eV)
    17      17       --         1.243 au  C             1.00      1 D:xy            1
                        (      33.824 eV)
    18      18       --         1.243 au  C             1.00      1 D:xz            1
                        (      33.824 eV)
    19      19       --         1.243 au  C             1.00      1 D:yz            1
                        (      33.824 eV)
    20      20       --         4.016 au  C             1.00      1 F:z3            1
                        (     109.271 eV)
    21      21       --         4.016 au  C             1.00      1 F:z             1
                        (     109.271 eV)
    22      22       --         4.016 au  C             1.00      1 F:xyz           1
                        (     109.271 eV)
    23      23       --         4.016 au  C             1.00      1 F:z2x           1
                        (     109.271 eV)
    24      24       --         4.016 au  C             1.00      1 F:z2y           1
                        (     109.271 eV)
    25      25       --         4.016 au  C             1.00      1 F:x             1
                        (     109.271 eV)
    26      26       --         4.016 au  C             1.00      1 F:y             1
                        (     109.271 eV)
    27      27      2.000     -10.066 au  C             1.00      1 S               2
                        (    -273.921 eV)
    28      28      2.000      -0.501 au  C             1.00      2 S               2
                        (     -13.620 eV)
    29      29       --         0.373 au  C             1.00      3 S               2
                        (      10.158 eV)
    30      30       --         5.405 au  C             1.00      4 S               2
                        (     147.073 eV)
    31      31       --        49.848 au  C             1.00      5 S               2
                        (    1356.422 eV)
    32      32      0.667      -0.193 au  C             1.00      1 P:x             2
                        (      -5.239 eV)
    33      33       --         0.169 au  C             1.00      2 P:x             2
                        (       4.589 eV)
    34      34       --         2.013 au  C             1.00      3 P:x             2
                        (      54.789 eV)
    35      35      0.667      -0.193 au  C             1.00      1 P:y             2
                        (      -5.239 eV)
    36      36       --         0.169 au  C             1.00      2 P:y             2
                        (       4.589 eV)
    37      37       --         2.013 au  C             1.00      3 P:y             2
                        (      54.789 eV)
    38      38      0.667      -0.193 au  C             1.00      1 P:z             2
                        (      -5.239 eV)
    39      39       --         0.169 au  C             1.00      2 P:z             2
                        (       4.589 eV)
    40      40       --         2.013 au  C             1.00      3 P:z             2
                        (      54.789 eV)
    41      41       --         1.243 au  C             1.00      1 D:z2            2
                        (      33.824 eV)
    42      42       --         1.243 au  C             1.00      1 D:x2-y2         2
                        (      33.824 eV)
    43      43       --         1.243 au  C             1.00      1 D:xy            2
                        (      33.824 eV)
    44      44       --         1.243 au  C             1.00      1 D:xz            2
                        (      33.824 eV)
    45      45       --         1.243 au  C             1.00      1 D:yz            2
                        (      33.824 eV)
    46      46       --         4.016 au  C             1.00      1 F:z3            2
                        (     109.271 eV)
    47      47       --         4.016 au  C             1.00      1 F:z             2
                        (     109.271 eV)
    48      48       --         4.016 au  C             1.00      1 F:xyz           2
                        (     109.271 eV)
    49      49       --         4.016 au  C             1.00      1 F:z2x           2
                        (     109.271 eV)
    50      50       --         4.016 au  C             1.00      1 F:z2y           2
                        (     109.271 eV)
    51      51       --         4.016 au  C             1.00      1 F:x             2
                        (     109.271 eV)
    52      52       --         4.016 au  C             1.00      1 F:y             2
                        (     109.271 eV)
    53      53      2.000     -10.066 au  C             1.00      1 S               3
                        (    -273.921 eV)
    54      54      2.000      -0.501 au  C             1.00      2 S               3
                        (     -13.620 eV)
    55      55       --         0.373 au  C             1.00      3 S               3
                        (      10.158 eV)
    56      56       --         5.405 au  C             1.00      4 S               3
                        (     147.073 eV)
    57      57       --        49.848 au  C             1.00      5 S               3
                        (    1356.422 eV)
    58      58      0.667      -0.193 au  C             1.00      1 P:x             3
                        (      -5.239 eV)
    59      59       --         0.169 au  C             1.00      2 P:x             3
                        (       4.589 eV)
    60      60       --         2.013 au  C             1.00      3 P:x             3
                        (      54.789 eV)
    61      61      0.667      -0.193 au  C             1.00      1 P:y             3
                        (      -5.239 eV)
    62      62       --         0.169 au  C             1.00      2 P:y             3
                        (       4.589 eV)
    63      63       --         2.013 au  C             1.00      3 P:y             3
                        (      54.789 eV)
    64      64      0.667      -0.193 au  C             1.00      1 P:z             3
                        (      -5.239 eV)
    65      65       --         0.169 au  C             1.00      2 P:z             3
                        (       4.589 eV)
    66      66       --         2.013 au  C             1.00      3 P:z             3
                        (      54.789 eV)
    67      67       --         1.243 au  C             1.00      1 D:z2            3
                        (      33.824 eV)
    68      68       --         1.243 au  C             1.00      1 D:x2-y2         3
                        (      33.824 eV)
    69      69       --         1.243 au  C             1.00      1 D:xy            3
                        (      33.824 eV)
    70      70       --         1.243 au  C             1.00      1 D:xz            3
                        (      33.824 eV)
    71      71       --         1.243 au  C             1.00      1 D:yz            3
                        (      33.824 eV)
    72      72       --         4.016 au  C             1.00      1 F:z3            3
                        (     109.271 eV)
    73      73       --         4.016 au  C             1.00      1 F:z             3
                        (     109.271 eV)
    74      74       --         4.016 au  C             1.00      1 F:xyz           3
                        (     109.271 eV)
    75      75       --         4.016 au  C             1.00      1 F:z2x           3
                        (     109.271 eV)
    76      76       --         4.016 au  C             1.00      1 F:z2y           3
                        (     109.271 eV)
    77      77       --         4.016 au  C             1.00      1 F:x             3
                        (     109.271 eV)
    78      78       --         4.016 au  C             1.00      1 F:y             3
                        (     109.271 eV)
    79      79      2.000     -10.066 au  C             1.00      1 S               4
                        (    -273.921 eV)
    80      80      2.000      -0.501 au  C             1.00      2 S               4
                        (     -13.620 eV)
    81      81       --         0.373 au  C             1.00      3 S               4
                        (      10.158 eV)
    82      82       --         5.405 au  C             1.00      4 S               4
                        (     147.073 eV)
    83      83       --        49.848 au  C             1.00      5 S               4
                        (    1356.422 eV)
    84      84      0.667      -0.193 au  C             1.00      1 P:x             4
                        (      -5.239 eV)
    85      85       --         0.169 au  C             1.00      2 P:x             4
                        (       4.589 eV)
    86      86       --         2.013 au  C             1.00      3 P:x             4
                        (      54.789 eV)
    87      87      0.667      -0.193 au  C             1.00      1 P:y             4
                        (      -5.239 eV)
    88      88       --         0.169 au  C             1.00      2 P:y             4
                        (       4.589 eV)
    89      89       --         2.013 au  C             1.00      3 P:y             4
                        (      54.789 eV)
    90      90      0.667      -0.193 au  C             1.00      1 P:z             4
                        (      -5.239 eV)
    91      91       --         0.169 au  C             1.00      2 P:z             4
                        (       4.589 eV)
    92      92       --         2.013 au  C             1.00      3 P:z             4
                        (      54.789 eV)
    93      93       --         1.243 au  C             1.00      1 D:z2            4
                        (      33.824 eV)
    94      94       --         1.243 au  C             1.00      1 D:x2-y2         4
                        (      33.824 eV)
    95      95       --         1.243 au  C             1.00      1 D:xy            4
                        (      33.824 eV)
    96      96       --         1.243 au  C             1.00      1 D:xz            4
                        (      33.824 eV)
    97      97       --         1.243 au  C             1.00      1 D:yz            4
                        (      33.824 eV)
    98      98       --         4.016 au  C             1.00      1 F:z3            4
                        (     109.271 eV)
    99      99       --         4.016 au  C             1.00      1 F:z             4
                        (     109.271 eV)
   100     100       --         4.016 au  C             1.00      1 F:xyz           4
                        (     109.271 eV)
   101     101       --         4.016 au  C             1.00      1 F:z2x           4
                        (     109.271 eV)
   102     102       --         4.016 au  C             1.00      1 F:z2y           4
                        (     109.271 eV)
   103     103       --         4.016 au  C             1.00      1 F:x             4
                        (     109.271 eV)
   104     104       --         4.016 au  C             1.00      1 F:y             4
                        (     109.271 eV)
   105     105      2.000     -10.066 au  C             1.00      1 S               5
                        (    -273.921 eV)
   106     106      2.000      -0.501 au  C             1.00      2 S               5
                        (     -13.620 eV)
   107     107       --         0.373 au  C             1.00      3 S               5
                        (      10.158 eV)
   108     108       --         5.405 au  C             1.00      4 S               5
                        (     147.073 eV)
   109     109       --        49.848 au  C             1.00      5 S               5
                        (    1356.422 eV)
   110     110      0.667      -0.193 au  C             1.00      1 P:x             5
                        (      -5.239 eV)
   111     111       --         0.169 au  C             1.00      2 P:x             5
                        (       4.589 eV)
   112     112       --         2.013 au  C             1.00      3 P:x             5
                        (      54.789 eV)
   113     113      0.667      -0.193 au  C             1.00      1 P:y             5
                        (      -5.239 eV)
   114     114       --         0.169 au  C             1.00      2 P:y             5
                        (       4.589 eV)
   115     115       --         2.013 au  C             1.00      3 P:y             5
                        (      54.789 eV)
   116     116      0.667      -0.193 au  C             1.00      1 P:z             5
                        (      -5.239 eV)
   117     117       --         0.169 au  C             1.00      2 P:z             5
                        (       4.589 eV)
   118     118       --         2.013 au  C             1.00      3 P:z             5
                        (      54.789 eV)
   119     119       --         1.243 au  C             1.00      1 D:z2            5
                        (      33.824 eV)
   120     120       --         1.243 au  C             1.00      1 D:x2-y2         5
                        (      33.824 eV)
   121     121       --         1.243 au  C             1.00      1 D:xy            5
                        (      33.824 eV)
   122     122       --         1.243 au  C             1.00      1 D:xz            5
                        (      33.824 eV)
   123     123       --         1.243 au  C             1.00      1 D:yz            5
                        (      33.824 eV)
   124     124       --         4.016 au  C             1.00      1 F:z3            5
                        (     109.271 eV)
   125     125       --         4.016 au  C             1.00      1 F:z             5
                        (     109.271 eV)
   126     126       --         4.016 au  C             1.00      1 F:xyz           5
                        (     109.271 eV)
   127     127       --         4.016 au  C             1.00      1 F:z2x           5
                        (     109.271 eV)
   128     128       --         4.016 au  C             1.00      1 F:z2y           5
                        (     109.271 eV)
   129     129       --         4.016 au  C             1.00      1 F:x             5
                        (     109.271 eV)
   130     130       --         4.016 au  C             1.00      1 F:y             5
                        (     109.271 eV)
   131     131      2.000     -10.066 au  C             1.00      1 S               6
                        (    -273.921 eV)
   132     132      2.000      -0.501 au  C             1.00      2 S               6
                        (     -13.620 eV)
   133     133       --         0.373 au  C             1.00      3 S               6
                        (      10.158 eV)
   134     134       --         5.405 au  C             1.00      4 S               6
                        (     147.073 eV)
   135     135       --        49.848 au  C             1.00      5 S               6
                        (    1356.422 eV)
   136     136      0.667      -0.193 au  C             1.00      1 P:x             6
                        (      -5.239 eV)
   137     137       --         0.169 au  C             1.00      2 P:x             6
                        (       4.589 eV)
   138     138       --         2.013 au  C             1.00      3 P:x             6
                        (      54.789 eV)
   139     139      0.667      -0.193 au  C             1.00      1 P:y             6
                        (      -5.239 eV)
   140     140       --         0.169 au  C             1.00      2 P:y             6
                        (       4.589 eV)
   141     141       --         2.013 au  C             1.00      3 P:y             6
                        (      54.789 eV)
   142     142      0.667      -0.193 au  C             1.00      1 P:z             6
                        (      -5.239 eV)
   143     143       --         0.169 au  C             1.00      2 P:z             6
                        (       4.589 eV)
   144     144       --         2.013 au  C             1.00      3 P:z             6
                        (      54.789 eV)
   145     145       --         1.243 au  C             1.00      1 D:z2            6
                        (      33.824 eV)
   146     146       --         1.243 au  C             1.00      1 D:x2-y2         6
                        (      33.824 eV)
   147     147       --         1.243 au  C             1.00      1 D:xy            6
                        (      33.824 eV)
   148     148       --         1.243 au  C             1.00      1 D:xz            6
                        (      33.824 eV)
   149     149       --         1.243 au  C             1.00      1 D:yz            6
                        (      33.824 eV)
   150     150       --         4.016 au  C             1.00      1 F:z3            6
                        (     109.271 eV)
   151     151       --         4.016 au  C             1.00      1 F:z             6
                        (     109.271 eV)
   152     152       --         4.016 au  C             1.00      1 F:xyz           6
                        (     109.271 eV)
   153     153       --         4.016 au  C             1.00      1 F:z2x           6
                        (     109.271 eV)
   154     154       --         4.016 au  C             1.00      1 F:z2y           6
                        (     109.271 eV)
   155     155       --         4.016 au  C             1.00      1 F:x             6
                        (     109.271 eV)
   156     156       --         4.016 au  C             1.00      1 F:y             6
                        (     109.271 eV)
   157     157      2.000     -10.066 au  C             1.00      1 S               7
                        (    -273.921 eV)
   158     158      2.000      -0.501 au  C             1.00      2 S               7
                        (     -13.620 eV)
   159     159       --         0.373 au  C             1.00      3 S               7
                        (      10.158 eV)
   160     160       --         5.405 au  C             1.00      4 S               7
                        (     147.073 eV)
   161     161       --        49.848 au  C             1.00      5 S               7
                        (    1356.422 eV)
   162     162      0.667      -0.193 au  C             1.00      1 P:x             7
                        (      -5.239 eV)
   163     163       --         0.169 au  C             1.00      2 P:x             7
                        (       4.589 eV)
   164     164       --         2.013 au  C             1.00      3 P:x             7
                        (      54.789 eV)
   165     165      0.667      -0.193 au  C             1.00      1 P:y             7
                        (      -5.239 eV)
   166     166       --         0.169 au  C             1.00      2 P:y             7
                        (       4.589 eV)
   167     167       --         2.013 au  C             1.00      3 P:y             7
                        (      54.789 eV)
   168     168      0.667      -0.193 au  C             1.00      1 P:z             7
                        (      -5.239 eV)
   169     169       --         0.169 au  C             1.00      2 P:z             7
                        (       4.589 eV)
   170     170       --         2.013 au  C             1.00      3 P:z             7
                        (      54.789 eV)
   171     171       --         1.243 au  C             1.00      1 D:z2            7
                        (      33.824 eV)
   172     172       --         1.243 au  C             1.00      1 D:x2-y2         7
                        (      33.824 eV)
   173     173       --         1.243 au  C             1.00      1 D:xy            7
                        (      33.824 eV)
   174     174       --         1.243 au  C             1.00      1 D:xz            7
                        (      33.824 eV)
   175     175       --         1.243 au  C             1.00      1 D:yz            7
                        (      33.824 eV)
   176     176       --         4.016 au  C             1.00      1 F:z3            7
                        (     109.271 eV)
   177     177       --         4.016 au  C             1.00      1 F:z             7
                        (     109.271 eV)
   178     178       --         4.016 au  C             1.00      1 F:xyz           7
                        (     109.271 eV)
   179     179       --         4.016 au  C             1.00      1 F:z2x           7
                        (     109.271 eV)
   180     180       --         4.016 au  C             1.00      1 F:z2y           7
                        (     109.271 eV)
   181     181       --         4.016 au  C             1.00      1 F:x             7
                        (     109.271 eV)
   182     182       --         4.016 au  C             1.00      1 F:y             7
                        (     109.271 eV)
   183     183      2.000     -10.066 au  C             1.00      1 S               8
                        (    -273.921 eV)
   184     184      2.000      -0.501 au  C             1.00      2 S               8
                        (     -13.620 eV)
   185     185       --         0.373 au  C             1.00      3 S               8
                        (      10.158 eV)
   186     186       --         5.405 au  C             1.00      4 S               8
                        (     147.073 eV)
   187     187       --        49.848 au  C             1.00      5 S               8
                        (    1356.422 eV)
   188     188      0.667      -0.193 au  C             1.00      1 P:x             8
                        (      -5.239 eV)
   189     189       --         0.169 au  C             1.00      2 P:x             8
                        (       4.589 eV)
   190     190       --         2.013 au  C             1.00      3 P:x             8
                        (      54.789 eV)
   191     191      0.667      -0.193 au  C             1.00      1 P:y             8
                        (      -5.239 eV)
   192     192       --         0.169 au  C             1.00      2 P:y             8
                        (       4.589 eV)
   193     193       --         2.013 au  C             1.00      3 P:y             8
                        (      54.789 eV)
   194     194      0.667      -0.193 au  C             1.00      1 P:z             8
                        (      -5.239 eV)
   195     195       --         0.169 au  C             1.00      2 P:z             8
                        (       4.589 eV)
   196     196       --         2.013 au  C             1.00      3 P:z             8
                        (      54.789 eV)
   197     197       --         1.243 au  C             1.00      1 D:z2            8
                        (      33.824 eV)
   198     198       --         1.243 au  C             1.00      1 D:x2-y2         8
                        (      33.824 eV)
   199     199       --         1.243 au  C             1.00      1 D:xy            8
                        (      33.824 eV)
   200     200       --         1.243 au  C             1.00      1 D:xz            8
                        (      33.824 eV)
   201     201       --         1.243 au  C             1.00      1 D:yz            8
                        (      33.824 eV)
   202     202       --         4.016 au  C             1.00      1 F:z3            8
                        (     109.271 eV)
   203     203       --         4.016 au  C             1.00      1 F:z             8
                        (     109.271 eV)
   204     204       --         4.016 au  C             1.00      1 F:xyz           8
                        (     109.271 eV)
   205     205       --         4.016 au  C             1.00      1 F:z2x           8
                        (     109.271 eV)
   206     206       --         4.016 au  C             1.00      1 F:z2y           8
                        (     109.271 eV)
   207     207       --         4.016 au  C             1.00      1 F:x             8
                        (     109.271 eV)
   208     208       --         4.016 au  C             1.00      1 F:y             8
                        (     109.271 eV)
   209     209      2.000     -10.066 au  C             1.00      1 S               9
                        (    -273.921 eV)
   210     210      2.000      -0.501 au  C             1.00      2 S               9
                        (     -13.620 eV)
   211     211       --         0.373 au  C             1.00      3 S               9
                        (      10.158 eV)
   212     212       --         5.405 au  C             1.00      4 S               9
                        (     147.073 eV)
   213     213       --        49.848 au  C             1.00      5 S               9
                        (    1356.422 eV)
   214     214      0.667      -0.193 au  C             1.00      1 P:x             9
                        (      -5.239 eV)
   215     215       --         0.169 au  C             1.00      2 P:x             9
                        (       4.589 eV)
   216     216       --         2.013 au  C             1.00      3 P:x             9
                        (      54.789 eV)
   217     217      0.667      -0.193 au  C             1.00      1 P:y             9
                        (      -5.239 eV)
   218     218       --         0.169 au  C             1.00      2 P:y             9
                        (       4.589 eV)
   219     219       --         2.013 au  C             1.00      3 P:y             9
                        (      54.789 eV)
   220     220      0.667      -0.193 au  C             1.00      1 P:z             9
                        (      -5.239 eV)
   221     221       --         0.169 au  C             1.00      2 P:z             9
                        (       4.589 eV)
   222     222       --         2.013 au  C             1.00      3 P:z             9
                        (      54.789 eV)
   223     223       --         1.243 au  C             1.00      1 D:z2            9
                        (      33.824 eV)
   224     224       --         1.243 au  C             1.00      1 D:x2-y2         9
                        (      33.824 eV)
   225     225       --         1.243 au  C             1.00      1 D:xy            9
                        (      33.824 eV)
   226     226       --         1.243 au  C             1.00      1 D:xz            9
                        (      33.824 eV)
   227     227       --         1.243 au  C             1.00      1 D:yz            9
                        (      33.824 eV)
   228     228       --         4.016 au  C             1.00      1 F:z3            9
                        (     109.271 eV)
   229     229       --         4.016 au  C             1.00      1 F:z             9
                        (     109.271 eV)
   230     230       --         4.016 au  C             1.00      1 F:xyz           9
                        (     109.271 eV)
   231     231       --         4.016 au  C             1.00      1 F:z2x           9
                        (     109.271 eV)
   232     232       --         4.016 au  C             1.00      1 F:z2y           9
                        (     109.271 eV)
   233     233       --         4.016 au  C             1.00      1 F:x             9
                        (     109.271 eV)
   234     234       --         4.016 au  C             1.00      1 F:y             9
                        (     109.271 eV)
   235     235      2.000     -10.066 au  C             1.00      1 S              10
                        (    -273.921 eV)
   236     236      2.000      -0.501 au  C             1.00      2 S              10
                        (     -13.620 eV)
   237     237       --         0.373 au  C             1.00      3 S              10
                        (      10.158 eV)
   238     238       --         5.405 au  C             1.00      4 S              10
                        (     147.073 eV)
   239     239       --        49.848 au  C             1.00      5 S              10
                        (    1356.422 eV)
   240     240      0.667      -0.193 au  C             1.00      1 P:x            10
                        (      -5.239 eV)
   241     241       --         0.169 au  C             1.00      2 P:x            10
                        (       4.589 eV)
   242     242       --         2.013 au  C             1.00      3 P:x            10
                        (      54.789 eV)
   243     243      0.667      -0.193 au  C             1.00      1 P:y            10
                        (      -5.239 eV)
   244     244       --         0.169 au  C             1.00      2 P:y            10
                        (       4.589 eV)
   245     245       --         2.013 au  C             1.00      3 P:y            10
                        (      54.789 eV)
   246     246      0.667      -0.193 au  C             1.00      1 P:z            10
                        (      -5.239 eV)
   247     247       --         0.169 au  C             1.00      2 P:z            10
                        (       4.589 eV)
   248     248       --         2.013 au  C             1.00      3 P:z            10
                        (      54.789 eV)
   249     249       --         1.243 au  C             1.00      1 D:z2           10
                        (      33.824 eV)
   250     250       --         1.243 au  C             1.00      1 D:x2-y2        10
                        (      33.824 eV)
   251     251       --         1.243 au  C             1.00      1 D:xy           10
                        (      33.824 eV)
   252     252       --         1.243 au  C             1.00      1 D:xz           10
                        (      33.824 eV)
   253     253       --         1.243 au  C             1.00      1 D:yz           10
                        (      33.824 eV)
   254     254       --         4.016 au  C             1.00      1 F:z3           10
                        (     109.271 eV)
   255     255       --         4.016 au  C             1.00      1 F:z            10
                        (     109.271 eV)
   256     256       --         4.016 au  C             1.00      1 F:xyz          10
                        (     109.271 eV)
   257     257       --         4.016 au  C             1.00      1 F:z2x          10
                        (     109.271 eV)
   258     258       --         4.016 au  C             1.00      1 F:z2y          10
                        (     109.271 eV)
   259     259       --         4.016 au  C             1.00      1 F:x            10
                        (     109.271 eV)
   260     260       --         4.016 au  C             1.00      1 F:y            10
                        (     109.271 eV)
   261     261      2.000     -18.941 au  O             1.00      1 S              11
                        (    -515.403 eV)
   262     262      2.000      -0.876 au  O             1.00      2 S              11
                        (     -23.838 eV)
   263     263       --         0.791 au  O             1.00      3 S              11
                        (      21.524 eV)
   264     264       --        13.422 au  O             1.00      4 S              11
                        (     365.226 eV)
   265     265       --       121.561 au  O             1.00      5 S              11
                        (    3307.838 eV)
   266     266      1.333      -0.331 au  O             1.00      1 P:x            11
                        (      -9.020 eV)
   267     267       --         0.347 au  O             1.00      2 P:x            11
                        (       9.437 eV)
   268     268       --         3.820 au  O             1.00      3 P:x            11
                        (     103.939 eV)
   269     269      1.333      -0.331 au  O             1.00      1 P:y            11
                        (      -9.020 eV)
   270     270       --         0.347 au  O             1.00      2 P:y            11
                        (       9.437 eV)
   271     271       --         3.820 au  O             1.00      3 P:y            11
                        (     103.939 eV)
   272     272      1.333      -0.331 au  O             1.00      1 P:z            11
                        (      -9.020 eV)
   273     273       --         0.347 au  O             1.00      2 P:z            11
                        (       9.437 eV)
   274     274       --         3.820 au  O             1.00      3 P:z            11
                        (     103.939 eV)
   275     275       --         1.071 au  O             1.00      1 D:z2           11
                        (      29.134 eV)
   276     276       --         1.071 au  O             1.00      1 D:x2-y2        11
                        (      29.134 eV)
   277     277       --         1.071 au  O             1.00      1 D:xy           11
                        (      29.134 eV)
   278     278       --         1.071 au  O             1.00      1 D:xz           11
                        (      29.134 eV)
   279     279       --         1.071 au  O             1.00      1 D:yz           11
                        (      29.134 eV)
   280     280       --         3.359 au  O             1.00      1 F:z3           11
                        (      91.410 eV)
   281     281       --         3.359 au  O             1.00      1 F:z            11
                        (      91.410 eV)
   282     282       --         3.359 au  O             1.00      1 F:xyz          11
                        (      91.410 eV)
   283     283       --         3.359 au  O             1.00      1 F:z2x          11
                        (      91.410 eV)
   284     284       --         3.359 au  O             1.00      1 F:z2y          11
                        (      91.410 eV)
   285     285       --         3.359 au  O             1.00      1 F:x            11
                        (      91.410 eV)
   286     286       --         3.359 au  O             1.00      1 F:y            11
                        (      91.410 eV)
   287     287      2.000     -18.941 au  O             1.00      1 S              12
                        (    -515.403 eV)
   288     288      2.000      -0.876 au  O             1.00      2 S              12
                        (     -23.838 eV)
   289     289       --         0.791 au  O             1.00      3 S              12
                        (      21.524 eV)
   290     290       --        13.422 au  O             1.00      4 S              12
                        (     365.226 eV)
   291     291       --       121.561 au  O             1.00      5 S              12
                        (    3307.838 eV)
   292     292      1.333      -0.331 au  O             1.00      1 P:x            12
                        (      -9.020 eV)
   293     293       --         0.347 au  O             1.00      2 P:x            12
                        (       9.437 eV)
   294     294       --         3.820 au  O             1.00      3 P:x            12
                        (     103.939 eV)
   295     295      1.333      -0.331 au  O             1.00      1 P:y            12
                        (      -9.020 eV)
   296     296       --         0.347 au  O             1.00      2 P:y            12
                        (       9.437 eV)
   297     297       --         3.820 au  O             1.00      3 P:y            12
                        (     103.939 eV)
   298     298      1.333      -0.331 au  O             1.00      1 P:z            12
                        (      -9.020 eV)
   299     299       --         0.347 au  O             1.00      2 P:z            12
                        (       9.437 eV)
   300     300       --         3.820 au  O             1.00      3 P:z            12
                        (     103.939 eV)
   301     301       --         1.071 au  O             1.00      1 D:z2           12
                        (      29.134 eV)
   302     302       --         1.071 au  O             1.00      1 D:x2-y2        12
                        (      29.134 eV)
   303     303       --         1.071 au  O             1.00      1 D:xy           12
                        (      29.134 eV)
   304     304       --         1.071 au  O             1.00      1 D:xz           12
                        (      29.134 eV)
   305     305       --         1.071 au  O             1.00      1 D:yz           12
                        (      29.134 eV)
   306     306       --         3.359 au  O             1.00      1 F:z3           12
                        (      91.410 eV)
   307     307       --         3.359 au  O             1.00      1 F:z            12
                        (      91.410 eV)
   308     308       --         3.359 au  O             1.00      1 F:xyz          12
                        (      91.410 eV)
   309     309       --         3.359 au  O             1.00      1 F:z2x          12
                        (      91.410 eV)
   310     310       --         3.359 au  O             1.00      1 F:z2y          12
                        (      91.410 eV)
   311     311       --         3.359 au  O             1.00      1 F:x            12
                        (      91.410 eV)
   312     312       --         3.359 au  O             1.00      1 F:y            12
                        (      91.410 eV)
   313     313      2.000     -18.941 au  O             1.00      1 S              13
                        (    -515.403 eV)
   314     314      2.000      -0.876 au  O             1.00      2 S              13
                        (     -23.838 eV)
   315     315       --         0.791 au  O             1.00      3 S              13
                        (      21.524 eV)
   316     316       --        13.422 au  O             1.00      4 S              13
                        (     365.226 eV)
   317     317       --       121.561 au  O             1.00      5 S              13
                        (    3307.838 eV)
   318     318      1.333      -0.331 au  O             1.00      1 P:x            13
                        (      -9.020 eV)
   319     319       --         0.347 au  O             1.00      2 P:x            13
                        (       9.437 eV)
   320     320       --         3.820 au  O             1.00      3 P:x            13
                        (     103.939 eV)
   321     321      1.333      -0.331 au  O             1.00      1 P:y            13
                        (      -9.020 eV)
   322     322       --         0.347 au  O             1.00      2 P:y            13
                        (       9.437 eV)
   323     323       --         3.820 au  O             1.00      3 P:y            13
                        (     103.939 eV)
   324     324      1.333      -0.331 au  O             1.00      1 P:z            13
                        (      -9.020 eV)
   325     325       --         0.347 au  O             1.00      2 P:z            13
                        (       9.437 eV)
   326     326       --         3.820 au  O             1.00      3 P:z            13
                        (     103.939 eV)
   327     327       --         1.071 au  O             1.00      1 D:z2           13
                        (      29.134 eV)
   328     328       --         1.071 au  O             1.00      1 D:x2-y2        13
                        (      29.134 eV)
   329     329       --         1.071 au  O             1.00      1 D:xy           13
                        (      29.134 eV)
   330     330       --         1.071 au  O             1.00      1 D:xz           13
                        (      29.134 eV)
   331     331       --         1.071 au  O             1.00      1 D:yz           13
                        (      29.134 eV)
   332     332       --         3.359 au  O             1.00      1 F:z3           13
                        (      91.410 eV)
   333     333       --         3.359 au  O             1.00      1 F:z            13
                        (      91.410 eV)
   334     334       --         3.359 au  O             1.00      1 F:xyz          13
                        (      91.410 eV)
   335     335       --         3.359 au  O             1.00      1 F:z2x          13
                        (      91.410 eV)
   336     336       --         3.359 au  O             1.00      1 F:z2y          13
                        (      91.410 eV)
   337     337       --         3.359 au  O             1.00      1 F:x            13
                        (      91.410 eV)
   338     338       --         3.359 au  O             1.00      1 F:y            13
                        (      91.410 eV)
   339     339      2.000     -18.941 au  O             1.00      1 S              14
                        (    -515.403 eV)
   340     340      2.000      -0.876 au  O             1.00      2 S              14
                        (     -23.838 eV)
   341     341       --         0.791 au  O             1.00      3 S              14
                        (      21.524 eV)
   342     342       --        13.422 au  O             1.00      4 S              14
                        (     365.226 eV)
   343     343       --       121.561 au  O             1.00      5 S              14
                        (    3307.838 eV)
   344     344      1.333      -0.331 au  O             1.00      1 P:x            14
                        (      -9.020 eV)
   345     345       --         0.347 au  O             1.00      2 P:x            14
                        (       9.437 eV)
   346     346       --         3.820 au  O             1.00      3 P:x            14
                        (     103.939 eV)
   347     347      1.333      -0.331 au  O             1.00      1 P:y            14
                        (      -9.020 eV)
   348     348       --         0.347 au  O             1.00      2 P:y            14
                        (       9.437 eV)
   349     349       --         3.820 au  O             1.00      3 P:y            14
                        (     103.939 eV)
   350     350      1.333      -0.331 au  O             1.00      1 P:z            14
                        (      -9.020 eV)
   351     351       --         0.347 au  O             1.00      2 P:z            14
                        (       9.437 eV)
   352     352       --         3.820 au  O             1.00      3 P:z            14
                        (     103.939 eV)
   353     353       --         1.071 au  O             1.00      1 D:z2           14
                        (      29.134 eV)
   354     354       --         1.071 au  O             1.00      1 D:x2-y2        14
                        (      29.134 eV)
   355     355       --         1.071 au  O             1.00      1 D:xy           14
                        (      29.134 eV)
   356     356       --         1.071 au  O             1.00      1 D:xz           14
                        (      29.134 eV)
   357     357       --         1.071 au  O             1.00      1 D:yz           14
                        (      29.134 eV)
   358     358       --         3.359 au  O             1.00      1 F:z3           14
                        (      91.410 eV)
   359     359       --         3.359 au  O             1.00      1 F:z            14
                        (      91.410 eV)
   360     360       --         3.359 au  O             1.00      1 F:xyz          14
                        (      91.410 eV)
   361     361       --         3.359 au  O             1.00      1 F:z2x          14
                        (      91.410 eV)
   362     362       --         3.359 au  O             1.00      1 F:z2y          14
                        (      91.410 eV)
   363     363       --         3.359 au  O             1.00      1 F:x            14
                        (      91.410 eV)
   364     364       --         3.359 au  O             1.00      1 F:y            14
                        (      91.410 eV)
   365     365      1.000      -0.240 au  H             1.00      1 S              15
                        (      -6.532 eV)
   366     366       --         0.088 au  H             1.00      2 S              15
                        (       2.394 eV)
   367     367       --         1.502 au  H             1.00      3 S              15
                        (      40.869 eV)
   368     368       --         0.406 au  H             1.00      1 P:x            15
                        (      11.051 eV)
   369     369       --         0.406 au  H             1.00      1 P:y            15
                        (      11.051 eV)
   370     370       --         0.406 au  H             1.00      1 P:z            15
                        (      11.051 eV)
   371     371       --         2.569 au  H             1.00      1 D:z2           15
                        (      69.917 eV)
   372     372       --         2.569 au  H             1.00      1 D:x2-y2        15
                        (      69.917 eV)
   373     373       --         2.569 au  H             1.00      1 D:xy           15
                        (      69.917 eV)
   374     374       --         2.569 au  H             1.00      1 D:xz           15
                        (      69.917 eV)
   375     375       --         2.569 au  H             1.00      1 D:yz           15
                        (      69.917 eV)
   376     376      1.000      -0.240 au  H             1.00      1 S              16
                        (      -6.532 eV)
   377     377       --         0.088 au  H             1.00      2 S              16
                        (       2.394 eV)
   378     378       --         1.502 au  H             1.00      3 S              16
                        (      40.869 eV)
   379     379       --         0.406 au  H             1.00      1 P:x            16
                        (      11.051 eV)
   380     380       --         0.406 au  H             1.00      1 P:y            16
                        (      11.051 eV)
   381     381       --         0.406 au  H             1.00      1 P:z            16
                        (      11.051 eV)
   382     382       --         2.569 au  H             1.00      1 D:z2           16
                        (      69.917 eV)
   383     383       --         2.569 au  H             1.00      1 D:x2-y2        16
                        (      69.917 eV)
   384     384       --         2.569 au  H             1.00      1 D:xy           16
                        (      69.917 eV)
   385     385       --         2.569 au  H             1.00      1 D:xz           16
                        (      69.917 eV)
   386     386       --         2.569 au  H             1.00      1 D:yz           16
                        (      69.917 eV)
   387     387      1.000      -0.240 au  H             1.00      1 S              17
                        (      -6.532 eV)
   388     388       --         0.088 au  H             1.00      2 S              17
                        (       2.394 eV)
   389     389       --         1.502 au  H             1.00      3 S              17
                        (      40.869 eV)
   390     390       --         0.406 au  H             1.00      1 P:x            17
                        (      11.051 eV)
   391     391       --         0.406 au  H             1.00      1 P:y            17
                        (      11.051 eV)
   392     392       --         0.406 au  H             1.00      1 P:z            17
                        (      11.051 eV)
   393     393       --         2.569 au  H             1.00      1 D:z2           17
                        (      69.917 eV)
   394     394       --         2.569 au  H             1.00      1 D:x2-y2        17
                        (      69.917 eV)
   395     395       --         2.569 au  H             1.00      1 D:xy           17
                        (      69.917 eV)
   396     396       --         2.569 au  H             1.00      1 D:xz           17
                        (      69.917 eV)
   397     397       --         2.569 au  H             1.00      1 D:yz           17
                        (      69.917 eV)
   398     398      1.000      -0.240 au  H             1.00      1 S              18
                        (      -6.532 eV)
   399     399       --         0.088 au  H             1.00      2 S              18
                        (       2.394 eV)
   400     400       --         1.502 au  H             1.00      3 S              18
                        (      40.869 eV)
   401     401       --         0.406 au  H             1.00      1 P:x            18
                        (      11.051 eV)
   402     402       --         0.406 au  H             1.00      1 P:y            18
                        (      11.051 eV)
   403     403       --         0.406 au  H             1.00      1 P:z            18
                        (      11.051 eV)
   404     404       --         2.569 au  H             1.00      1 D:z2           18
                        (      69.917 eV)
   405     405       --         2.569 au  H             1.00      1 D:x2-y2        18
                        (      69.917 eV)
   406     406       --         2.569 au  H             1.00      1 D:xy           18
                        (      69.917 eV)
   407     407       --         2.569 au  H             1.00      1 D:xz           18
                        (      69.917 eV)
   408     408       --         2.569 au  H             1.00      1 D:yz           18
                        (      69.917 eV)
   409     409      1.000      -0.240 au  H             1.00      1 S              19
                        (      -6.532 eV)
   410     410       --         0.088 au  H             1.00      2 S              19
                        (       2.394 eV)
   411     411       --         1.502 au  H             1.00      3 S              19
                        (      40.869 eV)
   412     412       --         0.406 au  H             1.00      1 P:x            19
                        (      11.051 eV)
   413     413       --         0.406 au  H             1.00      1 P:y            19
                        (      11.051 eV)
   414     414       --         0.406 au  H             1.00      1 P:z            19
                        (      11.051 eV)
   415     415       --         2.569 au  H             1.00      1 D:z2           19
                        (      69.917 eV)
   416     416       --         2.569 au  H             1.00      1 D:x2-y2        19
                        (      69.917 eV)
   417     417       --         2.569 au  H             1.00      1 D:xy           19
                        (      69.917 eV)
   418     418       --         2.569 au  H             1.00      1 D:xz           19
                        (      69.917 eV)
   419     419       --         2.569 au  H             1.00      1 D:yz           19
                        (      69.917 eV)
   420     420      1.000      -0.240 au  H             1.00      1 S              20
                        (      -6.532 eV)
   421     421       --         0.088 au  H             1.00      2 S              20
                        (       2.394 eV)
   422     422       --         1.502 au  H             1.00      3 S              20
                        (      40.869 eV)
   423     423       --         0.406 au  H             1.00      1 P:x            20
                        (      11.051 eV)
   424     424       --         0.406 au  H             1.00      1 P:y            20
                        (      11.051 eV)
   425     425       --         0.406 au  H             1.00      1 P:z            20
                        (      11.051 eV)
   426     426       --         2.569 au  H             1.00      1 D:z2           20
                        (      69.917 eV)
   427     427       --         2.569 au  H             1.00      1 D:x2-y2        20
                        (      69.917 eV)
   428     428       --         2.569 au  H             1.00      1 D:xy           20
                        (      69.917 eV)
   429     429       --         2.569 au  H             1.00      1 D:xz           20
                        (      69.917 eV)
   430     430       --         2.569 au  H             1.00      1 D:yz           20
                        (      69.917 eV)
   431     431      1.000      -0.240 au  H             1.00      1 S              21
                        (      -6.532 eV)
   432     432       --         0.088 au  H             1.00      2 S              21
                        (       2.394 eV)
   433     433       --         1.502 au  H             1.00      3 S              21
                        (      40.869 eV)
   434     434       --         0.406 au  H             1.00      1 P:x            21
                        (      11.051 eV)
   435     435       --         0.406 au  H             1.00      1 P:y            21
                        (      11.051 eV)
   436     436       --         0.406 au  H             1.00      1 P:z            21
                        (      11.051 eV)
   437     437       --         2.569 au  H             1.00      1 D:z2           21
                        (      69.917 eV)
   438     438       --         2.569 au  H             1.00      1 D:x2-y2        21
                        (      69.917 eV)
   439     439       --         2.569 au  H             1.00      1 D:xy           21
                        (      69.917 eV)
   440     440       --         2.569 au  H             1.00      1 D:xz           21
                        (      69.917 eV)
   441     441       --         2.569 au  H             1.00      1 D:yz           21
                        (      69.917 eV)
   442     442      1.000      -0.240 au  H             1.00      1 S              22
                        (      -6.532 eV)
   443     443       --         0.088 au  H             1.00      2 S              22
                        (       2.394 eV)
   444     444       --         1.502 au  H             1.00      3 S              22
                        (      40.869 eV)
   445     445       --         0.406 au  H             1.00      1 P:x            22
                        (      11.051 eV)
   446     446       --         0.406 au  H             1.00      1 P:y            22
                        (      11.051 eV)
   447     447       --         0.406 au  H             1.00      1 P:z            22
                        (      11.051 eV)
   448     448       --         2.569 au  H             1.00      1 D:z2           22
                        (      69.917 eV)
   449     449       --         2.569 au  H             1.00      1 D:x2-y2        22
                        (      69.917 eV)
   450     450       --         2.569 au  H             1.00      1 D:xy           22
                        (      69.917 eV)
   451     451       --         2.569 au  H             1.00      1 D:xz           22
                        (      69.917 eV)
   452     452       --         2.569 au  H             1.00      1 D:yz           22
                        (      69.917 eV)
   453     453      1.000      -0.240 au  H             1.00      1 S              23
                        (      -6.532 eV)
   454     454       --         0.088 au  H             1.00      2 S              23
                        (       2.394 eV)
   455     455       --         1.502 au  H             1.00      3 S              23
                        (      40.869 eV)
   456     456       --         0.406 au  H             1.00      1 P:x            23
                        (      11.051 eV)
   457     457       --         0.406 au  H             1.00      1 P:y            23
                        (      11.051 eV)
   458     458       --         0.406 au  H             1.00      1 P:z            23
                        (      11.051 eV)
   459     459       --         2.569 au  H             1.00      1 D:z2           23
                        (      69.917 eV)
   460     460       --         2.569 au  H             1.00      1 D:x2-y2        23
                        (      69.917 eV)
   461     461       --         2.569 au  H             1.00      1 D:xy           23
                        (      69.917 eV)
   462     462       --         2.569 au  H             1.00      1 D:xz           23
                        (      69.917 eV)
   463     463       --         2.569 au  H             1.00      1 D:yz           23
                        (      69.917 eV)
   464     464      1.000      -0.240 au  H             1.00      1 S              24
                        (      -6.532 eV)
   465     465       --         0.088 au  H             1.00      2 S              24
                        (       2.394 eV)
   466     466       --         1.502 au  H             1.00      3 S              24
                        (      40.869 eV)
   467     467       --         0.406 au  H             1.00      1 P:x            24
                        (      11.051 eV)
   468     468       --         0.406 au  H             1.00      1 P:y            24
                        (      11.051 eV)
   469     469       --         0.406 au  H             1.00      1 P:z            24
                        (      11.051 eV)
   470     470       --         2.569 au  H             1.00      1 D:z2           24
                        (      69.917 eV)
   471     471       --         2.569 au  H             1.00      1 D:x2-y2        24
[...]
                                    1.04%     1 S              -6.532  1.00    21 H
       1.320  0.00    64 A         11.44%     1 P:y            -5.239  0.67    10 C
                                    8.15%     1 S              -6.532  1.00    24 H
                                    8.09%     1 S              -6.532  1.00    16 H
                                    6.78%     2 S               2.394  0.00    24 H
                                    6.33%     2 S               2.394  0.00    16 H
                                    6.17%     1 P:y            -5.239  0.67     2 C
                                    5.45%     1 S              -6.532  1.00    25 H
                                    4.84%     1 P:x            -5.239  0.67     4 C
                                    4.83%     1 P:x            -5.239  0.67     3 C
                                    4.50%     1 S              -6.532  1.00    26 H
                                    4.45%     1 S              -6.532  1.00    22 H
                                    4.29%     1 S              -6.532  1.00    21 H
                                    4.29%     1 P:z            -5.239  0.67     2 C
                                    3.97%     2 S               2.394  0.00    22 H
                                   -3.69%     2 P:y             4.589  0.00     7 C
                                    3.28%     1 P:y            -5.239  0.67     8 C
                                    2.85%     1 S              -6.532  1.00    23 H
                                    2.83%     1 S              -6.532  1.00    20 H
                                    2.81%     2 S               2.394  0.00    26 H
                                   -2.75%     2 P:y             4.589  0.00     1 C
                                   -2.63%     2 P:x             4.589  0.00    10 C
                                    2.33%     1 P:x            -5.239  0.67     1 C
                                   -2.33%     2 P:y             4.589  0.00     2 C
                                   -2.31%     2 S               2.394  0.00    21 H
                                    2.19%     1 P:z            -5.239  0.67    10 C
                                    2.09%     1 P:x            -5.239  0.67     6 C
                                    2.03%     1 P:y            -5.239  0.67     3 C
                                    1.90%     1 P:y            -5.239  0.67     6 C
                                   -1.75%     2 P:y             4.589  0.00    10 C
                                    1.47%     2 P:y             4.589  0.00     9 C
                                    1.31%     1 P:y            -5.239  0.67     9 C
                                   -1.30%     2 P:x             4.589  0.00     3 C
                                    1.27%     1 P:x            -9.020  1.33    12 O
                                    1.23%     1 P:y            -9.020  1.33    14 O
                                   -1.21%     2 P:y             9.437  0.00    14 O
                                    1.16%     1 P:x            -5.239  0.67     9 C
                                   -1.12%     1 P:x            -5.239  0.67    10 C
                                   -1.06%     2 P:y             4.589  0.00     6 C



 =======================================================================
 Electrostatic potential at the Nuclei due to electrons and other nuclei
 =======================================================================
  
         Atom                  Potential
         ----                  ---------
     1)   C                  14.71551415
     2)   O                  22.37448653
     3)   C                  14.74035632
     4)   C                  14.70188098
     5)   O                  22.40631376
     6)   C                  14.75754517
     7)   C                  14.77950509
     8)   C                  14.75714359
     9)   C                  14.77757152
    10)   C                  14.68382916
    11)   O                  22.39161651
    12)   C                  14.69687121
    13)   O                  22.33904702
    14)   C                  14.72557145
    15)   H                   1.11510648
    16)   H                   1.10879119
    17)   H                   1.11294222
    18)   H                   1.11148886
    19)   H                   1.09789681
    20)   H                   1.09895358
    21)   H                   1.09676073
    22)   H                   1.10816343
    23)   H                   1.09931311
    24)   H                   1.10045756
    25)   H                   1.09508691
    26)   H                   1.09746809
 Mulliken charges used for AMS results%charges...


    =====================
     CALCULATION RESULTS
    =====================

Energy (hartree)            -5.60958234


--------------
Atomic charges
--------------
  Index   Atom    Charge
      1      C    0.2064
      2      O   -0.5535
      3      C    0.9415
      4      C    0.4589
      5      O   -0.5055
      6      C   -0.0454
      7      C    0.6355
      8      C   -0.0580
      9      C    0.6446
     10      C    0.4419
     11      O   -0.5131
     12      C    0.2742
     13      O   -0.5169
     14      C    0.9888
     15      H   -0.1867
     16      H   -0.2226
     17      H   -0.1992
     18      H   -0.2020
     19      H   -0.1865
     20      H   -0.1940
     21      H   -0.1875
     22      H   -0.2075
     23      H   -0.1970
     24      H   -0.1748
     25      H   -0.1938
     26      H   -0.2476


Dipole moment vector    (Debye):    -1.61197628    1.85338922    0.05305592
              magnitude (Debye):     2.45689521


-----------------------
Molecular orbitals info
-----------------------
n orbitals:              496
n spin:                    1

Note: only printing virtual orbitals with
      energy smaller than HOMO + 100. eV

HOMO (eV):              -5.7379
LUMO (eV):              -4.1074
HOMO-LUMO gap (eV):      1.6305

   Index   Energy (eV)    Occupation
     313       94.0673         0.000       
     312       93.5495         0.000       
     311       93.3498         0.000       
     310       93.0351         0.000       
     309       92.7274         0.000       
     308       92.3364         0.000       
     307       91.8979         0.000       
     306       91.6185         0.000       
     305       90.9794         0.000       
     304       90.3022         0.000       
     303       89.7981         0.000       
     302       89.6568         0.000       
     301       89.3009         0.000       
     300       89.1630         0.000       
     299       88.6333         0.000       
     298       87.4625         0.000       
     297       87.3931         0.000       
     296       86.9961         0.000       
     295       86.0428         0.000       
     294       85.6411         0.000       
     293       84.6994         0.000       
     292       83.3622         0.000       
     291       83.2196         0.000       
     290       83.0459         0.000       
     289       82.7877         0.000       
     288       82.3325         0.000       
     287       81.6494         0.000       
     286       81.1423         0.000       
     285       80.8890         0.000       
     284       80.7204         0.000       
     283       80.0924         0.000       
     282       80.0365         0.000       
     281       79.9322         0.000       
     280       79.1413         0.000       
     279       79.0115         0.000       
     278       78.4883         0.000       
     277       78.0340         0.000       
     276       77.7544         0.000       
     275       77.5815         0.000       
     274       77.2837         0.000       
     273       77.1542         0.000       
     272       76.6953         0.000       
     271       76.3884         0.000       
     270       76.1297         0.000       
     269       75.8756         0.000       
     268       75.5269         0.000       
     267       75.4654         0.000       
     266       75.0034         0.000       
     265       74.0533         0.000       
     264       73.7922         0.000       
     263       73.6337         0.000       
     262       72.6748         0.000       
     261       72.0261         0.000       
     260       71.3585         0.000       
     259       70.3721         0.000       
     258       70.0663         0.000       
     257       69.6623         0.000       
     256       69.0240         0.000       
     255       68.1841         0.000       
     254       67.8930         0.000       
     253       66.7462         0.000       
     252       65.3707         0.000       
     251       64.6738         0.000       
     250       64.3642         0.000       
     249       64.0349         0.000       
     248       63.7647         0.000       
     247       62.6353         0.000       
     246       62.0802         0.000       
     245       61.7600         0.000       
     244       61.1647         0.000       
     243       60.7963         0.000       
     242       60.3145         0.000       
     241       59.7186         0.000       
     240       59.4711         0.000       
     239       58.9443         0.000       
     238       58.6383         0.000       
     237       58.5091         0.000       
     236       57.8981         0.000       
     235       57.4743         0.000       
     234       57.0365         0.000       
     233       56.6050         0.000       
     232       56.2287         0.000       
     231       55.9992         0.000       
     230       55.2480         0.000       
     229       55.1525         0.000       
     228       54.6680         0.000       
     227       54.3243         0.000       
     226       53.7336         0.000       
     225       53.2691         0.000       
     224       52.4211         0.000       
     223       52.2350         0.000       
     222       51.7479         0.000       
     221       51.2305         0.000       
     220       51.0583         0.000       
     219       50.7852         0.000       
     218       50.3191         0.000       
     217       49.8848         0.000       
     216       49.3091         0.000       
     215       49.1749         0.000       
     214       48.5806         0.000       
     213       48.3894         0.000       
     212       48.0628         0.000       
     211       47.4051         0.000       
     210       47.1266         0.000       
     209       46.8118         0.000       
     208       46.3718         0.000       
     207       46.3016         0.000       
     206       45.8970         0.000       
     205       45.4616         0.000       
     204       44.6267         0.000       
     203       43.9245         0.000       
     202       43.6325         0.000       
     201       43.3514         0.000       
     200       42.1197         0.000       
     199       41.9790         0.000       
     198       41.6275         0.000       
     197       41.3251         0.000       
     196       40.6802         0.000       
     195       40.3587         0.000       
     194       40.1357         0.000       
     193       39.9456         0.000       
     192       39.3547         0.000       
     191       39.2034         0.000       
     190       38.7964         0.000       
     189       38.2764         0.000       
     188       38.1182         0.000       
     187       37.7094         0.000       
     186       37.2182         0.000       
     185       36.8053         0.000       
     184       36.3694         0.000       
     183       35.6850         0.000       
     182       35.5652         0.000       
     181       35.0184         0.000       
     180       34.7241         0.000       
     179       34.5393         0.000       
     178       33.9108         0.000       
     177       33.6903         0.000       
     176       33.1751         0.000       
     175       32.6987         0.000       
     174       32.5142         0.000       
     173       32.0912         0.000       
     172       31.8467         0.000       
     171       31.6390         0.000       
     170       31.3479         0.000       
     169       31.1088         0.000       
     168       30.7062         0.000       
     167       30.3126         0.000       
     166       30.0824         0.000       
     165       29.9227         0.000       
     164       29.7402         0.000       
     163       29.6526         0.000       
     162       29.3628         0.000       
     161       29.1894         0.000       
     160       28.6055         0.000       
     159       28.3744         0.000       
     158       28.1334         0.000       
     157       27.8753         0.000       
     156       27.5262         0.000       
     155       27.2000         0.000       
     154       27.1481         0.000       
     153       26.6066         0.000       
     152       26.2980         0.000       
     151       26.1982         0.000       
     150       25.9298         0.000       
     149       25.4335         0.000       
     148       25.1074         0.000       
     147       24.9786         0.000       
     146       24.6901         0.000       
     145       24.3857         0.000       
     144       24.0858         0.000       
     143       23.4758         0.000       
     142       23.2746         0.000       
     141       22.8250         0.000       
     140       22.4664         0.000       
     139       22.2562         0.000       
     138       21.6894         0.000       
     137       21.3204         0.000       
     136       20.9454         0.000       
     135       20.0194         0.000       
     134       19.7256         0.000       
     133       19.2759         0.000       
     132       18.6124         0.000       
     131       18.2917         0.000       
     130       18.1895         0.000       
     129       17.9759         0.000       
     128       17.2373         0.000       
     127       16.3598         0.000       
     126       15.7944         0.000       
     125       15.4919         0.000       
     124       15.2485         0.000       
     123       14.9264         0.000       
     122       14.4423         0.000       
     121       14.4289         0.000       
     120       14.0017         0.000       
     119       13.7684         0.000       
     118       13.1297         0.000       
     117       12.9339         0.000       
     116       12.7751         0.000       
     115       12.4988         0.000       
     114       11.9575         0.000       
     113       11.5981         0.000       
     112       11.4297         0.000       
     111       11.2813         0.000       
     110       11.0206         0.000       
     109       10.8797         0.000       
     108       10.7031         0.000       
     107       10.6594         0.000       
     106       10.5007         0.000       
     105       10.2371         0.000       
     104        9.9142         0.000       
     103        9.6909         0.000       
     102        9.6347         0.000       
     101        9.3220         0.000       
     100        9.2119         0.000       
      99        9.0702         0.000       
      98        8.9036         0.000       
      97        8.7980         0.000       
      96        8.5812         0.000       
      95        8.3496         0.000       
      94        8.2189         0.000       
      93        7.8829         0.000       
      92        7.6637         0.000       
      91        7.4588         0.000       
      90        7.3510         0.000       
      89        7.1976         0.000       
      88        6.8811         0.000       
      87        6.4348         0.000       
      86        6.0576         0.000       
      85        5.9426         0.000       
      84        5.7351         0.000       
      83        5.5262         0.000       
      82        5.2193         0.000       
      81        4.9670         0.000       
      80        4.7257         0.000       
      79        4.6453         0.000       
      78        4.4062         0.000       
      77        4.1907         0.000       
      76        3.9391         0.000       
      75        3.7959         0.000       
      74        3.6585         0.000       
      73        3.5416         0.000       
      72        3.1526         0.000       
      71        2.9255         0.000       
      70        2.5312         0.000       
      69        2.4676         0.000       
      68        2.0844         0.000       
      67        2.0447         0.000       
      66        1.7767         0.000       
      65        1.5766         0.000       
      64        1.3201         0.000       
      63        1.1790         0.000       
      62        1.1362         0.000       
      61        0.8311         0.000       
      60        0.7399         0.000       
      59        0.6423         0.000       
      58        0.3266         0.000       
      57       -0.0576         0.000       
      56       -0.4996         0.000       
      55       -0.7640         0.000       
      54       -1.5363         0.000       
      53       -4.1074         0.000 < LUMO
      52       -5.7379         2.000 < HOMO
      51       -5.9768         2.000       
      50       -6.2773         2.000       
      49       -6.6571         2.000       
      48       -6.8613         2.000       
      47       -8.1557         2.000       
      46       -8.5830         2.000       
      45       -8.8799         2.000       
      44       -9.2400         2.000       
      43       -9.2772         2.000       
      42       -9.5401         2.000       
      41       -9.8648         2.000       
      40       -9.9240         2.000       
      39      -10.1205         2.000       
      38      -10.2454         2.000       
      37      -10.6201         2.000       
      36      -10.7655         2.000       
      35      -10.8674         2.000       
      34      -11.0451         2.000       
      33      -11.2704         2.000       
      32      -11.3677         2.000       
      31      -12.0275         2.000       
      30      -12.4431         2.000       
      29      -12.8715         2.000       
      28      -13.3462         2.000       
      27      -14.3733         2.000       
      26      -14.5156         2.000       
      25      -16.2665         2.000       
      24      -16.4874         2.000       
      23      -17.5985         2.000       
      22      -18.0804         2.000       
      21      -18.4848         2.000       
      20      -19.8101         2.000       
      19      -21.2772         2.000       
      18      -25.7189         2.000       
      17      -26.2854         2.000       
      16      -26.4708         2.000       
      15      -27.4255         2.000       
      14     -270.1555         2.000       
      13     -270.2083         2.000       
      12     -270.9107         2.000       
      11     -270.9255         2.000       
      10     -271.2248         2.000       
       9     -271.6287         2.000       
       8     -271.9770         2.000       
       7     -272.4353         2.000       
       6     -272.5068         2.000       
       5     -272.9233         2.000       
       4     -511.3575         2.000       
       3     -511.7526         2.000       
       2     -512.0115         2.000       
       1     -512.9991         2.000       

AMS application finished. Exiting.
NORMAL TERMINATION
     Total cpu time:     129.71
  Total system time:       0.56
 Total elapsed time:     131.18
NORMAL TERMINATION
