
 *******************************************************************************
 *                                                                             *
 *  --------------------------------                                           *
 *   Amsterdam Modeling Suite (AMS)              2026.103                      *
 *  --------------------------------                                           *
 *                                               r260501 2026-05-01 873454b5   *
 *                                                                             *
 *                                                                             *
 *                              =================                              *
 *                              |               |                              *
 *                              |     A M S     |                              *
 *                              |               |                              *
 *                              =================                              *
 *                                                                             *
 *                                                                             *
 *   Online information and documentation:  https://www.scm.com/support/       *
 *   E-mail:  support@scm.com   info@scm.com                                   *
 *                                                                             *
 *   Scientific publications using AMS results must be properly referenced     *
 *   See the User Manuals (or the web site) for recommended citations          *
 *   The terms and conditions of the End User License Agreement apply to       *
 *   the use of AMS, https://www.scm.com/license-terms/                        *
 *                                                                             *
 **********************  x86_64_linux_intel / intelmpi  ************************
 
 Licensed to: Jong-June Jeon / University of Seoul 2026-06-02 13:44:15
 SCM User ID: u30731
  
 AMS 2026.103  RunTime: Jun03-2026 06:14:18  ShM Nodes: 1  Procs: 1

 AMS jobname: c4_fragA_opt
 AMS jobid  : 1114639928

 Start   directory: /gpfs/home1/yeseo1ee/projects/eda-asm-prediction/ADF_800/adf_outputs/batch_000/dipolar_001317/
 Results directory: /gpfs/home1/yeseo1ee/projects/eda-asm-prediction/ADF_800/adf_outputs/batch_000/dipolar_001317/c4_fragA_opt.results/
 Scratch directory: /tmp/amstmp_c4_fragA_opt_kid0.1114639928/

 RNG seed: -1727998463 -883008492 308835942 -1071066587 -739053950 2084527380 -1672842057 167390424



                      ************************************************************************
                      *  ADF 2026.103  RunTime: Jun03-2026 06:14:18  ShM Nodes: 1  Procs: 1  *
                      ************************************************************************
  

       ***************************
       *  GEOMETRY OPTIMIZATION  *
       ***************************

Optimization Method                    Quasi Newton
Optimization Coordinates               Delocalized Coordinates
Optimize lattice                       F
 
 ------------------------------------------------------
 Convergence criteria (Hartree,Angstrom)
 ------------------------------------------------------
 Maximum gradient               0.000100000000
 Maximum rms gradient           0.000066666667
 Maximum step allowed           0.010000000000
 Maximum rms step allowed       0.006666666667
 Maximum energy change allowe   0.000200000000
 Maximum stress energy allowe   0.000500000000
 
Initial model Hessian                  Automatic Hessian
 
------------------------------------
Quasi-Newton Optimizer Parameters
------------------------------------
Hessian Update Method                  BFGS
Maximum number of steps                  200
First GDIIS cycle                          0
Maximum GDIIS vectors                      0
Trust radius (bohr)                        0.200000
Trust radius varies                        T
Constraints converged at all steps         T
Use projector                              T
 
 Rigid motions settings for: old optimizer
 Atomic rotations (x,y,z):     T T T
 Atomic translations (x,y,z):  T T T
 Tolerance:                  1.000000000000000E-006

--------
Geometry
--------
Formula: C7H9NO3
Atoms
  Index Symbol   x (angstrom)   y (angstrom)   z (angstrom)
      1      C     4.26736000     1.76548000     0.32299000
      2      O     2.83101000     1.69487000     0.40853000
      3      C     2.20600000     1.09352000    -0.59378000
      4      O     2.73233000     0.64595000    -1.59181000
      5      C     0.75320000     0.96373000    -0.34112000
      6      N    -0.15528000     1.76124000    -0.32565000
      7      C    -1.45214000     1.98918000    -0.08986000
      8      C    -1.84741000     2.26339000     1.32901000
      9      C    -2.35243000     2.23380000    -1.19630000
     10      C    -1.78433000     2.33983000    -2.59504000
     11      O    -3.57183000     2.40568000    -1.00741000
     12      H     4.56825000     2.34013000    -0.56394000
     13      H     4.69102000     0.75230000     0.27169000
     14      H     4.59497000     2.27195000     1.23737000
     15      H    -2.93245000     2.41511000     1.37782000
     16      H    -1.35075000     3.17002000     1.71544000
     17      H    -1.56677000     1.42167000     1.98166000
     18      H    -1.57449000     3.40432000    -2.79952000
     19      H    -0.84938000     1.78312000    -2.73436000
     20      H    -2.53529000     2.00078000    -3.32204000

Total System Charge              0.00000


----------------
ADF Engine Input
----------------
 
   Basis
     Type TZ2P
     Core None
   End
   XC
     GGA BLYP
     Dispersion GRIMME3 BJDAMP
   End
   Symmetry NOSYM
   NumericalQuality Normal
   Unrestricted No
   SCF
     Iterations 200
     Converge 1.0e-6
   End
   Save TAPE21
 

 Title: *** (NO TITLE) ***

 Using automatic Hessian for delocalized coordinates.
 *** GO1_GOStep1 ***

 Energy gradients wrt nuclear displacements
 ==========================================

     Atom      Cartesian (a.u./angstrom)
                 X         Y         Z
 ----------------------------------------
     1 C    -0.027037  0.000643  0.001225
     2 O     0.002801 -0.020218 -0.046875
     3 C     0.028574  0.007693  0.024313
     4 O    -0.006640  0.008876  0.021722
     5 C    -0.056995 -0.001328  0.002921
     6 N     0.078193  0.040628 -0.011028
     7 C    -0.040052 -0.038879 -0.007800
     8 C     0.005673 -0.001350 -0.012825
     9 C     0.030241 -0.008299  0.017511
    10 C    -0.004561  0.000601  0.015551
    11 O    -0.011975  0.003715 -0.006303
    12 H     0.000729  0.003905 -0.003330
    13 H     0.000670 -0.005167  0.001419
    14 H     0.002960  0.002203  0.003658
    15 H    -0.003570  0.000722  0.002565
    16 H     0.002896  0.005405  0.001274
    17 H    -0.000949 -0.001577  0.001267
    18 H     0.000194  0.005347 -0.000510
    19 H     0.002074 -0.000992 -0.000204
    20 H    -0.003225 -0.001927 -0.004551
 ----------------------------------------
 
----------------------------------------------------------------------
Geometry Convergence after Step   1       (Hartree/Angstrom,Angstrom)
----------------------------------------------------------------------
current energy                               -4.31858277 Hartree
energy change                      -4.31858277     0.00020000    F
constrained gradient max            0.07819041     0.00010000    F
constrained gradient rms            0.01910250     0.00006667    F
gradient max                        0.07819041
gradient rms                        0.01910250
cart. step max                      0.19322281     0.01000000    F
cart. step rms                      0.06522256     0.00666667    F
 

--------
Geometry
--------
Formula: C7H9NO3
Atoms
  Index Symbol   x (angstrom)   y (angstrom)   z (angstrom)
      1      C     4.26716449     1.75900946     0.38134668
      2      O     2.82300919     1.62999236     0.44571993
      3      C     2.21665855     1.14435132    -0.65609049
      4      O     2.76057921     0.83917281    -1.70896138
      5      C     0.77610575     0.90480232    -0.41797045
      6      N    -0.18706371     1.65701902    -0.33706595
      7      C    -1.45243566     1.98164032    -0.08707855
      8      C    -1.81836930     2.29242760     1.33600129
      9      C    -2.35954364     2.26539930    -1.19360257
     10      C    -1.82113490     2.28046237    -2.61384760
     11      O    -3.55262325     2.52169616    -0.96729610
     12      H     4.55214153     2.45799540    -0.41382659
     13      H     4.72751561     0.78138016     0.19289496
     14      H     4.56955746     2.14425130     1.35850933
     15      H    -2.89019849     2.51038257     1.38485298
     16      H    -1.26627618     3.16672751     1.71285984
     17      H    -1.58505625     1.44028941     1.99230152
     18      H    -1.53731659     3.31483290    -2.86414725
     19      H    -0.93629795     1.64962794    -2.75590638
     20      H    -2.61482585     1.97460981    -3.30501320

Total System Charge              0.00000

 *** GO1_GOStep2 ***

 Energy gradients wrt nuclear displacements
 ==========================================

     Atom      Cartesian (a.u./angstrom)
                 X         Y         Z
 ----------------------------------------
     1 C    -0.015238  0.000174  0.002766
     2 O     0.007205 -0.004202 -0.018304
     3 C     0.008636  0.009619  0.026600
     4 O     0.002178 -0.005952 -0.007042
     5 C    -0.002200 -0.032514 -0.006879
     6 N     0.028183  0.048101 -0.005607
     7 C    -0.051014 -0.021465 -0.000006
     8 C     0.005348  0.003279 -0.010588
     9 C     0.022095 -0.004362  0.011791
    10 C    -0.003082  0.001724  0.007928
    11 O    -0.006826  0.001205 -0.001745
    12 H     0.000911  0.002034 -0.001083
    13 H     0.001239 -0.001999  0.000531
    14 H     0.002268  0.000879  0.001578
    15 H    -0.001577  0.001326  0.001352
    16 H     0.001192  0.002500  0.001703
    17 H     0.000335 -0.001639  0.000985
    18 H     0.000067  0.002462 -0.000626
    19 H     0.001403 -0.000315 -0.000881
    20 H    -0.001123 -0.000854 -0.002473
 ----------------------------------------

 dE(predicted):    -0.72167E-02, dE(actual):    -0.80808E-02, Trust radius:    0.400000, all in a.u.
 
----------------------------------------------------------------------
Geometry Convergence after Step   2       (Hartree/Angstrom,Angstrom)
----------------------------------------------------------------------
current energy                               -4.32666353 Hartree
energy change                      -0.00808076     0.00020000    F
constrained gradient max            0.05101287     0.00010000    F
constrained gradient rms            0.01284726     0.00006667    F
gradient max                        0.05101287
gradient rms                        0.01284726
cart. step max                      0.21069891     0.01000000    F
cart. step rms                      0.07780494     0.00666667    F
 

--------
Geometry
--------
Formula: C7H9NO3
Atoms
  Index Symbol   x (angstrom)   y (angstrom)   z (angstrom)
      1      C     4.24670489     1.77768360     0.34225188
      2      O     2.80340065     1.58193585     0.47851039
      3      C     2.16849341     1.18505068    -0.66400411
      4      O     2.67789697     1.04987172    -1.76642606
      5      C     0.76107494     0.84245759    -0.38715559
      6      N    -0.23417269     1.53051735    -0.26739117
      7      C    -1.44156295     1.98424084    -0.05113117
      8      C    -1.85174296     2.28746271     1.36778562
      9      C    -2.30313080     2.33268225    -1.19753733
     10      C    -1.74707393     2.21218664    -2.61173170
     11      O    -3.45473512     2.72779996    -0.98888382
     12      H     4.45557126     2.56536439    -0.38733800
     13      H     4.72638561     0.84794474     0.02105764
     14      H     4.58772493     2.06767146     1.33656872
     15      H    -2.90400744     2.58242640     1.36492681
     16      H    -1.25626859     3.10630776     1.79040355
     17      H    -1.71603617     1.40675401     2.01062465
     18      H    -1.33025679     3.18506111    -2.90619268
     19      H    -0.95076123     1.46707057    -2.70461831
     20      H    -2.56591396     1.97558035    -3.29603932

Total System Charge              0.00000

 *** GO1_GOStep3 ***

 Energy gradients wrt nuclear displacements
 ==========================================

     Atom      Cartesian (a.u./angstrom)
                 X         Y         Z
 ----------------------------------------
     1 C    -0.003414 -0.000734  0.000841
     2 O     0.002109  0.004699  0.003087
     3 C     0.001377 -0.000171  0.006476
     4 O     0.002100 -0.002711 -0.008552
     5 C    -0.003205 -0.015153 -0.003093
     6 N     0.010767  0.020268 -0.000848
     7 C    -0.025538 -0.010475  0.000909
     8 C     0.003583  0.003248 -0.003228
     9 C     0.009800  0.002429  0.002941
    10 C    -0.000577  0.001308 -0.000830
    11 O    -0.000276 -0.001655  0.001978
    12 H     0.000646 -0.000411  0.000196
    13 H     0.000886  0.000796  0.000056
    14 H     0.000418 -0.000013 -0.000757
    15 H     0.000767  0.000184  0.000126
    16 H    -0.000378 -0.000809  0.000428
    17 H     0.000233 -0.000628  0.001059
    18 H    -0.000794 -0.000324  0.000062
    19 H     0.000421  0.000395 -0.000680
    20 H     0.001073 -0.000244 -0.000171
 ----------------------------------------

 dE(predicted):    -0.65434E-02, dE(actual):    -0.62291E-02, Trust radius:    0.400000, all in a.u.
 
----------------------------------------------------------------------
Geometry Convergence after Step   3       (Hartree/Angstrom,Angstrom)
----------------------------------------------------------------------
current energy                               -4.33289261 Hartree
energy change                      -0.00622908     0.00020000    F
constrained gradient max            0.02553541     0.00010000    F
constrained gradient rms            0.00559750     0.00006667    F
gradient max                        0.02553541
gradient rms                        0.00559750
cart. step max                      0.20910214     0.01000000    F
cart. step rms                      0.05301787     0.00666667    F
 

--------
Geometry
--------
Formula: C7H9NO3
Atoms
  Index Symbol   x (angstrom)   y (angstrom)   z (angstrom)
      1      C     4.26025911     1.73124333     0.38497175
      2      O     2.81422667     1.52930694     0.50129983
      3      C     2.17828075     1.27615894    -0.68210972
      4      O     2.69390717     1.25897386    -1.78719669
      5      C     0.77733521     0.88801931    -0.44445583
      6      N    -0.23215152     1.54294221    -0.29482431
      7      C    -1.42874321     2.00308256    -0.06318392
      8      C    -1.82490129     2.31464970     1.35933102
      9      C    -2.31956504     2.32447394    -1.20047134
     10      C    -1.79446022     2.15781406    -2.62209137
     11      O    -3.46087961     2.73927400    -0.97836929
     12      H     4.47172405     2.60035616    -0.24411758
     13      H     4.73081840     0.84372727    -0.04870959
     14      H     4.60394916     1.89522297     1.40658573
     15      H    -2.87967228     2.60024438     1.36547722
     16      H    -1.23124587     3.14200718     1.76701315
     17      H    -1.67458198     1.44048575     2.00690285
     18      H    -1.36965116     3.11543729    -2.95233770
     19      H    -1.01149454     1.39826610    -2.70889080
     20      H    -2.63156380     1.91438406    -3.28114341

Total System Charge              0.00000

 *** GO1_GOStep4 ***

 Energy gradients wrt nuclear displacements
 ==========================================

     Atom      Cartesian (a.u./angstrom)
                 X         Y         Z
 ----------------------------------------
     1 C    -0.001212 -0.001109  0.000607
     2 O     0.002242  0.002327  0.004011
     3 C     0.001154  0.005941  0.003719
     4 O    -0.000160 -0.002997 -0.001474
     5 C    -0.007393 -0.011711 -0.008330
     6 N     0.009742  0.014140 -0.000339
     7 C    -0.015034 -0.010120  0.001926
     8 C     0.003386  0.004890 -0.002135
     9 C     0.005449 -0.001457  0.002207
    10 C     0.000111  0.001665 -0.001474
    11 O    -0.000114 -0.000145  0.001151
    12 H     0.000226 -0.000594  0.000110
    13 H     0.000588  0.000669  0.000196
    14 H     0.000148 -0.000086 -0.000868
    15 H     0.000707  0.000114 -0.000086
    16 H    -0.000614 -0.000913  0.000509
    17 H     0.000217 -0.000445  0.000384
    18 H    -0.000798 -0.000389 -0.000081
    19 H     0.000388  0.000403 -0.000231
    20 H     0.000966 -0.000182  0.000199
 ----------------------------------------

 dE(predicted):    -0.28763E-02, dE(actual):    -0.10006E-02, Trust radius:    0.400000, all in a.u.
 
----------------------------------------------------------------------
Geometry Convergence after Step   4       (Hartree/Angstrom,Angstrom)
----------------------------------------------------------------------
current energy                               -4.33389322 Hartree
energy change                      -0.00100062     0.00020000    F
constrained gradient max            0.01502544     0.00010000    F
constrained gradient rms            0.00422088     0.00006667    F
gradient max                        0.01502544
gradient rms                        0.00422088
cart. step max                      0.21237393     0.01000000    F
cart. step rms                      0.08073043     0.00666667    F
 

--------
Geometry
--------
Formula: C7H9NO3
Atoms
  Index Symbol   x (angstrom)   y (angstrom)   z (angstrom)
      1      C     4.25945242     1.75773169     0.31819294
      2      O     2.83700391     1.43392481     0.50173303
      3      C     2.13715853     1.26785877    -0.66491655
      4      O     2.58150807     1.39797764    -1.78963138
      5      C     0.76441219     0.84173014    -0.36908772
      6      N    -0.26938111     1.45162192    -0.21494269
      7      C    -1.41276611     2.01925370    -0.02785928
      8      C    -1.88861992     2.30941028     1.37908711
      9      C    -2.25579572     2.38964912    -1.20390093
     10      C    -1.71507703     2.10157525    -2.60051188
     11      O    -3.34777337     2.93401687    -1.03247248
     12      H     4.36415343     2.71023264    -0.20756359
     13      H     4.74826211     0.96395213    -0.25354253
     14      H     4.65984232     1.81892648     1.33040527
     15      H    -2.92514345     2.65123362     1.32214323
     16      H    -1.27948033     3.09138742     1.84791479
     17      H    -1.82987252     1.40973385     2.00324136
     18      H    -1.15727723     2.98014175    -2.95136666
     19      H    -1.03831406     1.24285521    -2.62921780
     20      H    -2.56070215     1.94285671    -3.27402424

Total System Charge              0.00000

 *** GO1_GOStep5 ***

 Energy gradients wrt nuclear displacements
 ==========================================

     Atom      Cartesian (a.u./angstrom)
                 X         Y         Z
 ----------------------------------------
     1 C     0.005145  0.002548 -0.001089
     2 O    -0.001836  0.001913  0.006771
     3 C    -0.000646 -0.005114 -0.014113
     4 O    -0.000185  0.001508  0.006009
     5 C     0.001104  0.001270  0.000904
     6 N    -0.016361  0.001335  0.003512
     7 C     0.018546 -0.005487 -0.001179
     8 C    -0.000548  0.001527  0.002507
     9 C    -0.004347  0.002455  0.001269
    10 C     0.001604 -0.000467 -0.002606
    11 O    -0.000272 -0.000046 -0.001561
    12 H     0.000008 -0.000856  0.000208
    13 H    -0.000751  0.000309  0.000079
    14 H    -0.000632 -0.000187 -0.000321
    15 H     0.000191 -0.000547 -0.000336
    16 H    -0.000199 -0.001196 -0.001076
    17 H    -0.000271  0.000613 -0.000430
    18 H    -0.000960 -0.000093  0.000210
    19 H    -0.000074  0.000685  0.000308
    20 H     0.000483 -0.000168  0.000936
 ----------------------------------------
 Rebuilding optimization coordinates
Challenging geometry: added dihedral     3    5    7    9

 dE(predicted):    -0.20646E-02, dE(actual):    -0.12516E-02, Trust radius:    0.400000, all in a.u.
 
----------------------------------------------------------------------
Geometry Convergence after Step   5       (Hartree/Angstrom,Angstrom)
----------------------------------------------------------------------
current energy                               -4.33514484 Hartree
energy change                      -0.00125162     0.00020000    F
constrained gradient max            0.01854434     0.00010000    F
constrained gradient rms            0.00421891     0.00006667    F
gradient max                        0.01854434
gradient rms                        0.00421891
cart. step max                      0.10079657     0.01000000    F
cart. step rms                      0.04182068     0.00666667    F
 

--------
Geometry
--------
Formula: C7H9NO3
Atoms
  Index Symbol   x (angstrom)   y (angstrom)   z (angstrom)
      1      C     4.31790129     1.71078797     0.30096136
      2      O     2.88709998     1.45888137     0.50741878
      3      C     2.15217983     1.36679036    -0.64043940
      4      O     2.58315115     1.46198241    -1.77633881
      5      C     0.78512402     0.93563583    -0.32738344
      6      N    -0.25984833     1.53071657    -0.19613914
      7      C    -1.43487639     2.05342794    -0.02381645
      8      C    -1.94427214     2.30820592     1.37722305
      9      C    -2.27224463     2.38838201    -1.21042092
     10      C    -1.72323198     2.08064515    -2.59834214
     11      O    -3.37943488     2.90616821    -1.05156758
     12      H     4.46220281     2.67252286    -0.19936895
     13      H     4.75282292     0.90977506    -0.30417364
     14      H     4.74433438     1.72159301     1.30483010
     15      H    -2.99504541     2.60211845     1.30910518
     16      H    -1.38027690     3.11472594     1.86288540
     17      H    -1.85175288     1.40658031     1.99538244
     18      H    -1.16498137     2.95526742    -2.95975896
     19      H    -1.04339299     1.22344607    -2.61045867
     20      H    -2.56386846     1.90841715    -3.27591821

Total System Charge              0.00000

 *** GO1_GOStep6 ***

 Energy gradients wrt nuclear displacements
 ==========================================

     Atom      Cartesian (a.u./angstrom)
                 X         Y         Z
 ----------------------------------------
     1 C     0.002518  0.000456 -0.001006
     2 O    -0.001248 -0.004667  0.002370
     3 C    -0.006669  0.016831 -0.007298
     4 O     0.002617 -0.006611  0.002398
     5 C     0.002086 -0.005352  0.003418
     6 N     0.000794 -0.002190  0.000191
     7 C     0.004441  0.001022 -0.000217
     8 C    -0.001492 -0.000828  0.001515
     9 C    -0.001327  0.004576  0.000568
    10 C     0.000437 -0.001929 -0.000982
    11 O     0.000031 -0.001010 -0.000575
    12 H    -0.000519 -0.000132 -0.000019
    13 H    -0.000134  0.000105  0.000075
    14 H    -0.000229 -0.000183  0.000156
    15 H    -0.000279 -0.000445 -0.000055
    16 H     0.000507 -0.000462 -0.000869
    17 H    -0.000506  0.000277  0.000214
    18 H    -0.000918  0.000470  0.000411
    19 H    -0.000153  0.000487 -0.000234
    20 H     0.000044 -0.000417 -0.000060
 ----------------------------------------

 dE(predicted):    -0.39464E-03, dE(actual):    -0.49732E-04, Trust radius:    0.040542, all in a.u.
 
----------------------------------------------------------------------
Geometry Convergence after Step   6       (Hartree/Angstrom,Angstrom)
----------------------------------------------------------------------
current energy                               -4.33519458 Hartree
energy change                      -0.00004973     0.00020000    T
constrained gradient max            0.01680963     0.00010000    F
constrained gradient rms            0.00311786     0.00006667    F
gradient max                        0.01680963
gradient rms                        0.00311786
cart. step max                      0.01310412     0.01000000    F
cart. step rms                      0.00425648     0.00666667    T
 

--------
Geometry
--------
Formula: C7H9NO3
Atoms
  Index Symbol   x (angstrom)   y (angstrom)   z (angstrom)
      1      C     4.31637422     1.71143994     0.30396256
      2      O     2.88830434     1.44680515     0.50782873
      3      C     2.15427285     1.35368624    -0.63975651
      4      O     2.57980993     1.47451388    -1.77592983
      5      C     0.78137415     0.93298718    -0.33538067
      6      N    -0.26177062     1.53175514    -0.20154706
      7      C    -1.43698548     2.05332850    -0.02555614
      8      C    -1.94003879     2.31023176     1.37683710
      9      C    -2.27388021     2.38784271    -1.21112258
     10      C    -1.72480023     2.07920313    -2.59835324
     11      O    -3.37973055     2.90889705    -1.05155731
     12      H     4.45407620     2.67657283    -0.19191066
     13      H     4.75858010     0.91679718    -0.30444405
     14      H     4.74243167     1.72144685     1.30795976
     15      H    -2.99088822     2.60456449     1.31299752
     16      H    -1.37483103     3.11706972     1.86102547
     17      H    -1.84465162     1.40857606     1.99470376
     18      H    -1.16313696     2.95140448    -2.96061182
     19      H    -1.04733934     1.21983929    -2.60920550
     20      H    -2.56558040     1.90910842    -3.27625953

Total System Charge              0.00000

 *** GO1_GOStep7 ***

 Energy gradients wrt nuclear displacements
 ==========================================

     Atom      Cartesian (a.u./angstrom)
                 X         Y         Z
 ----------------------------------------
     1 C     0.001743  0.000444 -0.000470
     2 O     0.000176 -0.001898  0.002253
     3 C    -0.003166  0.008503 -0.004547
     4 O     0.001739 -0.003346  0.000865
     5 C     0.001376 -0.004697  0.001225
     6 N    -0.002378  0.000034  0.000047
     7 C     0.003077  0.000530  0.000311
     8 C    -0.001050 -0.000377  0.001139
     9 C    -0.000962  0.002747  0.000031
    10 C     0.000474 -0.001398 -0.000510
    11 O     0.000220 -0.000545 -0.000185
    12 H    -0.000261 -0.000050  0.000024
    13 H    -0.000178  0.000050 -0.000008
    14 H    -0.000130 -0.000063  0.000066
    15 H    -0.000091 -0.000286 -0.000038
    16 H     0.000346 -0.000266 -0.000419
    17 H    -0.000285  0.000142  0.000047
    18 H    -0.000767  0.000449  0.000146
    19 H     0.000111  0.000374 -0.000027
    20 H     0.000007 -0.000346  0.000050
 ----------------------------------------

 dE(predicted):    -0.30142E-03, dE(actual):    -0.26184E-03, Trust radius:    0.081084, all in a.u.
 
----------------------------------------------------------------------
Geometry Convergence after Step   7       (Hartree/Angstrom,Angstrom)
----------------------------------------------------------------------
current energy                               -4.33545642 Hartree
energy change                      -0.00026184     0.00020000    F
constrained gradient max            0.00848485     0.00010000    F
constrained gradient rms            0.00176380     0.00006667    F
gradient max                        0.00848485
gradient rms                        0.00176380
cart. step max                      0.05359481     0.01000000    F
cart. step rms                      0.01209266     0.00666667    F
 

--------
Geometry
--------
Formula: C7H9NO3
Atoms
  Index Symbol   x (angstrom)   y (angstrom)   z (angstrom)
      1      C     4.32398106     1.70226851     0.30162218
      2      O     2.89957608     1.42910024     0.51054359
      3      C     2.15704544     1.36122382    -0.63059413
      4      O     2.56566746     1.52810869    -1.76798049
      5      C     0.78208810     0.94763587    -0.33132847
      6      N    -0.26384956     1.53989373    -0.19996150
      7      C    -1.44431328     2.05185574    -0.02599409
      8      C    -1.94489133     2.31390730     1.37532546
      9      C    -2.27762437     2.38171165    -1.21365103
     10      C    -1.72604397     2.06873409    -2.59822903
     11      O    -3.38005693     2.91209629    -1.05773675
     12      H     4.45622187     2.67829321    -0.17440430
     13      H     4.76457308     0.92252957    -0.32712772
     14      H     4.75854641     1.69224627     1.30193124
     15      H    -2.99760935     2.60166632     1.31283408
     16      H    -1.38532033     3.12729347     1.85567696
     17      H    -1.84132546     1.41571210     1.99720842
     18      H    -1.14377349     2.92932371    -2.95592966
     19      H    -1.06541907     1.19601161    -2.60699779
     20      H    -2.56588235     1.91645779    -3.28152696

Total System Charge              0.00000

 *** GO1_GOStep8 ***

 Energy gradients wrt nuclear displacements
 ==========================================

     Atom      Cartesian (a.u./angstrom)
                 X         Y         Z
 ----------------------------------------
     1 C     0.000283 -0.000071 -0.000161
     2 O     0.000175  0.000702  0.001086
     3 C     0.001232  0.000531 -0.000830
     4 O     0.000072 -0.000139 -0.000210
     5 C    -0.000983 -0.001918 -0.000291
     6 N    -0.001374  0.000550 -0.000175
     7 C     0.001078 -0.000037  0.000916
     8 C    -0.000194  0.000187  0.000380
     9 C    -0.000939 -0.000592 -0.000606
    10 C     0.000562 -0.000376  0.000077
    11 O     0.000576  0.000638  0.000091
    12 H    -0.000011  0.000051  0.000035
    13 H    -0.000048  0.000060 -0.000085
    14 H    -0.000061  0.000045 -0.000023
    15 H     0.000044 -0.000033 -0.000077
    16 H     0.000106 -0.000056  0.000108
    17 H    -0.000001 -0.000083 -0.000132
    18 H    -0.000586  0.000325 -0.000262
    19 H     0.000149  0.000479  0.000052
    20 H    -0.000080 -0.000263  0.000110
 ----------------------------------------

 dE(predicted):    -0.14491E-03, dE(actual):    -0.19122E-03, Trust radius:    0.162168, all in a.u.
 
----------------------------------------------------------------------
Geometry Convergence after Step   8       (Hartree/Angstrom,Angstrom)
----------------------------------------------------------------------
current energy                               -4.33564764 Hartree
energy change                      -0.00019122     0.00020000    T
constrained gradient max            0.00192087     0.00010000    F
constrained gradient rms            0.00053656     0.00006667    F
gradient max                        0.00192087
gradient rms                        0.00053656
cart. step max                      0.07909775     0.01000000    F
cart. step rms                      0.02205606     0.00666667    F
 

--------
Geometry
--------
Formula: C7H9NO3
Atoms
  Index Symbol   x (angstrom)   y (angstrom)   z (angstrom)
      1      C     4.34273659     1.68361619     0.28950354
      2      O     2.92169965     1.40788282     0.51080993
      3      C     2.15902571     1.39170181    -0.61638105
      4      O     2.54656092     1.60720643    -1.75359282
      5      C     0.78507986     0.98161877    -0.31558009
      6      N    -0.26816378     1.56061199    -0.19006525
      7      C    -1.45603870     2.05858464    -0.02299045
      8      C    -1.96582645     2.31878007     1.37461678
      9      C    -2.28020123     2.38127812    -1.21739679
     10      C    -1.72059664     2.05083876    -2.59398414
     11      O    -3.38650132     2.90774412    -1.07288997
     12      H     4.47248583     2.67670859    -0.15094060
     13      H     4.76986946     0.92690217    -0.37581794
     14      H     4.79422432     1.63353177     1.28109948
     15      H    -3.02202509     2.59232809     1.30727765
     16      H    -1.42086555     3.14206538     1.85543466
     17      H    -1.85182102     1.42425346     2.00011292
     18      H    -1.10563562     2.89075517    -2.94631507
     19      H    -1.08680726     1.15783898    -2.59130279
     20      H    -2.55560970     1.92182268    -3.28791801

Total System Charge              0.00000

 *** GO1_GOStep9 ***

 Energy gradients wrt nuclear displacements
 ==========================================

     Atom      Cartesian (a.u./angstrom)
                 X         Y         Z
 ----------------------------------------
     1 C    -0.000533 -0.000443  0.000217
     2 O     0.000166  0.001670 -0.000806
     3 C     0.003286 -0.002818  0.001071
     4 O    -0.000786  0.001123  0.000206
     5 C    -0.000951 -0.000369 -0.000614
     6 N    -0.002101  0.000778 -0.000838
     7 C    -0.000340 -0.001130  0.001046
     8 C     0.000233  0.000319 -0.000199
     9 C     0.001127  0.000725 -0.000916
    10 C     0.000245 -0.001078  0.000998
    11 O    -0.000194  0.000344  0.000126
    12 H     0.000144  0.000096 -0.000006
    13 H     0.000004  0.000024 -0.000061
    14 H     0.000070  0.000064 -0.000059
    15 H     0.000099  0.000206 -0.000031
    16 H    -0.000074  0.000111  0.000372
    17 H     0.000145 -0.000206 -0.000175
    18 H    -0.000584  0.000425 -0.000264
    19 H     0.000236  0.000430 -0.000040
    20 H    -0.000193 -0.000269 -0.000027
 ----------------------------------------

 dE(predicted):    -0.65639E-04, dE(actual):    -0.69214E-04, Trust radius:    0.162168, all in a.u.
 
----------------------------------------------------------------------
Geometry Convergence after Step   9       (Hartree/Angstrom,Angstrom)
----------------------------------------------------------------------
current energy                               -4.33571686 Hartree
energy change                      -0.00006921     0.00020000    T
constrained gradient max            0.00328857     0.00010000    F
constrained gradient rms            0.00083598     0.00006667    F
gradient max                        0.00328857
gradient rms                        0.00083598
cart. step max                      0.06151583     0.01000000    F
cart. step rms                      0.02348492     0.00666667    F
 

--------
Geometry
--------
Formula: C7H9NO3
Atoms
  Index Symbol   x (angstrom)   y (angstrom)   z (angstrom)
      1      C     4.35796689     1.67084828     0.27178278
      2      O     2.94172457     1.38557820     0.50864955
      3      C     2.15696869     1.41828067    -0.60180735
      4      O     2.52465098     1.66703202    -1.73976978
      5      C     0.78744070     1.00951349    -0.29131183
      6      N    -0.27372058     1.57353686    -0.17453903
      7      C    -1.46861725     2.05891219    -0.01734962
      8      C    -1.98900361     2.32428346     1.37496867
      9      C    -2.28494883     2.36849195    -1.21971178
     10      C    -1.70835435     2.03544249    -2.58854118
     11      O    -3.38853085     2.90411952    -1.08867538
     12      H     4.47987065     2.68009449    -0.13280323
     13      H     4.77275854     0.94037356    -0.42979472
     14      H     4.82818150     1.58307094     1.25198512
     15      H    -3.04904069     2.58057762     1.30065766
     16      H    -1.46009078     3.16162835     1.84950386
     17      H    -1.86329757     1.43873528     2.01088115
     18      H    -1.04411979     2.84828853    -2.91380468
     19      H    -1.11698125     1.11319975    -2.58307106
     20      H    -2.53126697     1.95406233    -3.30356914

Total System Charge              0.00000

 *** GO1_GOStep10 ***

 Energy gradients wrt nuclear displacements
 ==========================================

     Atom      Cartesian (a.u./angstrom)
                 X         Y         Z
 ----------------------------------------
     1 C    -0.000835 -0.000162  0.000445
     2 O    -0.000132  0.001018 -0.001589
     3 C     0.002619 -0.002403  0.002835
     4 O    -0.000720  0.000936 -0.000533
     5 C    -0.000613  0.001036 -0.000089
     6 N    -0.000803  0.000075 -0.001336
     7 C    -0.000590 -0.000135  0.000814
     8 C     0.000367  0.000379 -0.000527
     9 C    -0.000639 -0.003393 -0.000518
    10 C     0.000228  0.000179  0.001262
    11 O     0.000785  0.001976 -0.000044
    12 H     0.000217  0.000005 -0.000072
    13 H     0.000040 -0.000105 -0.000073
    14 H     0.000084  0.000057 -0.000111
    15 H     0.000123  0.000223 -0.000002
    16 H    -0.000099  0.000051  0.000317
    17 H     0.000130 -0.000209 -0.000081
    18 H    -0.000302  0.000466 -0.000683
    19 H     0.000353  0.000235 -0.000016
    20 H    -0.000212 -0.000227  0.000002
 ----------------------------------------

 dE(predicted):    -0.78927E-04, dE(actual):    -0.37942E-04, Trust radius:    0.162168, all in a.u.
 
----------------------------------------------------------------------
Geometry Convergence after Step  10       (Hartree/Angstrom,Angstrom)
----------------------------------------------------------------------
current energy                               -4.33575480 Hartree
energy change                      -0.00003794     0.00020000    T
constrained gradient max            0.00338381     0.00010000    F
constrained gradient rms            0.00093157     0.00006667    F
gradient max                        0.00338381
gradient rms                        0.00093157
cart. step max                      0.04932489     0.01000000    F
cart. step rms                      0.01870984     0.00666667    F
 

--------
Geometry
--------
Formula: C7H9NO3
Atoms
  Index Symbol   x (angstrom)   y (angstrom)   z (angstrom)
      1      C     4.36459942     1.66211984     0.26328448
      2      O     2.95244103     1.35873793     0.50298027
      3      C     2.15565882     1.43522580    -0.59700833
      4      O     2.51468551     1.71157670    -1.73160770
      5      C     0.78951510     1.02755293    -0.28209926
      6      N    -0.27459193     1.58396469    -0.16837323
      7      C    -1.47282019     2.06343753    -0.01480300
      8      C    -1.99926658     2.33189320     1.37469469
      9      C    -2.28663912     2.36463509    -1.22078115
     10      C    -1.70215778     2.02423491    -2.58491451
     11      O    -3.39796257     2.88528994    -1.09626947
     12      H     4.47567444     2.68752328    -0.10179597
     13      H     4.77652093     0.96288324    -0.47100078
     14      H     4.84524135     1.53822438     1.23454808
     15      H    -3.06255558     2.57354256     1.29701319
     16      H    -1.48216480     3.18090789     1.84134057
     17      H    -1.86290190     1.45468633     2.01964489
     18      H    -0.99479490     2.80825351    -2.88837551
     19      H    -1.15207365     1.07633553    -2.57807594
     20      H    -2.51481759     1.98504475    -3.31472131

Total System Charge              0.00000

 *** GO1_GOStep11 ***

 Energy gradients wrt nuclear displacements
 ==========================================

     Atom      Cartesian (a.u./angstrom)
                 X         Y         Z
 ----------------------------------------
     1 C    -0.000567  0.000523  0.000391
     2 O    -0.000697 -0.000212 -0.001628
     3 C     0.000489 -0.000835  0.002806
     4 O    -0.000425  0.000357 -0.000609
     5 C    -0.000683  0.002697  0.000968
     6 N     0.002222 -0.001805 -0.002336
     7 C    -0.000927 -0.000544  0.000719
     8 C     0.000139  0.000287 -0.000457
     9 C     0.000304 -0.000695  0.000092
    10 C    -0.000047 -0.000703  0.000960
    11 O     0.000307  0.000882 -0.000167
    12 H     0.000071 -0.000066 -0.000029
    13 H     0.000050 -0.000184 -0.000088
    14 H    -0.000004  0.000017 -0.000105
    15 H     0.000047  0.000222  0.000077
    16 H    -0.000007 -0.000061 -0.000005
    17 H    -0.000019 -0.000056  0.000083
    18 H    -0.000513  0.000332 -0.000327
    19 H     0.000357  0.000159 -0.000192
    20 H    -0.000097 -0.000313 -0.000153
 ----------------------------------------

 dE(predicted):    -0.75539E-04, dE(actual):    -0.37609E-04, Trust radius:    0.162168, all in a.u.
 
----------------------------------------------------------------------
Geometry Convergence after Step  11       (Hartree/Angstrom,Angstrom)
----------------------------------------------------------------------
current energy                               -4.33579241 Hartree
energy change                      -0.00003761     0.00020000    T
constrained gradient max            0.00278825     0.00010000    F
constrained gradient rms            0.00083145     0.00006667    F
gradient max                        0.00278825
gradient rms                        0.00083145
cart. step max                      0.05581109     0.01000000    F
cart. step rms                      0.01513276     0.00666667    F
 

--------
Geometry
--------
Formula: C7H9NO3
Atoms
  Index Symbol   x (angstrom)   y (angstrom)   z (angstrom)
      1      C     4.36585108     1.66390634     0.25194337
      2      O     2.95481318     1.36026335     0.50017672
      3      C     2.15207651     1.43420240    -0.59742337
      4      O     2.51013965     1.69576712    -1.73550142
      5      C     0.78732313     1.03310176    -0.27239492
      6      N    -0.27709399     1.59077742    -0.16149970
      7      C    -1.47671701     2.06793229    -0.01019805
      8      C    -2.01027250     2.33294514     1.37737984
      9      C    -2.28796934     2.36133296    -1.21960666
     10      C    -1.68805576     2.02820895    -2.57947496
     11      O    -3.40883717     2.86239647    -1.10131108
     12      H     4.47264298     2.68760163    -0.11931265
     13      H     4.77580227     0.96172107    -0.48033170
     14      H     4.85115914     1.54669036     1.22181442
     15      H    -3.07722711     2.55685522     1.29629080
     16      H    -1.50788727     3.19277165     1.84028387
     17      H    -1.86150383     1.46171138     2.02734275
     18      H    -0.93898381     2.78483872    -2.84966326
     19      H    -1.17885915     1.05729438    -2.57771931
     20      H    -2.48481102     2.03575140    -3.32711468

Total System Charge              0.00000

 *** GO1_GOStep12 ***

 Energy gradients wrt nuclear displacements
 ==========================================

     Atom      Cartesian (a.u./angstrom)
                 X         Y         Z
 ----------------------------------------
     1 C    -0.000014  0.000342  0.000076
     2 O    -0.000395 -0.000994 -0.000955
     3 C    -0.001827  0.001016  0.000674
     4 O     0.000338 -0.000679  0.000132
     5 C     0.001681  0.001584  0.002005
     6 N     0.001018 -0.001363 -0.002929
     7 C    -0.001130  0.000056  0.000350
     8 C    -0.000133 -0.000074 -0.000101
     9 C     0.000936  0.000642  0.000933
    10 C     0.000073 -0.001210  0.000253
    11 O    -0.000362  0.000227 -0.000226
    12 H    -0.000118 -0.000011 -0.000039
    13 H     0.000050  0.000015  0.000022
    14 H     0.000051  0.000056  0.000015
    15 H     0.000019  0.000101  0.000106
    16 H     0.000113 -0.000131 -0.000250
    17 H    -0.000231  0.000136  0.000250
    18 H    -0.000466  0.000326 -0.000125
    19 H     0.000360  0.000211 -0.000119
    20 H     0.000037 -0.000250 -0.000071
 ----------------------------------------

 dE(predicted):    -0.69228E-04, dE(actual):    -0.86094E-04, Trust radius:    0.324337, all in a.u.
 
----------------------------------------------------------------------
Geometry Convergence after Step  12       (Hartree/Angstrom,Angstrom)
----------------------------------------------------------------------
current energy                               -4.33587850 Hartree
energy change                      -0.00008609     0.00020000    T
constrained gradient max            0.00294208     0.00010000    F
constrained gradient rms            0.00075869     0.00006667    F
gradient max                        0.00294208
gradient rms                        0.00075869
cart. step max                      0.10830723     0.01000000    F
cart. step rms                      0.02944582     0.00666667    F
 

--------
Geometry
--------
Formula: C7H9NO3
Atoms
  Index Symbol   x (angstrom)   y (angstrom)   z (angstrom)
      1      C     4.36542815     1.66961587     0.24610317
      2      O     2.95421224     1.36457551     0.49574995
      3      C     2.14989182     1.43877203    -0.60371126
      4      O     2.50929556     1.69836273    -1.74163824
      5      C     0.78727801     1.03919649    -0.27399671
      6      N    -0.27736828     1.59602886    -0.16040597
      7      C    -1.47677912     2.07233140    -0.00764134
      8      C    -2.01471216     2.33159019     1.37943458
      9      C    -2.28881706     2.36177733    -1.21827610
     10      C    -1.68207859     2.02541554    -2.57525009
     11      O    -3.41390988     2.85234645    -1.10208107
     12      H     4.46908107     2.69151821    -0.13110072
     13      H     4.77799237     0.96440953    -0.48133655
     14      H     4.84972702     1.55990048     1.21745402
     15      H    -3.08773248     2.52486085     1.29802125
     16      H    -1.53585890     3.20932125     1.83374787
     17      H    -1.84103521     1.47051436     2.03610587
     18      H    -0.84125400     2.69820944    -2.78944700
     19      H    -1.28399576     1.00326485    -2.59317021
     20      H    -2.44777482     2.14405863    -3.34488146

Total System Charge              0.00000

 *** GO1_GOStep13 ***

 Energy gradients wrt nuclear displacements
 ==========================================

     Atom      Cartesian (a.u./angstrom)
                 X         Y         Z
 ----------------------------------------
     1 C     0.000929 -0.000187 -0.000535
     2 O    -0.000125 -0.001253  0.001146
     3 C    -0.004452  0.001324 -0.002038
     4 O     0.000865 -0.000829  0.000255
     5 C     0.002858  0.001671  0.003079
     6 N     0.000794 -0.001442 -0.003321
     7 C    -0.000334  0.000591  0.000319
     8 C    -0.000280 -0.000410  0.000396
     9 C     0.000230  0.001796  0.001495
    10 C    -0.000082 -0.001832 -0.001049
    11 O    -0.000013 -0.000408 -0.000288
    12 H    -0.000332  0.000093 -0.000043
    13 H     0.000044  0.000317  0.000242
    14 H    -0.000020  0.000083  0.000188
    15 H    -0.000066 -0.000197 -0.000081
    16 H     0.000335 -0.000145 -0.000480
    17 H    -0.000499  0.000393  0.000319
    18 H    -0.000268  0.000107  0.000426
    19 H     0.000354  0.000506 -0.000096
    20 H     0.000062 -0.000178  0.000064
 ----------------------------------------

 dE(predicted):    -0.88218E-04, dE(actual):    -0.11139E-03, Trust radius:    0.648674, all in a.u.
 
----------------------------------------------------------------------
Geometry Convergence after Step  13       (Hartree/Angstrom,Angstrom)
----------------------------------------------------------------------
current energy                               -4.33598989 Hartree
energy change                      -0.00011139     0.00020000    T
constrained gradient max            0.00445589     0.00010000    F
constrained gradient rms            0.00114363     0.00006667    F
gradient max                        0.00445589
gradient rms                        0.00114363
cart. step max                      0.12662821     0.01000000    F
cart. step rms                      0.03116866     0.00666667    F
 

--------
Geometry
--------
Formula: C7H9NO3
Atoms
  Index Symbol   x (angstrom)   y (angstrom)   z (angstrom)
      1      C     4.35874313     1.68278667     0.25062260
      2      O     2.94601292     1.37888637     0.49357565
      3      C     2.14992180     1.43527982    -0.61444098
      4      O     2.51717139     1.68638713    -1.75152214
      5      C     0.78594199     1.03320424    -0.29073517
      6      N    -0.27666714     1.59328303    -0.16856249
      7      C    -1.47361098     2.07183737    -0.00878512
      8      C    -2.00626500     2.32701675     1.38091285
      9      C    -2.28907184     2.36545594    -1.21689002
     10      C    -1.68434077     2.02628147    -2.57434751
     11      O    -3.41457050     2.85346767    -1.09620427
     12      H     4.46422042     2.69698317    -0.14634163
     13      H     4.77936344     0.96358854    -0.45823750
     14      H     4.83413500     1.59399059     1.22846165
     15      H    -3.08429512     2.49421306     1.30713550
     16      H    -1.54626376     3.21944634     1.82633249
     17      H    -1.80560291     1.47427662     2.04043011
     18      H    -0.76187070     2.59736940    -2.74049183
     19      H    -1.41062396     0.96383437    -2.62174515
     20      H    -2.41073740     2.25848145    -3.35548705

Total System Charge              0.00000

 *** GO1_GOStep14 ***

 Energy gradients wrt nuclear displacements
 ==========================================

     Atom      Cartesian (a.u./angstrom)
                 X         Y         Z
 ----------------------------------------
     1 C     0.001093 -0.000335 -0.000636
     2 O     0.000663 -0.000953  0.002295
     3 C    -0.004313  0.000588 -0.003219
     4 O     0.000764 -0.000644  0.000465
     5 C     0.002849  0.001205  0.002366
     6 N    -0.000917 -0.000468 -0.003191
     7 C     0.000315  0.000245  0.000871
     8 C    -0.000218 -0.000244  0.000404
     9 C    -0.000162  0.001459  0.001041
    10 C    -0.000681 -0.001280 -0.001538
    11 O    -0.000058 -0.000454 -0.000011
    12 H    -0.000159  0.000139 -0.000071
    13 H    -0.000046  0.000333  0.000308
    14 H    -0.000026  0.000098  0.000197
    15 H     0.000024 -0.000222 -0.000198
    16 H     0.000274  0.000001 -0.000300
    17 H    -0.000343  0.000319  0.000144
    18 H     0.000304 -0.000102  0.000690
    19 H     0.000457  0.000322  0.000138
    20 H     0.000179 -0.000005  0.000248
 ----------------------------------------

 dE(predicted):    -0.62383E-04, dE(actual):    -0.70926E-04, Trust radius:    0.648674, all in a.u.
 
----------------------------------------------------------------------
Geometry Convergence after Step  14       (Hartree/Angstrom,Angstrom)
----------------------------------------------------------------------
current energy                               -4.33606082 Hartree
energy change                      -0.00007093     0.00020000    T
constrained gradient max            0.00431273     0.00010000    F
constrained gradient rms            0.00112614     0.00006667    F
gradient max                        0.00431273
gradient rms                        0.00112614
cart. step max                      0.02602688     0.01000000    F
cart. step rms                      0.01090519     0.00666667    F
 

--------
Geometry
--------
Formula: C7H9NO3
Atoms
  Index Symbol   x (angstrom)   y (angstrom)   z (angstrom)
      1      C     4.35026882     1.69199007     0.26280326
      2      O     2.93628542     1.38784046     0.49622603
      3      C     2.15183448     1.42533085    -0.61974246
      4      O     2.52660190     1.67230485    -1.75516134
      5      C     0.78593029     1.01591574    -0.30585671
      6      N    -0.27333264     1.58134071    -0.17764509
      7      C    -1.46608249     2.06795589    -0.01298261
      8      C    -1.99029299     2.32350273     1.37993064
      9      C    -2.28570996     2.37119841    -1.21665454
     10      C    -1.69594282     2.02894483    -2.57961717
     11      O    -3.40593046     2.86906504    -1.08740056
     12      H     4.45800652     2.70127138    -0.14562908
     13      H     4.77832175     0.96456479    -0.43342247
     14      H     4.81690870     1.61574304     1.24580577
     15      H    -3.06787855     2.49664324     1.31296010
     16      H    -1.52372530     3.21239284     1.82557270
     17      H    -1.78958207     1.46768623     2.03555954
     18      H    -0.76954665     2.59016456    -2.75633563
     19      H    -1.43665084     0.96295509    -2.63143103
     20      H    -2.42789311     2.26925927    -3.35329934

Total System Charge              0.00000

 *** GO1_GOStep15 ***

 Energy gradients wrt nuclear displacements
 ==========================================

     Atom      Cartesian (a.u./angstrom)
                 X         Y         Z
 ----------------------------------------
     1 C     0.000635 -0.000194 -0.000487
     2 O     0.000510 -0.000322  0.001859
     3 C    -0.002351 -0.000414 -0.002260
     4 O     0.000365 -0.000167  0.000322
     5 C     0.001382  0.001245  0.001584
     6 N    -0.000529 -0.000687 -0.002333
     7 C     0.000450  0.000031  0.001359
     8 C     0.000040  0.000073  0.000312
     9 C    -0.000125  0.001039  0.000476
    10 C    -0.000421 -0.000529 -0.001124
    11 O     0.000084 -0.000454 -0.000103
    12 H    -0.000055  0.000069 -0.000051
    13 H    -0.000098  0.000148  0.000190
    14 H    -0.000048  0.000067  0.000105
    15 H    -0.000048 -0.000052 -0.000146
    16 H     0.000120  0.000004 -0.000126
    17 H    -0.000170  0.000166  0.000020
    18 H     0.000075  0.000003  0.000240
    19 H     0.000052  0.000122  0.000068
    20 H     0.000133 -0.000149  0.000095
 ----------------------------------------

 dE(predicted):    -0.22324E-04, dE(actual):    -0.43304E-04, Trust radius:    0.648674, all in a.u.
 
----------------------------------------------------------------------
Geometry Convergence after Step  15       (Hartree/Angstrom,Angstrom)
----------------------------------------------------------------------
current energy                               -4.33610412 Hartree
energy change                      -0.00004330     0.00020000    T
constrained gradient max            0.00234737     0.00010000    F
constrained gradient rms            0.00074641     0.00006667    F
gradient max                        0.00234737
gradient rms                        0.00074641
cart. step max                      0.03942430     0.01000000    F
cart. step rms                      0.00985190     0.00666667    F
 

--------
Geometry
--------
Formula: C7H9NO3
Atoms
  Index Symbol   x (angstrom)   y (angstrom)   z (angstrom)
      1      C     4.34375891     1.69938097     0.26706823
      2      O     2.93051187     1.39049836     0.49514157
      3      C     2.15044635     1.42294505    -0.62188097
      4      O     2.52539721     1.67581745    -1.75612121
      5      C     0.78408665     1.00392789    -0.31516216
      6      N    -0.27378382     1.57146796    -0.18204472
      7      C    -1.46348716     2.06400459    -0.01463356
      8      C    -1.98272570     2.32085649     1.37981150
      9      C    -2.28137703     2.37623554    -1.21707645
     10      C    -1.69783486     2.02553670    -2.57982412
     11      O    -3.39437094     2.89008530    -1.08611742
     12      H     4.45058548     2.70930461    -0.13973517
     13      H     4.77590074     0.97377228    -0.42901664
     14      H     4.80791753     1.62272447     1.25110446
     15      H    -3.06052682     2.49455063     1.31809180
     16      H    -1.51511512     3.21013056     1.82379198
     17      H    -1.77812774     1.46513623     2.03449706
     18      H    -0.75294097     2.55551307    -2.75385059
     19      H    -1.47607514     0.95100961    -2.63701300
     20      H    -2.42064944     2.29317223    -3.35335058

Total System Charge              0.00000

 *** GO1_GOStep16 ***

 Energy gradients wrt nuclear displacements
 ==========================================

     Atom      Cartesian (a.u./angstrom)
                 X         Y         Z
 ----------------------------------------
     1 C    -0.000144  0.000159 -0.000001
     2 O     0.000359  0.000118  0.000484
     3 C    -0.000216 -0.000886 -0.000076
     4 O    -0.000099  0.000100 -0.000036
     5 C     0.000463  0.001062  0.000547
     6 N    -0.000953 -0.000588 -0.002147
     7 C     0.000384  0.000006  0.001460
     8 C     0.000135  0.000313  0.000066
     9 C    -0.000336 -0.000430 -0.000355
    10 C     0.000485  0.000124  0.000060
    11 O     0.000001  0.000245 -0.000002
    12 H     0.000056 -0.000053 -0.000020
    13 H    -0.000071 -0.000122 -0.000003
    14 H    -0.000036  0.000041 -0.000037
    15 H    -0.000030  0.000145 -0.000035
    16 H    -0.000056  0.000050  0.000094
    17 H     0.000044 -0.000002 -0.000056
    18 H     0.000093 -0.000062 -0.000154
    19 H    -0.000084 -0.000112  0.000088
    20 H     0.000003 -0.000107  0.000122
 ----------------------------------------

 dE(predicted):    -0.12824E-04, dE(actual):     0.32722E-05, Trust radius:    0.020000, all in a.u.
 
----------------------------------------------------------------------
Geometry Convergence after Step  16       (Hartree/Angstrom,Angstrom)
----------------------------------------------------------------------
current energy                               -4.33610085 Hartree
energy change                       0.00000327     0.00020000    T
constrained gradient max            0.00215975     0.00010000    F
constrained gradient rms            0.00044768     0.00006667    F
gradient max                        0.00215975
gradient rms                        0.00044768
cart. step max                      0.01322782     0.01000000    F
cart. step rms                      0.00419945     0.00666667    T
 

--------
Geometry
--------
Formula: C7H9NO3
Atoms
  Index Symbol   x (angstrom)   y (angstrom)   z (angstrom)
      1      C     4.34383538     1.69903008     0.27281122
      2      O     2.92974021     1.39023515     0.49554611
      3      C     2.15267456     1.42450136    -0.62282691
      4      O     2.52980660     1.68052031    -1.75558630
      5      C     0.78592042     1.00183154    -0.31965089
      6      N    -0.27095819     1.57146376    -0.18579357
      7      C    -1.46056148     2.06443481    -0.01750698
      8      C    -1.97718772     2.32119015     1.37786022
      9      C    -2.28233291     2.37664594    -1.21720163
     10      C    -1.70588012     2.02454915    -2.58241518
     11      O    -3.39490349     2.89028889    -1.08186362
     12      H     4.45234867     2.71022652    -0.13032932
     13      H     4.77794830     0.97560312    -0.42438812
     14      H     4.80508908     1.61883634     1.25795751
     15      H    -3.05561067     2.49186083     1.31898461
     16      H    -1.51082692     3.21252428     1.81904372
     17      H    -1.76829039     1.46715192     2.03338219
     18      H    -0.75937678     2.55031258    -2.75991237
     19      H    -1.48930296     0.94901051    -2.64135701
     20      H    -2.43054158     2.29585277    -3.35307370

Total System Charge              0.00000

 *** GO1_GOStep17 ***

 Energy gradients wrt nuclear displacements
 ==========================================

     Atom      Cartesian (a.u./angstrom)
                 X         Y         Z
 ----------------------------------------
     1 C    -0.000183  0.000097  0.000105
     2 O     0.000046  0.000205 -0.000097
     3 C     0.000052 -0.000614  0.000471
     4 O    -0.000091  0.000089 -0.000065
     5 C     0.000273  0.000649  0.000436
     6 N    -0.000129 -0.000548 -0.001627
     7 C    -0.000064  0.000201  0.001173
     8 C     0.000111  0.000210 -0.000140
     9 C    -0.000248 -0.000271 -0.000166
    10 C     0.000294  0.000125  0.000120
    11 O     0.000053  0.000120 -0.000021
    12 H     0.000037 -0.000078 -0.000020
    13 H     0.000022 -0.000122 -0.000020
    14 H     0.000006  0.000021 -0.000033
    15 H    -0.000027  0.000134 -0.000013
    16 H    -0.000006  0.000060  0.000020
    17 H     0.000011  0.000013  0.000001
    18 H    -0.000021 -0.000089 -0.000146
    19 H    -0.000098 -0.000112  0.000029
    20 H    -0.000037 -0.000088 -0.000006
 ----------------------------------------
 
----------------------------------------------------------------------
Geometry Convergence after Step  17       (Hartree/Angstrom,Angstrom)
----------------------------------------------------------------------
current energy                               -4.33610130 Hartree
energy change                      -0.00000045     0.00020000    T
constrained gradient max            0.00163973     0.00010000    F
constrained gradient rms            0.00032191     0.00006667    F
gradient max                        0.00163973
gradient rms                        0.00032191
cart. step max                      0.00502168     0.01000000    T
cart. step rms                      0.00157855     0.00666667    T
 

--------
Geometry
--------
Formula: C7H9NO3
Atoms
  Index Symbol   x (angstrom)   y (angstrom)   z (angstrom)
      1      C     4.34471489     1.69788293     0.27249350
      2      O     2.93087780     1.38772830     0.49552958
      3      C     2.15259412     1.42512338    -0.62192739
      4      O     2.52898777     1.68218249    -1.75466015
      5      C     0.78598653     1.00182345    -0.31768557
      6      N    -0.27063911     1.57241062    -0.18496706
      7      C    -1.46039422     2.06512235    -0.01772688
      8      C    -1.97769632     2.32220161     1.37738353
      9      C    -2.28256145     2.37607253    -1.21733564
     10      C    -1.70619715     2.02445425    -2.58265535
     11      O    -3.39614178     2.88745646    -1.08185269
     12      H     4.45224209     2.71085271    -0.12653317
     13      H     4.77840789     0.97766939    -0.42818612
     14      H     4.80702735     1.61381466     1.25685145
     15      H    -3.05647748     2.49030521     1.31827187
     16      H    -1.51327464     3.21527278     1.81711663
     17      H    -1.76686906     1.46970270     2.03422371
     18      H    -0.76103892     2.55267001    -2.76008301
     19      H    -1.48642953     0.94956961    -2.64118498
     20      H    -2.43152877     2.29375456    -3.35339223

Total System Charge              0.00000

 *** GO1_GOStep18 ***

 Energy gradients wrt nuclear displacements
 ==========================================

     Atom      Cartesian (a.u./angstrom)
                 X         Y         Z
 ----------------------------------------
     1 C    -0.000081  0.000055  0.000068
     2 O    -0.000016  0.000047 -0.000098
     3 C    -0.000107 -0.000142  0.000328
     4 O     0.000025 -0.000059 -0.000088
     5 C     0.000275  0.000382  0.000675
     6 N    -0.000153 -0.000392 -0.001478
     7 C    -0.000003  0.000197  0.000837
     8 C     0.000052  0.000071 -0.000142
     9 C    -0.000011  0.000025  0.000047
    10 C     0.000028  0.000001  0.000017
    11 O     0.000039 -0.000038 -0.000047
    12 H     0.000014 -0.000053 -0.000034
    13 H     0.000031 -0.000072  0.000007
    14 H     0.000011  0.000012 -0.000000
    15 H     0.000008  0.000091 -0.000023
    16 H     0.000045  0.000060 -0.000034
    17 H    -0.000035  0.000063  0.000042
    18 H    -0.000053 -0.000086 -0.000032
    19 H    -0.000040 -0.000091  0.000014
    20 H    -0.000027 -0.000072 -0.000059
 ----------------------------------------

 dE(predicted):    -0.12073E-05, dE(actual):    -0.38205E-05, Trust radius:    0.020000, all in a.u.
 
----------------------------------------------------------------------
Geometry Convergence after Step  18       (Hartree/Angstrom,Angstrom)
----------------------------------------------------------------------
current energy                               -4.33610512 Hartree
energy change                      -0.00000382     0.00020000    T
constrained gradient max            0.00149024     0.00010000    F
constrained gradient rms            0.00025805     0.00006667    F
gradient max                        0.00149024
gradient rms                        0.00025805
cart. step max                      0.00659365     0.01000000    T
cart. step rms                      0.00223925     0.00666667    T
 

--------
Geometry
--------
Formula: C7H9NO3
Atoms
  Index Symbol   x (angstrom)   y (angstrom)   z (angstrom)
      1      C     4.34455339     1.69763688     0.27120006
      2      O     2.93156739     1.38383048     0.49501662
      3      C     2.15146966     1.42500187    -0.62100903
      4      O     2.52605340     1.68550350    -1.75348029
      5      C     0.78527318     0.99976511    -0.31571295
      6      N    -0.27095593     1.57149555    -0.18357768
      7      C    -1.46029960     2.06520058    -0.01739049
      8      C    -1.97849509     2.32330987     1.37732609
      9      C    -2.28162553     2.37609532    -1.21754116
     10      C    -1.70458135     2.02368836    -2.58229346
     11      O    -3.39524867     2.88759270    -1.08280655
     12      H     4.44947836     2.71331458    -0.12168831
     13      H     4.77810602     0.98263830    -0.43477977
     14      H     4.80882369     1.60830612     1.25418858
     15      H    -3.05777483     2.48799078     1.31801258
     16      H    -1.51685991     3.21882809     1.81503933
     17      H    -1.76484967     1.47294189     2.03592443
     18      H    -0.75778920     2.54958767    -2.75797021
     19      H    -1.48712101     0.94833696    -2.64082039
     20      H    -2.42813430     2.29500540    -3.35395741

Total System Charge              0.00000

 *** GO1_GOStep19 ***

 Energy gradients wrt nuclear displacements
 ==========================================

     Atom      Cartesian (a.u./angstrom)
                 X         Y         Z
 ----------------------------------------
     1 C    -0.000005  0.000041  0.000027
     2 O    -0.000071 -0.000057 -0.000068
     3 C    -0.000077  0.000184  0.000142
     4 O     0.000052 -0.000144 -0.000029
     5 C     0.000218  0.000176  0.000852
     6 N    -0.000272 -0.000287 -0.001470
     7 C     0.000138  0.000182  0.000576
     8 C    -0.000039  0.000008 -0.000068
     9 C     0.000134  0.000109  0.000109
    10 C    -0.000119 -0.000092 -0.000004
    11 O    -0.000004 -0.000076 -0.000054
    12 H    -0.000006 -0.000029 -0.000040
    13 H     0.000017 -0.000029  0.000031
    14 H     0.000000  0.000015  0.000020
    15 H     0.000034  0.000068 -0.000022
    16 H     0.000065  0.000059 -0.000054
    17 H    -0.000052  0.000099  0.000051
    18 H    -0.000019 -0.000092  0.000034
    19 H     0.000004 -0.000066  0.000021
    20 H     0.000002 -0.000067 -0.000053
 ----------------------------------------

 dE(predicted):    -0.83305E-06, dE(actual):    -0.21848E-05, Trust radius:    0.020000, all in a.u.
 
----------------------------------------------------------------------
Geometry Convergence after Step  19       (Hartree/Angstrom,Angstrom)
----------------------------------------------------------------------
current energy                               -4.33610731 Hartree
energy change                      -0.00000218     0.00020000    T
constrained gradient max            0.00148241     0.00010000    F
constrained gradient rms            0.00024768     0.00006667    F
gradient max                        0.00148241
gradient rms                        0.00024768
cart. step max                      0.00778344     0.01000000    T
cart. step rms                      0.00268903     0.00666667    T
 

--------
Geometry
--------
Formula: C7H9NO3
Atoms
  Index Symbol   x (angstrom)   y (angstrom)   z (angstrom)
      1      C     4.34407566     1.69728237     0.26960946
      2      O     2.93213826     1.37921316     0.49443370
      3      C     2.14989789     1.42410388    -0.61987173
      4      O     2.52206787     1.68909495    -1.75202525
      5      C     0.78409778     0.99643329    -0.31355469
      6      N    -0.27149438     1.56984421    -0.18184085
      7      C    -1.46030597     2.06494630    -0.01678122
      8      C    -1.97939466     2.32477062     1.37741618
      9      C    -2.28036509     2.37595556    -1.21777793
     10      C    -1.70214306     2.02317808    -2.58186820
     11      O    -3.39385816     2.88803668    -1.08404061
     12      H     4.44600039     2.71606996    -0.11607407
     13      H     4.77735085     0.98839356    -0.44256322
     14      H     4.81078209     1.60187417     1.25088069
     15      H    -3.05940042     2.48462139     1.31806494
     16      H    -1.52173469     3.22373849     1.81224954
     17      H    -1.76155474     1.47734407     2.03833794
     18      H    -0.75508791     2.54894864    -2.75668286
     19      H    -1.48461825     0.94782415    -2.63991796
     20      H    -2.42486346     2.29439646    -3.35431385

Total System Charge              0.00000

 *** GO1_GOStep20 ***

 Energy gradients wrt nuclear displacements
 ==========================================

     Atom      Cartesian (a.u./angstrom)
                 X         Y         Z
 ----------------------------------------
     1 C     0.000053  0.000018  0.000028
     2 O    -0.000076 -0.000087 -0.000048
     3 C     0.000061  0.000346  0.000028
     4 O     0.000036 -0.000148 -0.000001
     5 C     0.000122 -0.000089  0.000951
     6 N    -0.000385 -0.000139 -0.001514
     7 C     0.000183  0.000167  0.000423
     8 C    -0.000114  0.000011  0.000032
     9 C     0.000232  0.000029  0.000098
    10 C    -0.000174 -0.000102  0.000010
    11 O    -0.000050 -0.000059 -0.000044
    12 H    -0.000010  0.000003 -0.000022
    13 H     0.000001  0.000012  0.000057
    14 H    -0.000006  0.000034  0.000028
    15 H     0.000051  0.000060 -0.000024
    16 H     0.000060  0.000058 -0.000054
    17 H    -0.000042  0.000109  0.000034
    18 H     0.000011 -0.000086  0.000032
    19 H     0.000016 -0.000060  0.000027
    20 H     0.000030 -0.000076 -0.000041
 ----------------------------------------

 dE(predicted):    -0.79656E-06, dE(actual):    -0.47370E-05, Trust radius:    0.040000, all in a.u.
 
----------------------------------------------------------------------
Geometry Convergence after Step  20       (Hartree/Angstrom,Angstrom)
----------------------------------------------------------------------
current energy                               -4.33611205 Hartree
energy change                      -0.00000474     0.00020000    T
constrained gradient max            0.00152486     0.00010000    F
constrained gradient rms            0.00025534     0.00006667    F
gradient max                        0.00152486
gradient rms                        0.00025534
cart. step max                      0.00863918     0.01000000    T
cart. step rms                      0.00323384     0.00666667    T
 

--------
Geometry
--------
Formula: C7H9NO3
Atoms
  Index Symbol   x (angstrom)   y (angstrom)   z (angstrom)
      1      C     4.34418098     1.69622056     0.26608141
      2      O     2.93319337     1.37612236     0.49418440
      3      C     2.14791458     1.42346907    -0.61787094
      4      O     2.51686250     1.69200769    -1.75021005
      5      C     0.78264442     0.99426199    -0.30956446
      6      N    -0.27263272     1.56874718    -0.17858388
      7      C    -1.46129435     2.06466200    -0.01518392
      8      C    -1.98256096     2.32590769     1.37798605
      9      C    -2.27889575     2.37571211    -1.21794585
     10      C    -1.69738569     2.02338128    -2.58076684
     11      O    -3.39258788     2.88791746    -1.08644444
     12      H     4.44394731     2.71696427    -0.11509983
     13      H     4.77555483     0.99111742    -0.45089228
     14      H     4.81425907     1.59674688     1.24534255
     15      H    -3.06342752     2.47971573     1.31767477
     16      H    -1.53037387     3.22887713     1.81026344
     17      H    -1.76014924     1.48168781     2.04141020
     18      H    -0.75185327     2.55227257    -2.75465134
     19      H    -1.47600514     0.94877019    -2.63750751
     20      H    -2.41980067     2.29150858    -3.35454147

Total System Charge              0.00000

 *** GO1_GOStep21 ***

 Energy gradients wrt nuclear displacements
 ==========================================

     Atom      Cartesian (a.u./angstrom)
                 X         Y         Z
 ----------------------------------------
     1 C     0.000072 -0.000059 -0.000016
     2 O    -0.000012 -0.000013  0.000078
     3 C     0.000189  0.000282 -0.000144
     4 O     0.000009 -0.000071  0.000037
     5 C     0.000081 -0.000274  0.001075
     6 N    -0.000497 -0.000031 -0.001697
     7 C     0.000154  0.000149  0.000476
     8 C    -0.000143  0.000028  0.000126
     9 C     0.000234 -0.000019  0.000042
    10 C    -0.000138 -0.000079  0.000014
    11 O    -0.000069 -0.000046 -0.000034
    12 H    -0.000014  0.000039 -0.000009
    13 H    -0.000016  0.000046  0.000074
    14 H    -0.000007  0.000066  0.000037
    15 H     0.000034  0.000054 -0.000035
    16 H     0.000034  0.000060 -0.000046
    17 H    -0.000022  0.000098  0.000000
    18 H     0.000038 -0.000073  0.000001
    19 H     0.000021 -0.000068  0.000032
    20 H     0.000051 -0.000088 -0.000010
 ----------------------------------------

 dE(predicted):    -0.75541E-06, dE(actual):    -0.66789E-05, Trust radius:    0.040000, all in a.u.
 
----------------------------------------------------------------------
Geometry Convergence after Step  21       (Hartree/Angstrom,Angstrom)
----------------------------------------------------------------------
current energy                               -4.33611872 Hartree
energy change                      -0.00000668     0.00020000    T
constrained gradient max            0.00170733     0.00010000    F
constrained gradient rms            0.00028627     0.00006667    F
gradient max                        0.00170733
gradient rms                        0.00028627
cart. step max                      0.00618995     0.01000000    T
cart. step rms                      0.00207799     0.00666667    T
 

--------
Geometry
--------
Formula: C7H9NO3
Atoms
  Index Symbol   x (angstrom)   y (angstrom)   z (angstrom)
      1      C     4.34376174     1.69571009     0.26430102
      2      O     2.93337197     1.37388233     0.49372485
      3      C     2.14669292     1.42264056    -0.61725025
      4      O     2.51406973     1.69339045    -1.74958357
      5      C     0.78168253     0.99281655    -0.30828986
      6      N    -0.27331270     1.56779559    -0.17690069
      7      C    -1.46175379     2.06433599    -0.01409660
      8      C    -1.98408362     2.32650429     1.37843840
      9      C    -2.27779859     2.37599930    -1.21796412
     10      C    -1.69450593     2.02350287    -2.58005514
     11      O    -3.39118672     2.88909712    -1.08774877
     12      H     4.44215462     2.71770045    -0.11393012
     13      H     4.77447309     0.99311867    -0.45550674
     14      H     4.81548921     1.59370023     1.24250393
     15      H    -3.06573084     2.47499288     1.31793349
     16      H    -1.53656382     3.23288060     1.80842647
     17      H    -1.75733950     1.48497660     2.04377841
     18      H    -0.74994008     2.55416926    -2.75383624
     19      H    -1.47091819     0.94931351    -2.63576132
     20      H    -2.41697203     2.28954267    -3.35450320

Total System Charge              0.00000

 *** GO1_GOStep22 ***

 Energy gradients wrt nuclear displacements
 ==========================================

     Atom      Cartesian (a.u./angstrom)
                 X         Y         Z
 ----------------------------------------
     1 C     0.000066 -0.000032 -0.000022
     2 O     0.000018  0.000021  0.000118
     3 C     0.000250  0.000159 -0.000124
     4 O    -0.000030 -0.000011  0.000034
     5 C     0.000017 -0.000252  0.001042
     6 N    -0.000520 -0.000017 -0.001832
     7 C     0.000175  0.000093  0.000707
     8 C    -0.000097  0.000049  0.000142
     9 C     0.000097 -0.000042 -0.000058
    10 C    -0.000021 -0.000050  0.000012
    11 O    -0.000028 -0.000027 -0.000028
    12 H    -0.000000  0.000047  0.000003
    13 H    -0.000026  0.000049  0.000072
    14 H    -0.000010  0.000081  0.000032
    15 H     0.000008  0.000050 -0.000052
    16 H     0.000007  0.000062 -0.000028
    17 H    -0.000008  0.000074 -0.000023
    18 H     0.000046 -0.000080 -0.000033
    19 H     0.000016 -0.000072  0.000031
    20 H     0.000040 -0.000101  0.000006
 ----------------------------------------

 dE(predicted):    -0.54754E-06, dE(actual):    -0.51476E-05, Trust radius:    0.040000, all in a.u.
 
----------------------------------------------------------------------
Geometry Convergence after Step  22       (Hartree/Angstrom,Angstrom)
----------------------------------------------------------------------
current energy                               -4.33612387 Hartree
energy change                      -0.00000515     0.00020000    T
constrained gradient max            0.00184096     0.00010000    F
constrained gradient rms            0.00030253     0.00006667    F
gradient max                        0.00184096
gradient rms                        0.00030253
cart. step max                      0.01405514     0.01000000    F
cart. step rms                      0.00423175     0.00666667    T
 

--------
Geometry
--------
Formula: C7H9NO3
Atoms
  Index Symbol   x (angstrom)   y (angstrom)   z (angstrom)
      1      C     4.34319516     1.69393660     0.26184296
      2      O     2.93349548     1.37026259     0.49280697
      3      C     2.14500723     1.42157590    -0.61668658
      4      O     2.51034616     1.69581211    -1.74888270
      5      C     0.78038826     0.99119115    -0.30700315
      6      N    -0.27414498     1.56677604    -0.17418456
      7      C    -1.46245295     2.06384622    -0.01232129
      8      C    -1.98646107     2.32771536     1.37903346
      9      C    -2.27643001     2.37610317    -1.21787005
     10      C    -1.69015537     2.02421330    -2.57900539
     11      O    -3.38968299     2.88975153    -1.08939149
     12      H     4.44017783     2.71788315    -0.11149216
     13      H     4.77268747     0.99520006    -0.46242033
     14      H     4.81712231     1.58741856     1.23849863
     15      H    -3.07004416     2.46247072     1.31913822
     16      H    -1.55061896     3.24255584     1.80298175
     17      H    -1.74810976     1.49310049     2.04894879
     18      H    -0.74831116     2.55962942    -2.75299978
     19      H    -1.46088169     0.95117702    -2.63305926
     20      H    -2.41353680     2.28545077    -3.35425404

Total System Charge              0.00000

 *** GO1_GOStep23 ***

 Energy gradients wrt nuclear displacements
 ==========================================

     Atom      Cartesian (a.u./angstrom)
                 X         Y         Z
 ----------------------------------------
     1 C     0.000043  0.000008 -0.000023
     2 O     0.000026  0.000101  0.000128
     3 C     0.000290 -0.000079  0.000001
     4 O    -0.000087  0.000100  0.000010
     5 C     0.000031 -0.000182  0.000911
     6 N    -0.000503  0.000010 -0.001959
     7 C     0.000196 -0.000006  0.001191
     8 C     0.000053  0.000062  0.000064
     9 C    -0.000218 -0.000067 -0.000216
    10 C     0.000207  0.000010 -0.000039
    11 O     0.000026  0.000007 -0.000025
    12 H     0.000006  0.000060  0.000016
    13 H    -0.000028  0.000057  0.000058
    14 H    -0.000021  0.000104  0.000022
    15 H    -0.000041  0.000043 -0.000074
    16 H    -0.000033  0.000037  0.000004
    17 H     0.000007  0.000008 -0.000037
    18 H     0.000038 -0.000090 -0.000082
    19 H     0.000004 -0.000072  0.000029
    20 H     0.000004 -0.000111  0.000020
 ----------------------------------------

 dE(predicted):    -0.12107E-05, dE(actual):    -0.11836E-04, Trust radius:    0.080000, all in a.u.
 
----------------------------------------------------------------------
Geometry Convergence after Step  23       (Hartree/Angstrom,Angstrom)
----------------------------------------------------------------------
current energy                               -4.33613571 Hartree
energy change                      -0.00001184     0.00020000    T
constrained gradient max            0.00196426     0.00010000    F
constrained gradient rms            0.00033476     0.00006667    F
gradient max                        0.00196426
gradient rms                        0.00033476
cart. step max                      0.03222583     0.01000000    F
[...]
                                  -14.26%     2 P:y             4.589  0.00     7 C
                                   12.86%     2 S               2.394  0.00    16 H
                                   12.50%     2 S               2.394  0.00    15 H
                                   12.44%     2 S               2.394  0.00    19 H
                                  -11.36%     2 P:y             4.589  0.00     5 C
                                   10.74%     1 S              -6.532  1.00    16 H
                                   10.67%     2 S               2.394  0.00    18 H
                                   10.18%     1 S              -6.532  1.00    18 H
                                    5.18%     1 P:y            -5.239  0.67     4 C
                                   -3.75%     2 P:x             4.589  0.00     5 C
                                    3.56%     1 P:y            -5.239  0.67     7 C
                                    3.46%     1 P:y            -5.239  0.67     6 C
                                   -2.05%     2 P:x             4.589  0.00     7 C
                                    1.92%     3 S              40.869  0.00    19 H
                                    1.85%     3 S              40.869  0.00    15 H
                                    1.71%     3 S              40.869  0.00    16 H
                                    1.67%     3 S              40.869  0.00    18 H
                                    1.64%     1 P:y            -5.239  0.67     5 C
                                    1.26%     1 P:x            -5.239  0.67     5 C
                                    1.07%     1 P:x            -5.239  0.67     6 C
       2.255  0.00    56 A         28.52%     2 P:z             4.589  0.00     5 C
                                   19.83%     2 P:z             4.589  0.00     7 C
                                   12.44%     2 P:x             4.589  0.00     5 C
                                  -12.20%     3 S              10.158  0.00     4 C
                                   11.57%     1 P:z            -5.239  0.67     5 C
                                    8.72%     2 P:x             4.589  0.00     7 C
                                    7.73%     1 P:z            -5.239  0.67     7 C
                                    7.54%     1 P:z            -5.239  0.67     6 C
                                   -5.85%     3 S              10.158  0.00     6 C
                                    4.94%     1 P:x            -5.239  0.67     5 C
                                    4.53%     1 P:z            -5.239  0.67     4 C
                                   -3.04%     3 S              10.158  0.00     3 C
                                    2.86%     2 P:x             4.589  0.00     3 C
                                    2.63%     2 P:x             4.589  0.00     4 C
                                    2.27%     2 S             -13.620  2.00     4 C
                                    1.96%     2 P:y             4.589  0.00     5 C
                                    1.87%     2 P:y             4.589  0.00     7 C
                                    1.83%     2 P:z             4.589  0.00     2 C
                                   -1.71%     2 S               2.394  0.00    20 H
                                    1.55%     1 P:x            -5.239  0.67     4 C
                                   -1.43%     3 S              14.073  0.00    11 N
                                    1.40%     2 S               2.394  0.00    18 H
                                    1.30%     2 P:x             4.589  0.00     2 C
                                    1.30%     1 P:x            -5.239  0.67     2 C
                                   -1.28%     2 S             -13.620  2.00     6 C
                                    1.18%     1 S              -6.532  1.00    20 H
                                   -1.10%     2 S               2.394  0.00    16 H
                                    1.08%     1 P:y            -5.239  0.67     5 C
                                   -1.08%     2 S             -18.450  2.00    11 N
                                    1.05%     2 S               2.394  0.00    17 H

 Energy gradients wrt nuclear displacements
 ==========================================

     Atom      Cartesian (a.u./angstrom)
                 X         Y         Z
 ----------------------------------------
     1 C     0.000036  0.000083  0.000045
     2 O    -0.000021  0.000050  0.000054
     3 C     0.000015 -0.000008  0.000071
     4 O     0.000005  0.000008  0.000011
     5 C     0.000007 -0.000002 -0.000003
     6 N     0.000036  0.000034  0.000012
     7 C    -0.000039 -0.000021  0.000013
     8 C    -0.000048  0.000049 -0.000051
     9 C     0.000008 -0.000108 -0.000081
    10 C    -0.000012 -0.000049  0.000010
    11 O     0.000002 -0.000040 -0.000045
    12 H    -0.000010  0.000055  0.000017
    13 H     0.000008  0.000049  0.000076
    14 H    -0.000017  0.000109  0.000054
    15 H    -0.000016  0.000035 -0.000030
    16 H    -0.000035  0.000015 -0.000060
    17 H    -0.000029  0.000043 -0.000032
    18 H     0.000036 -0.000083 -0.000043
    19 H     0.000046 -0.000094  0.000007
    20 H     0.000030 -0.000126 -0.000025
 ----------------------------------------



 =======================================================================
 Electrostatic potential at the Nuclei due to electrons and other nuclei
 =======================================================================
  
         Atom                  Potential
         ----                  ---------
     1)   C                  14.71716022
     2)   O                  22.33426004
     3)   C                  14.63396747
     4)   O                  22.39240022
     5)   C                  14.71856740
     6)   N                  18.32592786
     7)   C                  14.71840483
     8)   C                  14.77004724
     9)   C                  14.70008268
    10)   C                  14.78194963
    11)   O                  22.41384261
    12)   H                   1.08655519
    13)   H                   1.08641518
    14)   H                   1.08386347
    15)   H                   1.09945482
    16)   H                   1.09895996
    17)   H                   1.09702116
    18)   H                   1.09494519
    19)   H                   1.09404353
    20)   H                   1.10604349
 Mulliken charges used for AMS results%charges...


    =====================
     CALCULATION RESULTS
    =====================

Energy (hartree)            -4.33632705

Gradients (hartree/bohr)
  Index   Atom            d/dx            d/dy            d/dz
      1      C    0.0000188665    0.0000438451    0.0000236065
      2      O   -0.0000110736    0.0000262023    0.0000286981
      3      C    0.0000078594   -0.0000044668    0.0000376938
      4      O    0.0000027974    0.0000040758    0.0000057975
      5      C    0.0000038717   -0.0000008817   -0.0000014536
      6      N    0.0000190887    0.0000178028    0.0000062142
      7      C   -0.0000208271   -0.0000109473    0.0000068902
      8      C   -0.0000254412    0.0000261289   -0.0000271375
      9      C    0.0000041095   -0.0000568935   -0.0000428931
     10      C   -0.0000064047   -0.0000257728    0.0000051336
     11      O    0.0000009594   -0.0000209523   -0.0000236593
     12      H   -0.0000055286    0.0000288839    0.0000092321
     13      H    0.0000043379    0.0000259126    0.0000404242
     14      H   -0.0000091146    0.0000575012    0.0000287625
     15      H   -0.0000082486    0.0000185155   -0.0000159735
     16      H   -0.0000186432    0.0000079697   -0.0000316027
     17      H   -0.0000154229    0.0000229911   -0.0000171535
     18      H    0.0000188252   -0.0000437364   -0.0000228104
     19      H    0.0000242016   -0.0000496067    0.0000036513
     20      H    0.0000157871   -0.0000665715   -0.0000134204


--------------
Atomic charges
--------------
  Index   Atom    Charge
      1      C    0.9494
      2      O   -0.5284
      3      C    0.7342
      4      O   -0.5394
      5      C   -0.0117
      6      N   -0.0976
      7      C    0.0451
      8      C    0.6383
      9      C    0.4365
     10      C    0.5834
     11      O   -0.5151
     12      H   -0.1777
     13      H   -0.1743
     14      H   -0.2254
     15      H   -0.1751
     16      H   -0.1723
     17      H   -0.2209
     18      H   -0.1667
     19      H   -0.1822
     20      H   -0.2001


Dipole moment vector    (Debye):     3.03759970   -0.48856275    2.02670485
              magnitude (Debye):     3.68418757


-----------------------
Molecular orbitals info
-----------------------
n orbitals:              385
n spin:                    1

Note: only printing virtual orbitals with
      energy smaller than HOMO + 100. eV

HOMO (eV):              -5.6663
LUMO (eV):              -2.8776
HOMO-LUMO gap (eV):      2.7887

   Index   Energy (eV)    Occupation
     246       94.3298         0.000       
     245       94.2946         0.000       
     244       93.8181         0.000       
     243       93.2159         0.000       
     242       92.7798         0.000       
     241       92.5283         0.000       
     240       92.1537         0.000       
     239       91.8493         0.000       
     238       91.1059         0.000       
     237       90.8432         0.000       
     236       90.4157         0.000       
     235       90.1286         0.000       
     234       88.9019         0.000       
     233       88.7655         0.000       
     232       88.2089         0.000       
     231       86.9533         0.000       
     230       85.0184         0.000       
     229       84.6001         0.000       
     228       83.7604         0.000       
     227       83.4738         0.000       
     226       82.6163         0.000       
     225       81.9259         0.000       
     224       81.6505         0.000       
     223       79.9992         0.000       
     222       79.5880         0.000       
     221       79.2791         0.000       
     220       79.0019         0.000       
     219       78.2593         0.000       
     218       77.9736         0.000       
     217       77.7557         0.000       
     216       77.3186         0.000       
     215       76.7970         0.000       
     214       76.5010         0.000       
     213       76.4062         0.000       
     212       76.2775         0.000       
     211       76.0311         0.000       
     210       75.7787         0.000       
     209       75.5961         0.000       
     208       75.2574         0.000       
     207       74.3975         0.000       
     206       73.7198         0.000       
     205       72.8676         0.000       
     204       72.1273         0.000       
     203       70.1855         0.000       
     202       70.0096         0.000       
     201       67.8369         0.000       
     200       67.3266         0.000       
     199       66.2731         0.000       
     198       65.9609         0.000       
     197       65.8611         0.000       
     196       64.5842         0.000       
     195       64.1303         0.000       
     194       63.8649         0.000       
     193       63.0661         0.000       
     192       61.9832         0.000       
     191       61.6072         0.000       
     190       60.5969         0.000       
     189       59.6745         0.000       
     188       59.0852         0.000       
     187       57.5718         0.000       
     186       57.2867         0.000       
     185       56.8628         0.000       
     184       56.2423         0.000       
     183       55.9603         0.000       
     182       55.7147         0.000       
     181       55.1223         0.000       
     180       54.8936         0.000       
     179       53.6334         0.000       
     178       53.1381         0.000       
     177       52.5429         0.000       
     176       52.0656         0.000       
     175       51.8336         0.000       
     174       51.6789         0.000       
     173       50.7596         0.000       
     172       49.6384         0.000       
     171       49.3192         0.000       
     170       48.6481         0.000       
     169       48.1608         0.000       
     168       47.5919         0.000       
     167       47.5304         0.000       
     166       46.9999         0.000       
     165       46.3749         0.000       
     164       46.0308         0.000       
     163       45.4252         0.000       
     162       45.0009         0.000       
     161       44.3389         0.000       
     160       43.6905         0.000       
     159       43.3261         0.000       
     158       42.7195         0.000       
     157       41.9719         0.000       
     156       41.1433         0.000       
     155       40.4317         0.000       
     154       40.0788         0.000       
     153       39.9602         0.000       
     152       39.1607         0.000       
     151       38.8088         0.000       
     150       37.7665         0.000       
     149       37.1993         0.000       
     148       37.0637         0.000       
     147       36.3222         0.000       
     146       35.9525         0.000       
     145       35.6860         0.000       
     144       34.8971         0.000       
     143       34.5239         0.000       
     142       34.3586         0.000       
     141       33.7008         0.000       
     140       33.5235         0.000       
     139       32.8768         0.000       
     138       32.4453         0.000       
     137       32.3813         0.000       
     136       32.1871         0.000       
     135       31.4323         0.000       
     134       31.0021         0.000       
     133       30.4991         0.000       
     132       29.8146         0.000       
     131       29.7317         0.000       
     130       29.5141         0.000       
     129       28.8990         0.000       
     128       28.6896         0.000       
     127       28.1090         0.000       
     126       27.7208         0.000       
     125       27.2572         0.000       
     124       26.9811         0.000       
     123       26.8068         0.000       
     122       26.4221         0.000       
     121       26.1891         0.000       
     120       25.4302         0.000       
     119       25.3442         0.000       
     118       24.8946         0.000       
     117       24.7233         0.000       
     116       24.0164         0.000       
     115       23.7683         0.000       
     114       22.8058         0.000       
     113       22.5883         0.000       
     112       22.2956         0.000       
     111       21.9920         0.000       
     110       21.7243         0.000       
     109       20.9040         0.000       
     108       20.4902         0.000       
     107       19.1781         0.000       
     106       18.8737         0.000       
     105       18.4257         0.000       
     104       18.3281         0.000       
     103       17.4940         0.000       
     102       17.0163         0.000       
     101       16.5249         0.000       
     100       16.0314         0.000       
      99       15.7555         0.000       
      98       14.8229         0.000       
      97       14.0365         0.000       
      96       13.5682         0.000       
      95       13.3947         0.000       
      94       13.0569         0.000       
      93       12.8184         0.000       
      92       12.5016         0.000       
      91       11.8827         0.000       
      90       11.5997         0.000       
      89       11.4531         0.000       
      88       11.1963         0.000       
      87       10.9173         0.000       
      86       10.7565         0.000       
      85       10.3948         0.000       
      84       10.1774         0.000       
      83       10.0883         0.000       
      82        9.4829         0.000       
      81        9.1687         0.000       
      80        9.1196         0.000       
      79        8.8772         0.000       
      78        8.6526         0.000       
      77        8.2802         0.000       
      76        8.0881         0.000       
      75        7.6861         0.000       
      74        7.5024         0.000       
      73        6.9825         0.000       
      72        6.7475         0.000       
      71        6.6089         0.000       
      70        6.3901         0.000       
      69        6.1062         0.000       
      68        6.0143         0.000       
      67        5.3715         0.000       
      66        5.1933         0.000       
      65        4.9440         0.000       
      64        4.7690         0.000       
      63        4.3214         0.000       
      62        4.1727         0.000       
      61        3.9113         0.000       
      60        3.6867         0.000       
      59        3.5191         0.000       
      58        3.3761         0.000       
      57        2.7813         0.000       
      56        2.2550         0.000       
      55        2.0230         0.000       
      54        1.6883         0.000       
      53        1.4171         0.000       
      52        1.3482         0.000       
      51        1.1820         0.000       
      50        1.0546         0.000       
      49        0.7245         0.000       
      48        0.3455         0.000       
      47        0.0682         0.000       
      46       -0.1229         0.000       
      45       -0.3555         0.000       
      44       -1.0617         0.000       
      43       -2.2275         0.000       
      42       -2.8776         0.000 < LUMO
      41       -5.6663         2.000 < HOMO
      40       -5.8712         2.000       
      39       -7.2576         2.000       
      38       -7.7666         2.000       
      37       -8.7210         2.000       
      36       -9.0374         2.000       
      35       -9.1812         2.000       
      34       -9.4673         2.000       
      33       -9.6042         2.000       
      32      -10.0074         2.000       
      31      -10.2447         2.000       
      30      -10.2887         2.000       
      29      -10.5574         2.000       
      28      -10.8686         2.000       
      27      -11.5350         2.000       
      26      -11.6749         2.000       
      25      -11.9800         2.000       
      24      -12.0746         2.000       
      23      -12.2023         2.000       
      22      -13.6995         2.000       
      21      -14.9714         2.000       
      20      -15.9462         2.000       
      19      -17.4830         2.000       
      18      -18.4203         2.000       
      17      -18.7307         2.000       
      16      -20.5435         2.000       
      15      -25.0439         2.000       
      14      -25.7851         2.000       
      13      -25.8228         2.000       
      12      -27.8903         2.000       
      11     -270.1231         2.000       
      10     -270.4138         2.000       
       9     -271.8660         2.000       
       8     -271.8691         2.000       
       7     -272.1062         2.000       
       6     -272.4773         2.000       
       5     -274.1909         2.000       
       4     -384.1428         2.000       
       3     -511.1428         2.000       
       2     -511.7302         2.000       
       1     -513.2220         2.000       

AMS application finished. Exiting.
NORMAL TERMINATION
     Total cpu time:    2246.90
  Total system time:       7.90
 Total elapsed time:    2267.52
NORMAL TERMINATION
