srun: Job 663081 step creation temporarily disabled, retrying (Requested nodes are busy)
srun: Job 663081 step creation still disabled, retrying (Requested nodes are busy)
srun: Job 663081 step creation still disabled, retrying (Requested nodes are busy)
srun: Job 663081 step creation still disabled, retrying (Requested nodes are busy)
srun: Job 663081 step creation still disabled, retrying (Requested nodes are busy)
srun: Job 663081 step creation still disabled, retrying (Requested nodes are busy)
srun: Job 663081 step creation still disabled, retrying (Requested nodes are busy)
srun: Job 663081 step creation still disabled, retrying (Requested nodes are busy)
srun: Step created for StepId=663081.90

 *******************************************************************************
 *                                                                             *
 *  --------------------------------                                           *
 *   Amsterdam Modeling Suite (AMS)              2026.103                      *
 *  --------------------------------                                           *
 *                                               r260501 2026-05-01 873454b5   *
 *                                                                             *
 *                                                                             *
 *                              =================                              *
 *                              |               |                              *
 *                              |     A M S     |                              *
 *                              |               |                              *
 *                              =================                              *
 *                                                                             *
 *                                                                             *
 *   Online information and documentation:  https://www.scm.com/support/       *
 *   E-mail:  support@scm.com   info@scm.com                                   *
 *                                                                             *
 *   Scientific publications using AMS results must be properly referenced     *
 *   See the User Manuals (or the web site) for recommended citations          *
 *   The terms and conditions of the End User License Agreement apply to       *
 *   the use of AMS, https://www.scm.com/license-terms/                        *
 *                                                                             *
 **********************  x86_64_linux_intel / intelmpi  ************************
 
 Licensed to: Jong-June Jeon / University of Seoul 2026-06-02 13:44:15
 SCM User ID: u30731
  
 AMS 2026.103  RunTime: Jun04-2026 01:14:13  ShM Nodes: 1  Procs: 1

 AMS jobname: c2_fragB_ts
 AMS jobid  : 478078386

 Start   directory: /gpfs/home1/yeseo1ee/projects/eda-asm-prediction/ADF_800/adf_outputs/batch_005/qmrxn20_sn2_A_B_A_B_A_A/
 Results directory: /gpfs/home1/yeseo1ee/projects/eda-asm-prediction/ADF_800/adf_outputs/batch_005/qmrxn20_sn2_A_B_A_B_A_A/c2_fragB_ts.results/
 Scratch directory: /tmp/amstmp_c2_fragB_ts_kid0.478078386/

 RNG seed: 1874536161 -372305214 -2075044162 1125534275 1723977496 1710712903 1484905757 -348840213



                      ************************************************************************
                      *  ADF 2026.103  RunTime: Jun04-2026 01:14:13  ShM Nodes: 1  Procs: 1  *
                      ************************************************************************
  

       ****************************
       * SINGLE POINT CALCULATION *
       ****************************

--------
Geometry
--------
Formula: C2H3FN2O4
Atoms
  Index Symbol   x (angstrom)   y (angstrom)   z (angstrom)
      1      C     0.64798497    -0.12157016    -0.07451824
      2      H     1.82540517     1.50450456    -0.83629710
      3      F    -0.79868378    -0.29368912    -0.58548366
      4      C     0.92955241     1.34958264    -0.24722976
      5      H     1.16977634    -0.83963895    -0.68237526
      6      H     0.97187686     1.85105448     0.71251219
      7      N     0.43079006    -0.60953969     1.29919620
      8      O     0.02633844     0.19344617     2.14401080
      9      O     0.50919127    -1.82739472     1.47446406
     10      N    -0.18442096     2.03999930    -1.02349875
     11      O    -1.04659814     2.64428682    -0.38962562
     12      O    -0.12934958     1.97831067    -2.25156113

Total System Charge              0.00000


----------------
ADF Engine Input
----------------
 
   Basis
     Type TZ2P
     Core None
   End
   XC
     GGA BLYP
     Dispersion GRIMME3 BJDAMP
   End
   Symmetry NOSYM
   NumericalQuality Normal
   Unrestricted No
   SCF
     Iterations 200
     Converge 1.0e-6
   End
   Save TAPE21
 

 Title: *** (NO TITLE) ***

 *** adf ***



 ===========================
 A T T A C H E D   F I L E S
 ===========================
  



 ===============================
 M O D E L   P A R A M E T E R S
 ===============================
  
 DENSITY FUNCTIONAL POTENTIAL (scf)
    LDA:                               Exchange only                           == Not Default ==
    Gradient Corrections:              Becke88 LYP                             == Not Default ==

 SPIN  (restricted / unrestr.)
    Molecule:                          Restricted                               
    Fragments:                         Restricted                               

 OTHER ASPECTS
    Relativistic Corrections:          scalar (ZORA,MAPA)                       

    Nuclear Charge Density Model:      Point Charge Nuclei                      
    Core Treatment:                    Frozen Orbital(s)                        

    Hyperfine or Zeeman Interaction:   ---                                      

 Settings for Grimme D3 dispersion correction

      damping                        BJ
      s6                          1.000
      s8                          2.700
      a1                          0.430
      a2                          4.236

 Other (technical) parameters

      alpha                      14.000
      version                         4
 


 Fragment File(s)
 ----------------
 C:
         file : /gpfs/home1/yeseo1ee/projects/eda-asm-prediction/ADF_800/adf_outputs/batch_005/qmrxn20_sn2_A_B_A_B_A_A/c2_fragB_ts.results/t21.50BA88D5.C
         jobid: 0
         title: Carbon (TZ2P)
 H:
         file : /gpfs/home1/yeseo1ee/projects/eda-asm-prediction/ADF_800/adf_outputs/batch_005/qmrxn20_sn2_A_B_A_B_A_A/c2_fragB_ts.results/t21.6F35CCAB.H
         jobid: 0
         title: Hydrogen (TZ2P)
 F:
         file : /gpfs/home1/yeseo1ee/projects/eda-asm-prediction/ADF_800/adf_outputs/batch_005/qmrxn20_sn2_A_B_A_B_A_A/c2_fragB_ts.results/t21.CCE1280.F
         jobid: 0
         title: Fluorine (TZ2P)
 N:
         file : /gpfs/home1/yeseo1ee/projects/eda-asm-prediction/ADF_800/adf_outputs/batch_005/qmrxn20_sn2_A_B_A_B_A_A/c2_fragB_ts.results/t21.44EAA48D.N
         jobid: 0
         title: Nitrogen (TZ2P)
 O:
         file : /gpfs/home1/yeseo1ee/projects/eda-asm-prediction/ADF_800/adf_outputs/batch_005/qmrxn20_sn2_A_B_A_B_A_A/c2_fragB_ts.results/t21.6E90ABAE.O
         jobid: 0
         title: Oxygen (TZ2P)



 ===============
 G E O M E T R Y  ***  3D  Molecule  ***
 ===============
  

 ATOMS
 =====                            X Y Z                    CHARGE
                                (Angstrom)             Nucl     +Core       At.Mass
                       --------------------------    ----------------       -------
    1  C               0.6480   -0.1216   -0.0745      6.00      6.00       12.0000
    2  H               1.8254    1.5045   -0.8363      1.00      1.00        1.0078
    3  F              -0.7987   -0.2937   -0.5855      9.00      9.00       18.9984
    4  C               0.9296    1.3496   -0.2472      6.00      6.00       12.0000
    5  H               1.1698   -0.8396   -0.6824      1.00      1.00        1.0078
    6  H               0.9719    1.8511    0.7125      1.00      1.00        1.0078
    7  N               0.4308   -0.6095    1.2992      7.00      7.00       14.0031
    8  O               0.0263    0.1934    2.1440      8.00      8.00       15.9949
    9  O               0.5092   -1.8274    1.4745      8.00      8.00       15.9949
   10  N              -0.1844    2.0400   -1.0235      7.00      7.00       14.0031
   11  O              -1.0466    2.6443   -0.3896      8.00      8.00       15.9949
   12  O              -0.1293    1.9783   -2.2516      8.00      8.00       15.9949


 FRAGMENTS
 =========                                     Atoms in this Fragment     Cart. coord.s (Angstrom)
                                               -------------------------------------------------------
    1  C                                                 1  C            0.6480   -0.1216   -0.0745
    2  C                                                 4  C            0.9296    1.3496   -0.2472
    3  H                                                 2  H            1.8254    1.5045   -0.8363
    4  H                                                 5  H            1.1698   -0.8396   -0.6824
    5  H                                                 6  H            0.9719    1.8511    0.7125
    6  F                                                 3  F           -0.7987   -0.2937   -0.5855
    7  N                                                 7  N            0.4308   -0.6095    1.2992
    8  N                                                10  N           -0.1844    2.0400   -1.0235
    9  O                                                 8  O            0.0263    0.1934    2.1440
   10  O                                                 9  O            0.5092   -1.8274    1.4745
   11  O                                                11  O           -1.0466    2.6443   -0.3896
   12  O                                                12  O           -0.1293    1.9783   -2.2516


 Interatomic Distance Matrix (Angstrom)
 --------------------------------------

   1)     0.000
   2)     2.147   0.000
   3)     1.544   3.191   0.000
   4)     1.508   1.083   2.409   0.000
   5)     1.076   2.439   2.045   2.245   0.000
   6)     2.148   1.802   3.069   1.084   3.037   0.000
   7)     1.474   3.313   2.272   2.545   2.127   2.587   0.000
   8)     2.325   3.720   2.893   2.805   3.219   2.386   1.234   0.000
   9)     2.308   4.263   2.882   3.638   2.463   3.785   1.233   2.183   0.000
  10)     2.503   2.088   2.453   1.523   3.200   2.094   3.577   3.673   4.656   0.000
  11)     3.259   3.122   2.955   2.367   4.140   2.433   3.952   3.685   5.088   1.229
          0.000
  12)     3.123   2.459   2.896   2.352   3.477   3.165   4.429   4.747   5.364   1.231
          2.180   0.000

 Min. Distance =    1.0758
 Max. Distance =    5.3642



 =====================================
 S Y M M E T R Y ,   E L E C T R O N S
 =====================================
  
 Symmetry: NOSYM

 Irreducible Representations, including subspecies
 -------------------------------------------------
 A


 Configuration of Valence Electrons
 ==================================
 ( determined in the SCF procedure )

 Total:   70

 Net Charge: 0 (Nuclei minus Electrons)

 Aufbau principle for MO occupations will be applied through SCF cycle no.     100
 Thereafter, the program will assign electrons to MOs that are spatially
 similar to the occupied MOs in a "reference" cycle ("KeepOrbitals").
 The reference cycle is always the PREVIOUS cycle: it will evolve with
 the SCF procedure.
 ***************************************************************************************************



                                      ****************************************
                                      *  B U I L D : (Fragments, Functions)  *
                                      ****************************************
  



 =======
 S F O s  ***  (Symmetrized Fragment Orbitals)  ***
 =======
  
 SFOs are linear combinations of (valence) Fragment Orbitals (FOs), such that the SFOs transform as the
 irreducible representations of the (molecular) symmetry group. Each SFO is therefore characterized by
 an irrep of the molecule and by a few (or only one) generating FOs.
 The SFOs constitute a symmetry-adapted basis for the Fock matrix. The MO eigenvector coefficients in
 this basis provide a direct interpretation of the MOs in terms of Frontier Orbital Theory.

 The SFOs are combined with auxiliary Core Functions (CFs) to ensure orthogonalization on the (frozen)
 Core Orbitals (COs). The Core-orthogonalized SFOs (CSFOs) constitute the true Fock basis.

 The FOs, and hence also the (C)SFOs are combinations of the elementary basis functions (BAS). The basis
 functions that participate in the description of the SFOs depend on the irrep. The indices of the
 involved functions are printed below for each irrep.
 (The complete list of primitive basis functions is printed in another section)

 Total nr. of (C)SFOs (summation over all irreps) :   267

 NOTE: a (C)SFO that is defined as a combination of more than one FO is usually NOT normalized.



                                       === A ===
 Nr. of SFOs :  267
 Cartesian basis functions that participate in this irrep (total number =   306) :
      1     2     3     4     5     6     9    12     7    10
     13     8    11    14    15    16    17    18    19    20
     21    22    23    24    25    26    27    28    29    30
     31    32    33    34    35    36    39    42    37    40
     43    38    41    44    45    46    47    48    49    50
     51    52    53    54    55    56    57    58    59    60
     61    62    63    64    65    66    67    68    69    70
     71    72    73    74    75    76    77    78    79    80
     81    82    83    84    85    86    87    88    89    90
     91    92    93    94    95    96    97    98    99   100
    101   102   105   108   103   106   109   104   107   110
    111   112   113   114   115   116   117   118   119   120
    121   122   123   124   125   126   127   128   129   130
    131   132   135   138   133   136   139   134   137   140
    141   142   143   144   145   146   147   148   149   150
    151   152   153   154   155   156   157   158   159   160
    161   162   165   168   163   166   169   164   167   170
    171   172   173   174   175   176   177   178   179   180
    181   182   183   184   185   186   187   188   189   190
    191   192   195   198   193   196   199   194   197   200
    201   202   203   204   205   206   207   208   209   210
    211   212   213   214   215   216   217   218   219   220
    221   222   225   228   223   226   229   224   227   230
    231   232   233   234   235   236   237   238   239   240
    241   242   243   244   245   246   247   248   249   250
    251   252   255   258   253   256   259   254   257   260
    261   262   263   264   265   266   267   268   269   270
    271   272   273   274   275   276   277   278   279   280
    281   282   285   288   283   286   289   284   287   290
    291   292   293   294   295   296   297   298   299   300
    301   302   303   304   305   306

    SFO  (index         Fragment          Generating    Expansion in Fragment Orbitals
  indx  incl.CFs)   Occup   Orb.Energy   FragmentType  Coeff.   Orbital     on Fragment
 --------------------------------------------------------------------------------------
     1       1      2.000     -10.066 au  C             1.00      1 S               1
                        (    -273.921 eV)
     2       2      2.000      -0.501 au  C             1.00      2 S               1
                        (     -13.620 eV)
     3       3       --         0.373 au  C             1.00      3 S               1
                        (      10.158 eV)
     4       4       --         5.405 au  C             1.00      4 S               1
                        (     147.073 eV)
     5       5       --        49.848 au  C             1.00      5 S               1
                        (    1356.422 eV)
     6       6      0.667      -0.193 au  C             1.00      1 P:x             1
                        (      -5.239 eV)
     7       7       --         0.169 au  C             1.00      2 P:x             1
                        (       4.589 eV)
     8       8       --         2.013 au  C             1.00      3 P:x             1
                        (      54.789 eV)
     9       9      0.667      -0.193 au  C             1.00      1 P:y             1
                        (      -5.239 eV)
    10      10       --         0.169 au  C             1.00      2 P:y             1
                        (       4.589 eV)
    11      11       --         2.013 au  C             1.00      3 P:y             1
                        (      54.789 eV)
    12      12      0.667      -0.193 au  C             1.00      1 P:z             1
                        (      -5.239 eV)
    13      13       --         0.169 au  C             1.00      2 P:z             1
                        (       4.589 eV)
    14      14       --         2.013 au  C             1.00      3 P:z             1
                        (      54.789 eV)
    15      15       --         1.243 au  C             1.00      1 D:z2            1
                        (      33.824 eV)
    16      16       --         1.243 au  C             1.00      1 D:x2-y2         1
                        (      33.824 eV)
    17      17       --         1.243 au  C             1.00      1 D:xy            1
                        (      33.824 eV)
    18      18       --         1.243 au  C             1.00      1 D:xz            1
                        (      33.824 eV)
    19      19       --         1.243 au  C             1.00      1 D:yz            1
                        (      33.824 eV)
    20      20       --         4.016 au  C             1.00      1 F:z3            1
                        (     109.271 eV)
    21      21       --         4.016 au  C             1.00      1 F:z             1
                        (     109.271 eV)
    22      22       --         4.016 au  C             1.00      1 F:xyz           1
                        (     109.271 eV)
    23      23       --         4.016 au  C             1.00      1 F:z2x           1
                        (     109.271 eV)
    24      24       --         4.016 au  C             1.00      1 F:z2y           1
                        (     109.271 eV)
    25      25       --         4.016 au  C             1.00      1 F:x             1
                        (     109.271 eV)
    26      26       --         4.016 au  C             1.00      1 F:y             1
                        (     109.271 eV)
    27      27      2.000     -10.066 au  C             1.00      1 S               2
                        (    -273.921 eV)
    28      28      2.000      -0.501 au  C             1.00      2 S               2
                        (     -13.620 eV)
    29      29       --         0.373 au  C             1.00      3 S               2
                        (      10.158 eV)
    30      30       --         5.405 au  C             1.00      4 S               2
                        (     147.073 eV)
    31      31       --        49.848 au  C             1.00      5 S               2
                        (    1356.422 eV)
    32      32      0.667      -0.193 au  C             1.00      1 P:x             2
                        (      -5.239 eV)
    33      33       --         0.169 au  C             1.00      2 P:x             2
                        (       4.589 eV)
    34      34       --         2.013 au  C             1.00      3 P:x             2
                        (      54.789 eV)
    35      35      0.667      -0.193 au  C             1.00      1 P:y             2
                        (      -5.239 eV)
    36      36       --         0.169 au  C             1.00      2 P:y             2
                        (       4.589 eV)
    37      37       --         2.013 au  C             1.00      3 P:y             2
                        (      54.789 eV)
    38      38      0.667      -0.193 au  C             1.00      1 P:z             2
                        (      -5.239 eV)
    39      39       --         0.169 au  C             1.00      2 P:z             2
                        (       4.589 eV)
    40      40       --         2.013 au  C             1.00      3 P:z             2
                        (      54.789 eV)
    41      41       --         1.243 au  C             1.00      1 D:z2            2
                        (      33.824 eV)
    42      42       --         1.243 au  C             1.00      1 D:x2-y2         2
                        (      33.824 eV)
    43      43       --         1.243 au  C             1.00      1 D:xy            2
                        (      33.824 eV)
    44      44       --         1.243 au  C             1.00      1 D:xz            2
                        (      33.824 eV)
    45      45       --         1.243 au  C             1.00      1 D:yz            2
                        (      33.824 eV)
    46      46       --         4.016 au  C             1.00      1 F:z3            2
                        (     109.271 eV)
    47      47       --         4.016 au  C             1.00      1 F:z             2
                        (     109.271 eV)
    48      48       --         4.016 au  C             1.00      1 F:xyz           2
                        (     109.271 eV)
    49      49       --         4.016 au  C             1.00      1 F:z2x           2
                        (     109.271 eV)
    50      50       --         4.016 au  C             1.00      1 F:z2y           2
                        (     109.271 eV)
    51      51       --         4.016 au  C             1.00      1 F:x             2
                        (     109.271 eV)
    52      52       --         4.016 au  C             1.00      1 F:y             2
                        (     109.271 eV)
    53      53      1.000      -0.240 au  H             1.00      1 S               3
                        (      -6.532 eV)
    54      54       --         0.088 au  H             1.00      2 S               3
                        (       2.394 eV)
    55      55       --         1.502 au  H             1.00      3 S               3
                        (      40.869 eV)
    56      56       --         0.406 au  H             1.00      1 P:x             3
                        (      11.051 eV)
    57      57       --         0.406 au  H             1.00      1 P:y             3
                        (      11.051 eV)
    58      58       --         0.406 au  H             1.00      1 P:z             3
                        (      11.051 eV)
    59      59       --         2.569 au  H             1.00      1 D:z2            3
                        (      69.917 eV)
    60      60       --         2.569 au  H             1.00      1 D:x2-y2         3
                        (      69.917 eV)
    61      61       --         2.569 au  H             1.00      1 D:xy            3
                        (      69.917 eV)
    62      62       --         2.569 au  H             1.00      1 D:xz            3
                        (      69.917 eV)
    63      63       --         2.569 au  H             1.00      1 D:yz            3
                        (      69.917 eV)
    64      64      1.000      -0.240 au  H             1.00      1 S               4
                        (      -6.532 eV)
    65      65       --         0.088 au  H             1.00      2 S               4
                        (       2.394 eV)
    66      66       --         1.502 au  H             1.00      3 S               4
                        (      40.869 eV)
    67      67       --         0.406 au  H             1.00      1 P:x             4
                        (      11.051 eV)
    68      68       --         0.406 au  H             1.00      1 P:y             4
                        (      11.051 eV)
    69      69       --         0.406 au  H             1.00      1 P:z             4
                        (      11.051 eV)
    70      70       --         2.569 au  H             1.00      1 D:z2            4
                        (      69.917 eV)
    71      71       --         2.569 au  H             1.00      1 D:x2-y2         4
                        (      69.917 eV)
    72      72       --         2.569 au  H             1.00      1 D:xy            4
                        (      69.917 eV)
    73      73       --         2.569 au  H             1.00      1 D:xz            4
                        (      69.917 eV)
    74      74       --         2.569 au  H             1.00      1 D:yz            4
                        (      69.917 eV)
    75      75      1.000      -0.240 au  H             1.00      1 S               5
                        (      -6.532 eV)
    76      76       --         0.088 au  H             1.00      2 S               5
                        (       2.394 eV)
    77      77       --         1.502 au  H             1.00      3 S               5
                        (      40.869 eV)
    78      78       --         0.406 au  H             1.00      1 P:x             5
                        (      11.051 eV)
    79      79       --         0.406 au  H             1.00      1 P:y             5
                        (      11.051 eV)
    80      80       --         0.406 au  H             1.00      1 P:z             5
                        (      11.051 eV)
    81      81       --         2.569 au  H             1.00      1 D:z2            5
                        (      69.917 eV)
    82      82       --         2.569 au  H             1.00      1 D:x2-y2         5
                        (      69.917 eV)
    83      83       --         2.569 au  H             1.00      1 D:xy            5
                        (      69.917 eV)
    84      84       --         2.569 au  H             1.00      1 D:xz            5
                        (      69.917 eV)
    85      85       --         2.569 au  H             1.00      1 D:yz            5
                        (      69.917 eV)
    86      86      2.000     -24.402 au  F             1.00      1 S               6
                        (    -664.014 eV)
    87      87      2.000      -1.095 au  F             1.00      2 S               6
                        (     -29.785 eV)
    88      88       --         0.023 au  F             1.00      3 S               6
                        (       0.624 eV)
    89      89       --         1.576 au  F             1.00      4 S               6
                        (      42.880 eV)
    90      90       --        47.803 au  F             1.00      5 S               6
                        (    1300.785 eV)
    91      91      1.667      -0.409 au  F             1.00      1 P:x             6
                        (     -11.127 eV)
    92      92       --         0.428 au  F             1.00      2 P:x             6
                        (      11.654 eV)
    93      93       --         4.556 au  F             1.00      3 P:x             6
                        (     123.977 eV)
    94      94      1.667      -0.409 au  F             1.00      1 P:y             6
                        (     -11.127 eV)
    95      95       --         0.428 au  F             1.00      2 P:y             6
                        (      11.654 eV)
    96      96       --         4.556 au  F             1.00      3 P:y             6
                        (     123.977 eV)
    97      97      1.667      -0.409 au  F             1.00      1 P:z             6
                        (     -11.127 eV)
    98      98       --         0.428 au  F             1.00      2 P:z             6
                        (      11.654 eV)
    99      99       --         4.556 au  F             1.00      3 P:z             6
                        (     123.977 eV)
   100     100       --         1.117 au  F             1.00      1 D:z2            6
                        (      30.390 eV)
   101     101       --         1.117 au  F             1.00      1 D:x2-y2         6
                        (      30.390 eV)
   102     102       --         1.117 au  F             1.00      1 D:xy            6
                        (      30.390 eV)
   103     103       --         1.117 au  F             1.00      1 D:xz            6
                        (      30.390 eV)
   104     104       --         1.117 au  F             1.00      1 D:yz            6
                        (      30.390 eV)
   105     105       --         3.416 au  F             1.00      1 F:z3            6
                        (      92.949 eV)
   106     106       --         3.416 au  F             1.00      1 F:z             6
                        (      92.949 eV)
   107     107       --         3.416 au  F             1.00      1 F:xyz           6
                        (      92.949 eV)
   108     108       --         3.416 au  F             1.00      1 F:z2x           6
                        (      92.949 eV)
   109     109       --         3.416 au  F             1.00      1 F:z2y           6
                        (      92.949 eV)
   110     110       --         3.416 au  F             1.00      1 F:x             6
                        (      92.949 eV)
   111     111       --         3.416 au  F             1.00      1 F:y             6
                        (      92.949 eV)
   112     112      2.000     -14.160 au  N             1.00      1 S               7
                        (    -385.319 eV)
   113     113      2.000      -0.678 au  N             1.00      2 S               7
                        (     -18.450 eV)
   114     114       --         0.517 au  N             1.00      3 S               7
                        (      14.073 eV)
   115     115       --         6.872 au  N             1.00      4 S               7
                        (     186.990 eV)
   116     116       --        63.432 au  N             1.00      5 S               7
                        (    1726.082 eV)
   117     117      1.000      -0.260 au  N             1.00      1 P:x             7
                        (      -7.062 eV)
   118     118       --         0.281 au  N             1.00      2 P:x             7
                        (       7.649 eV)
   119     119       --         3.275 au  N             1.00      3 P:x             7
                        (      89.105 eV)
   120     120      1.000      -0.260 au  N             1.00      1 P:y             7
                        (      -7.062 eV)
   121     121       --         0.281 au  N             1.00      2 P:y             7
                        (       7.649 eV)
   122     122       --         3.275 au  N             1.00      3 P:y             7
                        (      89.105 eV)
   123     123      1.000      -0.260 au  N             1.00      1 P:z             7
                        (      -7.062 eV)
   124     124       --         0.281 au  N             1.00      2 P:z             7
                        (       7.649 eV)
   125     125       --         3.275 au  N             1.00      3 P:z             7
                        (      89.105 eV)
   126     126       --         1.250 au  N             1.00      1 D:z2            7
                        (      34.005 eV)
   127     127       --         1.250 au  N             1.00      1 D:x2-y2         7
                        (      34.005 eV)
   128     128       --         1.250 au  N             1.00      1 D:xy            7
                        (      34.005 eV)
   129     129       --         1.250 au  N             1.00      1 D:xz            7
                        (      34.005 eV)
   130     130       --         1.250 au  N             1.00      1 D:yz            7
                        (      34.005 eV)
   131     131       --         4.013 au  N             1.00      1 F:z3            7
                        (     109.190 eV)
   132     132       --         4.013 au  N             1.00      1 F:z             7
                        (     109.190 eV)
   133     133       --         4.013 au  N             1.00      1 F:xyz           7
                        (     109.190 eV)
   134     134       --         4.013 au  N             1.00      1 F:z2x           7
                        (     109.190 eV)
   135     135       --         4.013 au  N             1.00      1 F:z2y           7
                        (     109.190 eV)
   136     136       --         4.013 au  N             1.00      1 F:x             7
                        (     109.190 eV)
   137     137       --         4.013 au  N             1.00      1 F:y             7
                        (     109.190 eV)
   138     138      2.000     -14.160 au  N             1.00      1 S               8
                        (    -385.319 eV)
   139     139      2.000      -0.678 au  N             1.00      2 S               8
                        (     -18.450 eV)
   140     140       --         0.517 au  N             1.00      3 S               8
                        (      14.073 eV)
   141     141       --         6.872 au  N             1.00      4 S               8
                        (     186.990 eV)
   142     142       --        63.432 au  N             1.00      5 S               8
                        (    1726.082 eV)
   143     143      1.000      -0.260 au  N             1.00      1 P:x             8
                        (      -7.062 eV)
   144     144       --         0.281 au  N             1.00      2 P:x             8
                        (       7.649 eV)
   145     145       --         3.275 au  N             1.00      3 P:x             8
                        (      89.105 eV)
   146     146      1.000      -0.260 au  N             1.00      1 P:y             8
                        (      -7.062 eV)
   147     147       --         0.281 au  N             1.00      2 P:y             8
                        (       7.649 eV)
   148     148       --         3.275 au  N             1.00      3 P:y             8
                        (      89.105 eV)
   149     149      1.000      -0.260 au  N             1.00      1 P:z             8
                        (      -7.062 eV)
   150     150       --         0.281 au  N             1.00      2 P:z             8
                        (       7.649 eV)
   151     151       --         3.275 au  N             1.00      3 P:z             8
                        (      89.105 eV)
   152     152       --         1.250 au  N             1.00      1 D:z2            8
                        (      34.005 eV)
   153     153       --         1.250 au  N             1.00      1 D:x2-y2         8
                        (      34.005 eV)
   154     154       --         1.250 au  N             1.00      1 D:xy            8
                        (      34.005 eV)
   155     155       --         1.250 au  N             1.00      1 D:xz            8
                        (      34.005 eV)
   156     156       --         1.250 au  N             1.00      1 D:yz            8
                        (      34.005 eV)
   157     157       --         4.013 au  N             1.00      1 F:z3            8
                        (     109.190 eV)
   158     158       --         4.013 au  N             1.00      1 F:z             8
                        (     109.190 eV)
   159     159       --         4.013 au  N             1.00      1 F:xyz           8
                        (     109.190 eV)
   160     160       --         4.013 au  N             1.00      1 F:z2x           8
                        (     109.190 eV)
   161     161       --         4.013 au  N             1.00      1 F:z2y           8
                        (     109.190 eV)
   162     162       --         4.013 au  N             1.00      1 F:x             8
                        (     109.190 eV)
   163     163       --         4.013 au  N             1.00      1 F:y             8
                        (     109.190 eV)
   164     164      2.000     -18.941 au  O             1.00      1 S               9
                        (    -515.403 eV)
   165     165      2.000      -0.876 au  O             1.00      2 S               9
                        (     -23.838 eV)
   166     166       --         0.791 au  O             1.00      3 S               9
                        (      21.524 eV)
   167     167       --        13.422 au  O             1.00      4 S               9
                        (     365.226 eV)
   168     168       --       121.561 au  O             1.00      5 S               9
                        (    3307.838 eV)
   169     169      1.333      -0.331 au  O             1.00      1 P:x             9
                        (      -9.020 eV)
   170     170       --         0.347 au  O             1.00      2 P:x             9
                        (       9.437 eV)
   171     171       --         3.820 au  O             1.00      3 P:x             9
                        (     103.939 eV)
   172     172      1.333      -0.331 au  O             1.00      1 P:y             9
                        (      -9.020 eV)
   173     173       --         0.347 au  O             1.00      2 P:y             9
                        (       9.437 eV)
   174     174       --         3.820 au  O             1.00      3 P:y             9
                        (     103.939 eV)
   175     175      1.333      -0.331 au  O             1.00      1 P:z             9
                        (      -9.020 eV)
   176     176       --         0.347 au  O             1.00      2 P:z             9
                        (       9.437 eV)
   177     177       --         3.820 au  O             1.00      3 P:z             9
                        (     103.939 eV)
   178     178       --         1.071 au  O             1.00      1 D:z2            9
                        (      29.134 eV)
   179     179       --         1.071 au  O             1.00      1 D:x2-y2         9
                        (      29.134 eV)
   180     180       --         1.071 au  O             1.00      1 D:xy            9
                        (      29.134 eV)
   181     181       --         1.071 au  O             1.00      1 D:xz            9
                        (      29.134 eV)
   182     182       --         1.071 au  O             1.00      1 D:yz            9
                        (      29.134 eV)
   183     183       --         3.359 au  O             1.00      1 F:z3            9
                        (      91.410 eV)
   184     184       --         3.359 au  O             1.00      1 F:z             9
                        (      91.410 eV)
   185     185       --         3.359 au  O             1.00      1 F:xyz           9
                        (      91.410 eV)
   186     186       --         3.359 au  O             1.00      1 F:z2x           9
                        (      91.410 eV)
   187     187       --         3.359 au  O             1.00      1 F:z2y           9
                        (      91.410 eV)
   188     188       --         3.359 au  O             1.00      1 F:x             9
                        (      91.410 eV)
   189     189       --         3.359 au  O             1.00      1 F:y             9
                        (      91.410 eV)
   190     190      2.000     -18.941 au  O             1.00      1 S              10
                        (    -515.403 eV)
   191     191      2.000      -0.876 au  O             1.00      2 S              10
                        (     -23.838 eV)
   192     192       --         0.791 au  O             1.00      3 S              10
                        (      21.524 eV)
   193     193       --        13.422 au  O             1.00      4 S              10
                        (     365.226 eV)
   194     194       --       121.561 au  O             1.00      5 S              10
                        (    3307.838 eV)
   195     195      1.333      -0.331 au  O             1.00      1 P:x            10
                        (      -9.020 eV)
   196     196       --         0.347 au  O             1.00      2 P:x            10
                        (       9.437 eV)
   197     197       --         3.820 au  O             1.00      3 P:x            10
                        (     103.939 eV)
   198     198      1.333      -0.331 au  O             1.00      1 P:y            10
                        (      -9.020 eV)
   199     199       --         0.347 au  O             1.00      2 P:y            10
                        (       9.437 eV)
   200     200       --         3.820 au  O             1.00      3 P:y            10
                        (     103.939 eV)
   201     201      1.333      -0.331 au  O             1.00      1 P:z            10
                        (      -9.020 eV)
   202     202       --         0.347 au  O             1.00      2 P:z            10
                        (       9.437 eV)
   203     203       --         3.820 au  O             1.00      3 P:z            10
                        (     103.939 eV)
   204     204       --         1.071 au  O             1.00      1 D:z2           10
                        (      29.134 eV)
   205     205       --         1.071 au  O             1.00      1 D:x2-y2        10
                        (      29.134 eV)
   206     206       --         1.071 au  O             1.00      1 D:xy           10
                        (      29.134 eV)
   207     207       --         1.071 au  O             1.00      1 D:xz           10
                        (      29.134 eV)
   208     208       --         1.071 au  O             1.00      1 D:yz           10
                        (      29.134 eV)
   209     209       --         3.359 au  O             1.00      1 F:z3           10
                        (      91.410 eV)
   210     210       --         3.359 au  O             1.00      1 F:z            10
                        (      91.410 eV)
   211     211       --         3.359 au  O             1.00      1 F:xyz          10
                        (      91.410 eV)
   212     212       --         3.359 au  O             1.00      1 F:z2x          10
                        (      91.410 eV)
   213     213       --         3.359 au  O             1.00      1 F:z2y          10
                        (      91.410 eV)
   214     214       --         3.359 au  O             1.00      1 F:x            10
                        (      91.410 eV)
   215     215       --         3.359 au  O             1.00      1 F:y            10
                        (      91.410 eV)
   216     216      2.000     -18.941 au  O             1.00      1 S              11
                        (    -515.403 eV)
   217     217      2.000      -0.876 au  O             1.00      2 S              11
                        (     -23.838 eV)
   218     218       --         0.791 au  O             1.00      3 S              11
                        (      21.524 eV)
   219     219       --        13.422 au  O             1.00      4 S              11
                        (     365.226 eV)
   220     220       --       121.561 au  O             1.00      5 S              11
                        (    3307.838 eV)
   221     221      1.333      -0.331 au  O             1.00      1 P:x            11
                        (      -9.020 eV)
   222     222       --         0.347 au  O             1.00      2 P:x            11
                        (       9.437 eV)
   223     223       --         3.820 au  O             1.00      3 P:x            11
                        (     103.939 eV)
   224     224      1.333      -0.331 au  O             1.00      1 P:y            11
                        (      -9.020 eV)
   225     225       --         0.347 au  O             1.00      2 P:y            11
                        (       9.437 eV)
   226     226       --         3.820 au  O             1.00      3 P:y            11
                        (     103.939 eV)
   227     227      1.333      -0.331 au  O             1.00      1 P:z            11
                        (      -9.020 eV)
   228     228       --         0.347 au  O             1.00      2 P:z            11
                        (       9.437 eV)
   229     229       --         3.820 au  O             1.00      3 P:z            11
                        (     103.939 eV)
   230     230       --         1.071 au  O             1.00      1 D:z2           11
                        (      29.134 eV)
   231     231       --         1.071 au  O             1.00      1 D:x2-y2        11
                        (      29.134 eV)
   232     232       --         1.071 au  O             1.00      1 D:xy           11
                        (      29.134 eV)
   233     233       --         1.071 au  O             1.00      1 D:xz           11
                        (      29.134 eV)
   234     234       --         1.071 au  O             1.00      1 D:yz           11
                        (      29.134 eV)
   235     235       --         3.359 au  O             1.00      1 F:z3           11
                        (      91.410 eV)
   236     236       --         3.359 au  O             1.00      1 F:z            11
                        (      91.410 eV)
   237     237       --         3.359 au  O             1.00      1 F:xyz          11
                        (      91.410 eV)
   238     238       --         3.359 au  O             1.00      1 F:z2x          11
                        (      91.410 eV)
   239     239       --         3.359 au  O             1.00      1 F:z2y          11
                        (      91.410 eV)
   240     240       --         3.359 au  O             1.00      1 F:x            11
                        (      91.410 eV)
   241     241       --         3.359 au  O             1.00      1 F:y            11
                        (      91.410 eV)
   242     242      2.000     -18.941 au  O             1.00      1 S              12
                        (    -515.403 eV)
   243     243      2.000      -0.876 au  O             1.00      2 S              12
                        (     -23.838 eV)
   244     244       --         0.791 au  O             1.00      3 S              12
                        (      21.524 eV)
   245     245       --        13.422 au  O             1.00      4 S              12
                        (     365.226 eV)
   246     246       --       121.561 au  O             1.00      5 S              12
                        (    3307.838 eV)
   247     247      1.333      -0.331 au  O             1.00      1 P:x            12
                        (      -9.020 eV)
   248     248       --         0.347 au  O             1.00      2 P:x            12
                        (       9.437 eV)
   249     249       --         3.820 au  O             1.00      3 P:x            12
                        (     103.939 eV)
   250     250      1.333      -0.331 au  O             1.00      1 P:y            12
                        (      -9.020 eV)
   251     251       --         0.347 au  O             1.00      2 P:y            12
                        (       9.437 eV)
   252     252       --         3.820 au  O             1.00      3 P:y            12
                        (     103.939 eV)
   253     253      1.333      -0.331 au  O             1.00      1 P:z            12
                        (      -9.020 eV)
   254     254       --         0.347 au  O             1.00      2 P:z            12
                        (       9.437 eV)
   255     255       --         3.820 au  O             1.00      3 P:z            12
                        (     103.939 eV)
   256     256       --         1.071 au  O             1.00      1 D:z2           12
                        (      29.134 eV)
   257     257       --         1.071 au  O             1.00      1 D:x2-y2        12
                        (      29.134 eV)
   258     258       --         1.071 au  O             1.00      1 D:xy           12
                        (      29.134 eV)
   259     259       --         1.071 au  O             1.00      1 D:xz           12
                        (      29.134 eV)
   260     260       --         1.071 au  O             1.00      1 D:yz           12
                        (      29.134 eV)
   261     261       --         3.359 au  O             1.00      1 F:z3           12
                        (      91.410 eV)
   262     262       --         3.359 au  O             1.00      1 F:z            12
                        (      91.410 eV)
   263     263       --         3.359 au  O             1.00      1 F:xyz          12
                        (      91.410 eV)
   264     264       --         3.359 au  O             1.00      1 F:z2x          12
                        (      91.410 eV)
   265     265       --         3.359 au  O             1.00      1 F:z2y          12
                        (      91.410 eV)
   266     266       --         3.359 au  O             1.00      1 F:x            12
                        (      91.410 eV)
   267     267       --         3.359 au  O             1.00      1 F:y            12
                        (      91.410 eV)



 ================================
 (Slater-type)  F U N C T I O N S  ***  (Basis and Fit)  ***
 ================================
  

 Atom Type    1  (C)
 ==============

 Valence Basis Sets:  10
 -----------------------
   1 S    7.680000
   1 S    5.000000
   2 S    1.280000
   2 S    2.100000
   2 S    4.600000
   2 P    0.820000
   2 P    1.480000
   2 P    2.940000
   3 D    2.200000
   4 F    3.300000

 Atom Type    2  (H)
 ==============

 Valence Basis Sets:   5
 -----------------------
   1 S    0.690000
   1 S    0.920000
   1 S    1.580000
   2 P    1.250000
   3 D    2.500000

 Atom Type    3  (F)
 ==============

 Valence Basis Sets:  10
 -----------------------
   1 S   10.880000
   1 S    7.700000
   2 S    3.240000
   2 S    1.940000
   2 S    0.740000
   2 P    4.540000
   2 P    2.300000
   2 P    1.240000
   3 D    2.000000
   4 F    3.000000

 Atom Type    4  (N)
 ==============

 Valence Basis Sets:  10
 -----------------------
   1 S    8.740000
   1 S    5.900000
   2 S    5.150000
   2 S    2.500000
   2 S    1.500000
   2 P    3.680000
   2 P    1.880000
   2 P    1.000000
   3 D    2.200000
   4 F    3.300000

 Atom Type    5  (O)
 ==============

 Valence Basis Sets:  10
 -----------------------
   1 S    9.800000
   1 S    6.800000
   2 S    7.580000
   2 S    2.880000
   2 S    1.720000
   2 P    4.080000
   2 P    2.080000
   2 P    1.120000
   3 D    2.000000
   4 F    3.000000


 BAS: List of all Elementary Cartesian Basis Functions
 =====================================================

 The numbering in the list below (to the right of the function characteristics) is referred
 to in print-outs of MO eigenvectors and Mulliken populations in the BAS representation
 (as contrasted to the SFO representation).

 Notes:
 1. The functions are characterized by a polynomial prefactor (powers of x,y,z and r) and
    an exponential decay factor alpha.
 2. Since the basis sets are specific for an atom TYPE, the individual functions occur on
    all atoms of that type.
 3. The word 'Core' in the left margin signals that it is a Core Function (CF) : not a
    degree of freedom in the valence set, but only used to ensure orthogonalization of
    the other valence basis functions on the frozen Core Orbitals.


 (power of) X  Y  Z  R     Alpha  on Atom
            ==========     =====     ==========

 C                                    1    2
                                  ---------------------------------------------------------------------------
            0  0  0  0     7.680      1   31
            0  0  0  0     5.000      2   32
            0  0  0  1     1.280      3   33
            0  0  0  1     2.100      4   34
            0  0  0  1     4.600      5   35
            1  0  0  0     0.820      6   36
            0  1  0  0     0.820      7   37
            0  0  1  0     0.820      8   38
            1  0  0  0     1.480      9   39
            0  1  0  0     1.480     10   40
            0  0  1  0     1.480     11   41
            1  0  0  0     2.940     12   42
            0  1  0  0     2.940     13   43
            0  0  1  0     2.940     14   44
            2  0  0  0     2.200     15   45
            1  1  0  0     2.200     16   46
            1  0  1  0     2.200     17   47
            0  2  0  0     2.200     18   48
            0  1  1  0     2.200     19   49
            0  0  2  0     2.200     20   50
            3  0  0  0     3.300     21   51
            2  1  0  0     3.300     22   52
            2  0  1  0     3.300     23   53
            1  2  0  0     3.300     24   54
            1  1  1  0     3.300     25   55
            1  0  2  0     3.300     26   56
            0  3  0  0     3.300     27   57
            0  2  1  0     3.300     28   58
            0  1  2  0     3.300     29   59
            0  0  3  0     3.300     30   60

 H                                    3    4    5
                                  ---------------------------------------------------------------------------
            0  0  0  0     0.690     61   73   85
            0  0  0  0     0.920     62   74   86
            0  0  0  0     1.580     63   75   87
            1  0  0  0     1.250     64   76   88
            0  1  0  0     1.250     65   77   89
            0  0  1  0     1.250     66   78   90
            2  0  0  0     2.500     67   79   91
            1  1  0  0     2.500     68   80   92
            1  0  1  0     2.500     69   81   93
            0  2  0  0     2.500     70   82   94
            0  1  1  0     2.500     71   83   95
            0  0  2  0     2.500     72   84   96

 F                                    6
                                  ---------------------------------------------------------------------------
            0  0  0  0    10.880     97
            0  0  0  0     7.700     98
            0  0  0  1     3.240     99
            0  0  0  1     1.940    100
            0  0  0  1     0.740    101
            1  0  0  0     4.540    102
            0  1  0  0     4.540    103
            0  0  1  0     4.540    104
            1  0  0  0     2.300    105
            0  1  0  0     2.300    106
            0  0  1  0     2.300    107
            1  0  0  0     1.240    108
            0  1  0  0     1.240    109
            0  0  1  0     1.240    110
            2  0  0  0     2.000    111
            1  1  0  0     2.000    112
            1  0  1  0     2.000    113
            0  2  0  0     2.000    114
            0  1  1  0     2.000    115
            0  0  2  0     2.000    116
            3  0  0  0     3.000    117
            2  1  0  0     3.000    118
            2  0  1  0     3.000    119
            1  2  0  0     3.000    120
            1  1  1  0     3.000    121
            1  0  2  0     3.000    122
            0  3  0  0     3.000    123
            0  2  1  0     3.000    124
            0  1  2  0     3.000    125
            0  0  3  0     3.000    126

 N                                    7    8
                                  ---------------------------------------------------------------------------
            0  0  0  0     8.740    127  157
            0  0  0  0     5.900    128  158
            0  0  0  1     5.150    129  159
            0  0  0  1     2.500    130  160
            0  0  0  1     1.500    131  161
            1  0  0  0     3.680    132  162
            0  1  0  0     3.680    133  163
            0  0  1  0     3.680    134  164
            1  0  0  0     1.880    135  165
            0  1  0  0     1.880    136  166
            0  0  1  0     1.880    137  167
            1  0  0  0     1.000    138  168
            0  1  0  0     1.000    139  169
            0  0  1  0     1.000    140  170
            2  0  0  0     2.200    141  171
            1  1  0  0     2.200    142  172
            1  0  1  0     2.200    143  173
            0  2  0  0     2.200    144  174
            0  1  1  0     2.200    145  175
            0  0  2  0     2.200    146  176
            3  0  0  0     3.300    147  177
            2  1  0  0     3.300    148  178
            2  0  1  0     3.300    149  179
            1  2  0  0     3.300    150  180
            1  1  1  0     3.300    151  181
            1  0  2  0     3.300    152  182
            0  3  0  0     3.300    153  183
            0  2  1  0     3.300    154  184
            0  1  2  0     3.300    155  185
            0  0  3  0     3.300    156  186

 O                                    9   10   11   12
                                  ---------------------------------------------------------------------------
            0  0  0  0     9.800    187  217  247  277
            0  0  0  0     6.800    188  218  248  278
            0  0  0  1     7.580    189  219  249  279
            0  0  0  1     2.880    190  220  250  280
            0  0  0  1     1.720    191  221  251  281
            1  0  0  0     4.080    192  222  252  282
            0  1  0  0     4.080    193  223  253  283
            0  0  1  0     4.080    194  224  254  284
            1  0  0  0     2.080    195  225  255  285
            0  1  0  0     2.080    196  226  256  286
            0  0  1  0     2.080    197  227  257  287
            1  0  0  0     1.120    198  228  258  288
            0  1  0  0     1.120    199  229  259  289
            0  0  1  0     1.120    200  230  260  290
            2  0  0  0     2.000    201  231  261  291
            1  1  0  0     2.000    202  232  262  292
            1  0  1  0     2.000    203  233  263  293
            0  2  0  0     2.000    204  234  264  294
            0  1  1  0     2.000    205  235  265  295
            0  0  2  0     2.000    206  236  266  296
            3  0  0  0     3.000    207  237  267  297
            2  1  0  0     3.000    208  238  268  298
            2  0  1  0     3.000    209  239  269  299
            1  2  0  0     3.000    210  240  270  300
            1  1  1  0     3.000    211  241  271  301
            1  0  2  0     3.000    212  242  272  302
            0  3  0  0     3.000    213  243  273  303
            0  2  1  0     3.000    214  244  274  304
            0  1  2  0     3.000    215  245  275  305
            0  0  3  0     3.000    216  246  276  306

 Total number of charge fitting functions (nprimf)       907
 Total number of Cartesian basis functions (naos)        306
 Total number of Cartesian core functions  (ncos)          0

 ***************************************************************************************************



                                              ***********************
                                              *  T E C H N I C A L  *
                                              ***********************
  



 =============================================================
 P A R A L L E L I Z A T I O N  and  V E C T O R I Z A T I O N
 =============================================================
  
 Nr of parallel processes:                                1
 Maximum vector length in NumInt loops:                 128



 =====================
 S C F   U P D A T E S
 =====================
  
 Max. nr. of cycles:                               200
 Convergence criterion:                              0.0000010000
   secondary criterion:                              0.0010000000

 Mix parameter (when DIIS does not apply):           0.2000000000
 Mixed ADIIS+SDIIS will be used                  
    Max number of expansion vectors:                10
    Pure ADIIS when Max([F,P]) is above              0.1000000000
    Pure SDIIS when Max([F,P]) is below              0.0010000000
 Automatic ElectronSmearing (in case of problematic SCF convergence) disabled



 =================
 P R E C I S I O N  ***  (General: NumInt, NeglectFunctionTails, ...)  ***
 =================
  

 NumInt:           Target precision:                 4.0000000000
 -------           Initial precision:                4.0000000000
                   Min. precision (optimization):    4.0000000000

 Neglect Functions:          Basis functions:        0.1000000000E-05
 ------------------          Fit functions:          0.1000000000E-05



 ===========================
 L I N E A R   S C A L I N G
 ===========================
  

 Cut-off radii density fit:                        0.1000000000E-07
 Overlap cut-off criterion AO matrix elements:     0.1000000000E-05
 Cut-offs for Coulomb potential and fitted density:0.1000000000E-07
 Cut-off criterion for Coulomb multipole terms:    0.1000000000E-07
 Progressive Convergence parameter:                 0.000000000    
 ***************************************************************************************************



                                            ***************************
                                            *  C O M P U T A T I O N  *
                                            ***************************
  

 Number of elements of the density matrix on this node (used, total):     46971     46971



 ===========================================
 Numerical Integration : Fuzzy Cells (Becke)
 ===========================================
  
 Becke grid quality: NORMAL         
  
 Lebedev angular grid order:             min:  11 max:  23
 Nr. of radial points:                   min:  46 max:  55

 Total nr. of points:      80411
 Nr. of blocks:              629
 Block length:               128
 Nr. of dummy points:        101


 Test of Precision of the Numerical Integration Grid
 ===================================================

 Integral of the Total Core Density:                   0.00000000000000



 ========================
 Density Fitting (zlmFit)
 ========================
  
 ZlmFit Fit Quality: NORMAL         
  
 Max L-expansion:                        min:   6 max:   7
 Nr. of radial interpolation points:     min:  39 max:  54



 =====
 S C F  ***  ScaSCF  ***
 =====
  
 Initial density matrix is calculated as sum of fragments

 CYCLE    1
 SCF Error: norm([F,P])=      6.756912934934, max([F,P])=      1.293741972562
 orbitals (Q,E):
 ---------------
 A :26...45          ( 2.00    -0.5071)  ( 2.00    -0.4933)  ( 2.00    -0.4443)  ( 2.00    -0.4333)
                     ( 2.00    -0.3901)  ( 2.00    -0.3897)  ( 2.00    -0.3871)  ( 2.00    -0.3810)
                     ( 2.00    -0.3727)  ( 2.00    -0.3715)  ( 0.00    -0.2097)  ( 0.00    -0.1862)
                     ( 0.00    -0.1123)  ( 0.00    -0.0385)  ( 0.00    -0.0241)  ( 0.00    -0.0033)
                     ( 0.00     0.0008)  ( 0.00     0.0396)  ( 0.00     0.0443)  ( 0.00     0.0594)

 CYCLE    2
   MIX coefficients:  0.8000  0.2000
 SCF Error: norm([F,P])=      1.305166804468, max([F,P])=      0.229208380030
 orbitals (Q,E):
 ---------------
 A :26...36          ( 2.00    -0.4888)  ( 2.00    -0.4746)  ( 2.00    -0.4171)  ( 2.00    -0.4066)
                     ( 2.00    -0.3548)  ( 2.00    -0.3536)  ( 2.00    -0.3496)  ( 2.00    -0.3468)
                     ( 2.00    -0.3332)  ( 2.00    -0.3278)  ( 0.00    -0.2013)

 CYCLE    3
  SDIIS (wt  0.000): -0.3987  1.3987
 A-DIIS (wt  1.000):  0.0000  1.0000
  DIIS coefficients:  0.0000  1.0000
 SCF Error: norm([F,P])=      0.450574521559, max([F,P])=      0.061243893200
 orbitals (Q,E):
 ---------------
 A :26...36          ( 2.00    -0.4032)  ( 2.00    -0.3963)  ( 2.00    -0.3419)  ( 2.00    -0.3274)
                     ( 2.00    -0.2832)  ( 2.00    -0.2754)  ( 2.00    -0.2605)  ( 2.00    -0.2535)
                     ( 2.00    -0.2426)  ( 2.00    -0.2240)  ( 0.00    -0.1506)

 CYCLE    4
  SDIIS (wt  0.000):  0.4159 -0.0375  0.6216
 A-DIIS (wt  1.000):  0.0000  0.7200  0.2800
  DIIS coefficients:  0.0000  0.7200  0.2800
 SCF Error: norm([F,P])=      0.852343313724, max([F,P])=      0.142488460650
 orbitals (Q,E):
 ---------------
 A :26...36          ( 2.00    -0.4184)  ( 2.00    -0.4115)  ( 2.00    -0.3649)  ( 2.00    -0.3495)
                     ( 2.00    -0.3116)  ( 2.00    -0.2983)  ( 2.00    -0.2936)  ( 2.00    -0.2832)
                     ( 2.00    -0.2725)  ( 2.00    -0.2587)  ( 0.00    -0.1605)

 CYCLE    5
  SDIIS (wt  0.659): -0.1416  0.4824 -0.0294  0.6885
 A-DIIS (wt  0.341):  0.0000  0.0000  0.0000  1.0000
  DIIS coefficients: -0.0933  0.3179 -0.0193  0.7947
 SCF Error: norm([F,P])=      0.145743141786, max([F,P])=      0.034756922028
 orbitals (Q,E):
 ---------------
 A :26...36          ( 2.00    -0.4435)  ( 2.00    -0.4367)  ( 2.00    -0.3779)  ( 2.00    -0.3650)
                     ( 2.00    -0.3247)  ( 2.00    -0.3144)  ( 2.00    -0.3091)  ( 2.00    -0.3007)
                     ( 2.00    -0.2899)  ( 2.00    -0.2759)  ( 0.00    -0.1776)

 CYCLE    6
  SDIIS (wt  0.758): -0.0499  0.1801 -0.0244  0.4843  0.4100
 A-DIIS (wt  0.242):  0.0000  0.0000  0.0000  0.3294  0.6706
  DIIS coefficients: -0.0378  0.1365 -0.0185  0.4468  0.4731
 SCF Error: norm([F,P])=      0.100680885987, max([F,P])=      0.024975385278
 orbitals (Q,E):
 ---------------
 A :26...36          ( 2.00    -0.4351)  ( 2.00    -0.4282)  ( 2.00    -0.3764)  ( 2.00    -0.3623)
                     ( 2.00    -0.3213)  ( 2.00    -0.3103)  ( 2.00    -0.3066)  ( 2.00    -0.2968)
                     ( 2.00    -0.2853)  ( 2.00    -0.2732)  ( 0.00    -0.1721)

 CYCLE    7
  SDIIS (wt  0.834): -0.0031  0.0682  0.0088  0.3065  0.3803  0.2394
 A-DIIS (wt  0.166):  0.0000  0.0000  0.0000  0.0000  0.2839  0.7161
  DIIS coefficients: -0.0026  0.0568  0.0073  0.2555  0.3642  0.3188
 SCF Error: norm([F,P])=      0.066481396616, max([F,P])=      0.017477781519
 orbitals (Q,E):
 ---------------
 A :26...36          ( 2.00    -0.4345)  ( 2.00    -0.4281)  ( 2.00    -0.3748)  ( 2.00    -0.3609)
                     ( 2.00    -0.3208)  ( 2.00    -0.3095)  ( 2.00    -0.3053)  ( 2.00    -0.2954)
                     ( 2.00    -0.2853)  ( 2.00    -0.2718)  ( 0.00    -0.1717)

 CYCLE    8
  SDIIS (wt  0.870):  0.0020  0.0275  0.0081  0.1620  0.2512  0.3026  0.2465
 A-DIIS (wt  0.130):  0.0000  0.0000  0.0000  0.0000  0.0000  0.3822  0.6178
  DIIS coefficients:  0.0018  0.0239  0.0071  0.1410  0.2186  0.3129  0.2947
 SCF Error: norm([F,P])=      0.045730775543, max([F,P])=      0.013831258682
 orbitals (Q,E):
 ---------------
 A :26...36          ( 2.00    -0.4354)  ( 2.00    -0.4289)  ( 2.00    -0.3745)  ( 2.00    -0.3608)
                     ( 2.00    -0.3209)  ( 2.00    -0.3098)  ( 2.00    -0.3052)  ( 2.00    -0.2959)
                     ( 2.00    -0.2852)  ( 2.00    -0.2719)  ( 0.00    -0.1719)

 CYCLE    9
  SDIIS (wt  0.985): -0.0027  0.0157 -0.0004  0.0765  0.1216  0.2046  0.2300  0.3547
 A-DIIS (wt  0.015):  0.0000  0.0000  0.0000  0.0000  0.0000  0.0000  0.0400  0.9600
  DIIS coefficients: -0.0026  0.0155 -0.0004  0.0754  0.1199  0.2016  0.2272  0.3635
 SCF Error: norm([F,P])=      0.009384225100, max([F,P])=      0.002446137885
 orbitals (Q,E):
 ---------------
 A :26...36          ( 2.00    -0.4353)  ( 2.00    -0.4288)  ( 2.00    -0.3750)  ( 2.00    -0.3612)
                     ( 2.00    -0.3209)  ( 2.00    -0.3097)  ( 2.00    -0.3053)  ( 2.00    -0.2959)
                     ( 2.00    -0.2853)  ( 2.00    -0.2720)  ( 0.00    -0.1719)

 CYCLE   10
  SDIIS (wt  1.000): -0.0020  0.0082 -0.0010  0.0393  0.0665  0.1355  0.1697  0.3413  0.2425
  DIIS coefficients: -0.0020  0.0082 -0.0010  0.0393  0.0665  0.1355  0.1697  0.3413  0.2425
 SCF Error: norm([F,P])=      0.004622725120, max([F,P])=      0.000961740464
 orbitals (Q,E):
 ---------------
 A :26...36          ( 2.00    -0.4353)  ( 2.00    -0.4288)  ( 2.00    -0.3751)  ( 2.00    -0.3613)
                     ( 2.00    -0.3209)  ( 2.00    -0.3098)  ( 2.00    -0.3054)  ( 2.00    -0.2960)
                     ( 2.00    -0.2853)  ( 2.00    -0.2721)  ( 0.00    -0.1720)

 CYCLE   11
  SDIIS (wt  1.000): -0.0003  0.0027  0.0001  0.0164  0.0308  0.0691  0.0900  0.1982  0.1894  0.4036
  DIIS coefficients: -0.0003  0.0027  0.0001  0.0164  0.0308  0.0691  0.0900  0.1982  0.1894  0.4036
 SCF Error: norm([F,P])=      0.001060137771, max([F,P])=      0.000269665712
 orbitals (Q,E):
 ---------------
 A :26...36          ( 2.00    -0.4353)  ( 2.00    -0.4288)  ( 2.00    -0.3750)  ( 2.00    -0.3612)
                     ( 2.00    -0.3209)  ( 2.00    -0.3098)  ( 2.00    -0.3054)  ( 2.00    -0.2960)
                     ( 2.00    -0.2854)  ( 2.00    -0.2721)  ( 0.00    -0.1720)

 CYCLE   12
  SDIIS (wt  1.000):  0.0003  0.0001  0.0020  0.0048  0.0131  0.0185  0.0478  0.0597  0.2260  0.6276
  DIIS coefficients:  0.0003  0.0001  0.0020  0.0048  0.0131  0.0185  0.0478  0.0597  0.2260  0.6276
 SCF Error: norm([F,P])=      0.000237901221, max([F,P])=      0.000043581120
 orbitals (Q,E):
 ---------------
 A :26...36          ( 2.00    -0.4353)  ( 2.00    -0.4288)  ( 2.00    -0.3750)  ( 2.00    -0.3612)
                     ( 2.00    -0.3209)  ( 2.00    -0.3098)  ( 2.00    -0.3054)  ( 2.00    -0.2960)
                     ( 2.00    -0.2853)  ( 2.00    -0.2721)  ( 0.00    -0.1720)

 CYCLE   13
  SDIIS (wt  1.000):  0.0000  0.0001  0.0006  0.0025  0.0038  0.0120  0.0173  0.0881  0.3019  0.5736
  DIIS coefficients:  0.0000  0.0001  0.0006  0.0025  0.0038  0.0120  0.0173  0.0881  0.3019  0.5736
 SCF Error: norm([F,P])=      0.000051792035, max([F,P])=      0.000009956624
 orbitals (Q,E):
 ---------------
 A :26...36          ( 2.00    -0.4353)  ( 2.00    -0.4288)  ( 2.00    -0.3750)  ( 2.00    -0.3612)
                     ( 2.00    -0.3209)  ( 2.00    -0.3098)  ( 2.00    -0.3054)  ( 2.00    -0.2960)
                     ( 2.00    -0.2853)  ( 2.00    -0.2721)  ( 0.00    -0.1720)

 CYCLE   14
  SDIIS (wt  1.000):  0.0001  0.0002  0.0004  0.0005  0.0019  0.0023  0.0130  0.0576  0.2317  0.6924
  DIIS coefficients:  0.0001  0.0002  0.0004  0.0005  0.0019  0.0023  0.0130  0.0576  0.2317  0.6924
 SCF Error: norm([F,P])=      0.000014792143, max([F,P])=      0.000004290590
 orbitals (Q,E):
 ---------------
 A :26...36          ( 2.00    -0.4353)  ( 2.00    -0.4288)  ( 2.00    -0.3750)  ( 2.00    -0.3612)
                     ( 2.00    -0.3209)  ( 2.00    -0.3098)  ( 2.00    -0.3054)  ( 2.00    -0.2960)
                     ( 2.00    -0.2853)  ( 2.00    -0.2721)  ( 0.00    -0.1720)

 CYCLE   15
  SDIIS (wt  1.000): -0.0000  0.0000  0.0001  0.0008  0.0011  0.0066  0.0325  0.1164  0.3985  0.4440
  DIIS coefficients: -0.0000  0.0000  0.0001  0.0008  0.0011  0.0066  0.0325  0.1164  0.3985  0.4440
 SCF Error: norm([F,P])=      0.000010252580, max([F,P])=      0.000002501896
 orbitals (Q,E):
 ---------------
 A :26...36          ( 2.00    -0.4353)  ( 2.00    -0.4288)  ( 2.00    -0.3750)  ( 2.00    -0.3612)
                     ( 2.00    -0.3209)  ( 2.00    -0.3098)  ( 2.00    -0.3054)  ( 2.00    -0.2960)
                     ( 2.00    -0.2853)  ( 2.00    -0.2721)  ( 0.00    -0.1720)

 CYCLE   16
  SDIIS (wt  1.000):  0.0000  0.0001  0.0005  0.0008  0.0045  0.0217  0.0717  0.2428  0.3048  0.3529
  DIIS coefficients:  0.0000  0.0001  0.0005  0.0008  0.0045  0.0217  0.0717  0.2428  0.3048  0.3529
 SCF Error: norm([F,P])=      0.000003252001, max([F,P])=      0.000000730471
 orbitals (Q,E):
 ---------------
 A :26...36          ( 2.00    -0.4353)  ( 2.00    -0.4288)  ( 2.00    -0.3750)  ( 2.00    -0.3612)
                     ( 2.00    -0.3209)  ( 2.00    -0.3098)  ( 2.00    -0.3054)  ( 2.00    -0.2960)
                     ( 2.00    -0.2853)  ( 2.00    -0.2721)  ( 0.00    -0.1720)

 SCF CONVERGED

 CYCLE   17
 ***************************************************************************************************



                                                *******************
                                                *  R E S U L T S  *
                                                *******************
  
 *** Using FIT density in Focky
  SDIIS (wt  1.000):  0.0000  0.0001  0.0001  0.0008  0.0045  0.0146  0.0499  0.0642  0.1794  0.6863
  DIIS coefficients:  0.0000  0.0001  0.0001  0.0008  0.0045  0.0146  0.0499  0.0642  0.1794  0.6863
 SCF Error: norm([F,P])=      0.000000675727, max([F,P])=      0.000000130467

 Scaled ZORA Orbital Energies, per Irrep and Spin:
 =================================================
                        Occup              E (au)              E (eV)       Diff (eV) with prev. cycle
                        -----      --------------------        ------       --------------------------
 A
              26        2.000     -0.43531271422525E+00       -11.845              -8.31E-07
              27        2.000     -0.42879252103342E+00       -11.668              -6.27E-07
              28        2.000     -0.37499689253589E+00       -10.204              -9.53E-07
              29        2.000     -0.36122688661663E+00        -9.829              -1.06E-06
              30        2.000     -0.32092823844283E+00        -8.733               2.11E-07
              31        2.000     -0.30979110352431E+00        -8.430              -2.95E-08
              32        2.000     -0.30540044978196E+00        -8.310              -1.11E-06
              33        2.000     -0.29597384526413E+00        -8.054              -7.31E-07
              34        2.000     -0.28534092779245E+00        -7.765              -3.38E-07
              35        2.000     -0.27210966901611E+00        -7.404              -1.22E-06
              36        0.000     -0.17199866198196E+00        -4.680
              37        0.000     -0.13812825966027E+00        -3.759
              38        0.000     -0.78664900968733E-01        -2.141
              39        0.000     -0.29991567798631E-01        -0.816
              40        0.000     -0.15005140485590E-02        -0.041
              41        0.000      0.12100249601231E-01         0.329
              42        0.000      0.39731552868548E-01         1.081
              43        0.000      0.67789325459981E-01         1.845
              44        0.000      0.68627561183647E-01         1.867
              45        0.000      0.82467098819651E-01         2.244
  
 HOMO :       35 A                -0.27210966901611E+00
 LUMO :       36 A                -0.17199866198196E+00
  


 All Electron Calculation, thus no Orbital Energies of the Core Orbitals are calculated


 Fit test: (difference of exact and fit density, squared integrated, result summed over spins)
         Sum-of-Fragments:                             0.00000000167580
         Orthogonalized Fragments:                     0.00009238824470
         SCF:                                          0.00017094919956



 ==========================
 Electron Density at Nuclei
 ==========================
  
 The electron density is calculated at points on a small sphere around the center of a nucleus.
 The printed electron density is the average electron density on these points.
 The radius of the sphere is the printed approximate finite nuclear radius.
 Note: ZORA-4 density is used, which includes small component density

         Atom        Nuclear Radius (Angstrom)             Electron Density (a.u.)
         ----        -------------------------             -----------------------
     1)   C                 0.0000320678                              127.22830
     2)   H                 0.0000181514                                0.51026
     3)   F                 0.0000361580                              450.93120
     4)   C                 0.0000320678                              127.08642
     5)   H                 0.0000181514                                0.51542
     6)   H                 0.0000181514                                0.50699
     7)   N                 0.0000333706                              206.16326
     8)   O                 0.0000345546                              314.40129
     9)   O                 0.0000345546                              314.40913
    10)   N                 0.0000333706                              206.17574
    11)   O                 0.0000345546                              314.39265
    12)   O                 0.0000345546                              314.36735



 =======================================
 M U L L I K E N   P O P U L A T I O N S
 =======================================
  
 The survey below gives for each atom:
 a) the total charge (Z minus electrons)
 b) the net spin polarization (nr of electrons spin-A minus spin-B)
 c) for each spin the atomic electron valence density (integrated) per L-value.

 Atom              Charge    Spin density          S         P         D         F
 ----              ------    ------------       ------    ------    ------    ------
 1 C               0.6295                       3.0222    2.2433    0.0980    0.0070
 2 H              -0.1548                       1.0755    0.0734    0.0059    0.0000
 3 F              -0.3994                       3.9788    5.3902    0.0275    0.0029
 4 C               0.4532                       2.9687    2.5154    0.0587    0.0040
 5 H              -0.1331                       1.0597    0.0678    0.0056    0.0000
 6 H              -0.1033                       1.0184    0.0787    0.0062    0.0000
 7 N               0.5706                       3.2062    2.9941    0.2159    0.0132
 8 O              -0.3593                       3.8558    4.4281    0.0668    0.0086
 9 O              -0.3542                       3.8560    4.4233    0.0662    0.0086
 10 N              0.5716                       3.2247    2.9743    0.2161    0.0134
 11 O             -0.3509                       3.8506    4.4253    0.0663    0.0087
 12 O             -0.3699                       3.8480    4.4472    0.0661    0.0086

 Populations of individual BAS functions
 ----------------------------------------
 1 C            0.5064  1.4848  0.1276  0.9478 -0.0444 -0.0772 -0.2619 -0.0746  0.5738  0.8920
                0.6876  0.1340  0.2026  0.1671  0.0029  0.0183  0.0174  0.0226  0.0195  0.0174
               -0.0005 -0.0022 -0.0014  0.0011  0.0007  0.0014  0.0039  0.0007  0.0003  0.0029
 4 C            0.5073  1.4822  0.1099  0.9097 -0.0403 -0.1151 -0.1004 -0.1560  0.7528  0.7502
                0.8309  0.1745  0.1794  0.1991  0.0047  0.0114  0.0122  0.0159  0.0104  0.0041
               -0.0006 -0.0014  0.0014  0.0012  0.0006  0.0003  0.0039  0.0018 -0.0013 -0.0020
 2 H            0.1095  0.6549  0.3111  0.0269  0.0192  0.0274  0.0081  0.0013  0.0016 -0.0050
                0.0006 -0.0006
 5 H            0.1274  0.6097  0.3226  0.0181  0.0279  0.0218 -0.0018  0.0010  0.0009  0.0032
                0.0014  0.0009
 6 H            0.0158  0.6874  0.3152  0.0189  0.0221  0.0377 -0.0068  0.0006  0.0015 -0.0007
                0.0017  0.0099
 3 F            0.5914  1.3846  1.1007  0.8964  0.0057  0.3122  0.4192  0.4037  0.8343  1.0161
                0.9899  0.3755  0.5280  0.5113  0.0212  0.0055  0.0067 -0.0046  0.0017 -0.0029
                0.0110  0.0068  0.0072 -0.0056  0.0002 -0.0042 -0.0053 -0.0022 -0.0009 -0.0041
 7 N            0.5503  1.4322 -0.0413  1.0272  0.2379  0.1663  0.1813  0.1746  0.8332  0.7678
                0.8845  0.0988 -0.0337 -0.0786 -0.0107  0.0462  0.0170  0.0541  0.0688  0.0406
               -0.0073 -0.0066 -0.0042  0.0069  0.0013  0.0035  0.0087  0.0059  0.0018  0.0031
[...]
                                   10.20%     1 P:y            -9.020  1.33    12 O
                                    7.93%     1 P:z            -9.020  1.33    10 O
                                    7.23%     1 P:z            -9.020  1.33     9 O
                                    3.95%     1 P:x            -5.239  0.67     2 C
                                    2.96%     1 P:y            -9.020  1.33    11 O
                                    2.95%     1 P:z            -9.020  1.33    12 O
                                    2.22%     1 P:y            -9.020  1.33    10 O
                                    1.32%     1 P:x            -9.020  1.33    10 O
                                    1.16%     2 S             -13.620  2.00     2 C
                                    1.10%     1 D:xz           34.005  0.00     8 N
      -7.765  2.00    34 A         32.14%     1 P:z            -9.020  1.33    10 O
                                   20.40%     1 P:y            -9.020  1.33     9 O
                                    8.04%     1 P:x            -9.020  1.33    12 O
                                    7.68%     1 P:z            -9.020  1.33    11 O
                                    4.97%     1 P:x            -9.020  1.33    11 O
                                    4.79%     1 P:z            -9.020  1.33     9 O
                                    4.22%     1 P:x            -9.020  1.33    10 O
                                    2.45%     1 P:y            -9.020  1.33    11 O
                                    2.29%     1 P:y            -9.020  1.33    10 O
                                    1.89%     1 P:z            -9.020  1.33    12 O
                                    1.68%     1 P:y            -9.020  1.33    12 O
                                    1.51%     1 P:z            -5.239  0.67     2 C
                                    1.32%     1 P:x            -5.239  0.67     2 C
                                    1.31%     1 P:y            -5.239  0.67     2 C
      -7.404  2.00    35 A         41.33%     1 P:z            -9.020  1.33    11 O
                                   33.43%     1 P:x            -9.020  1.33    12 O
                                   14.29%     1 P:y            -9.020  1.33    12 O
                                    4.01%     1 P:x            -9.020  1.33    11 O
                                    1.22%     1 P:y            -9.020  1.33    11 O
      -4.680  0.00    36 A         24.18%     1 P:x            -7.062  1.00     7 N
                                   22.99%     1 P:x            -9.020  1.33    10 O
                                   22.33%     1 P:x            -9.020  1.33     9 O
                                    8.67%     1 P:x            -5.239  0.67     1 C
                                    6.22%     1 P:x           -11.127  1.67     6 F
                                    3.04%     1 P:z            -9.020  1.33     9 O
                                    2.98%     1 P:z            -9.020  1.33    10 O
                                    2.57%     1 P:z            -7.062  1.00     7 N
                                    2.17%     1 P:z           -11.127  1.67     6 F
                                    1.06%     1 P:z            -5.239  0.67     1 C
      -3.759  0.00    37 A         25.77%     1 P:y            -7.062  1.00     8 N
                                   20.48%     1 P:y            -9.020  1.33    11 O
                                   20.24%     1 P:y            -9.020  1.33    12 O
                                   11.46%     1 P:x            -7.062  1.00     8 N
                                    9.20%     1 P:x            -9.020  1.33    11 O
                                    8.64%     1 P:x            -9.020  1.33    12 O
                                    1.74%     1 S              -6.532  1.00     3 H
                                    1.24%     1 P:y            -5.239  0.67     1 C
                                   -1.23%     2 P:y             7.649  0.00     8 N
      -2.141  0.00    38 A         33.92%     1 P:x            -5.239  0.67     1 C
                                   10.76%     1 P:x           -11.127  1.67     6 F
                                    9.99%     1 P:z            -5.239  0.67     1 C
                                    9.11%     1 P:x            -7.062  1.00     7 N
                                    5.57%     1 P:x            -5.239  0.67     2 C
                                    4.56%     1 P:x            -9.020  1.33     9 O
                                    4.10%     2 S             -18.450  2.00     8 N
                                    3.96%     1 P:x            -9.020  1.33    10 O
                                    3.40%     1 P:z            -5.239  0.67     2 C
                                   -3.16%     3 S               0.624  0.00     6 F
                                   -2.51%     3 S              14.073  0.00     8 N
                                   -1.61%     2 P:x             7.649  0.00     7 N
                                    1.60%     1 S              -6.532  1.00     5 H
                                    1.55%     2 S             -18.450  2.00     7 N
                                    1.38%     1 P:x            11.051  0.00     4 H
                                    1.29%     1 P:y            -7.062  1.00     8 N
                                   -1.16%     2 P:x            11.654  0.00     6 F
                                    1.10%     1 P:z            -9.020  1.33    12 O
                                    1.02%     1 P:y            -9.020  1.33    11 O
                                    1.02%     1 P:x            -7.062  1.00     8 N
      -0.816  0.00    39 A         35.96%     2 S               2.394  0.00     3 H
                                   29.75%     2 S               2.394  0.00     4 H
                                   27.91%     1 S              -6.532  1.00     3 H
                                   24.25%     1 S              -6.532  1.00     4 H
                                   -5.43%     3 S              10.158  0.00     2 C
                                   -4.42%     3 S              10.158  0.00     1 C
                                   -3.13%     2 S               2.394  0.00     5 H
                                   -2.89%     2 P:x             4.589  0.00     2 C
                                   -2.85%     1 S              -6.532  1.00     5 H
                                   -2.30%     2 P:z             4.589  0.00     2 C
                                    1.98%     1 P:y            -5.239  0.67     1 C
                                   -1.87%     2 P:z             4.589  0.00     1 C
                                    1.50%     1 P:x            11.051  0.00     3 H
                                   -1.43%     3 S               0.624  0.00     6 F
                                   -1.21%     3 S              40.869  0.00     3 H
      -0.041  0.00    40 A         51.04%     1 S              -6.532  1.00     5 H
                                   41.72%     2 S               2.394  0.00     5 H
                                   22.80%     1 S              -6.532  1.00     4 H
                                  -12.72%     2 P:z             4.589  0.00     2 C
                                   -8.55%     2 P:y             4.589  0.00     1 C
                                   -6.09%     2 P:y             4.589  0.00     2 C
                                    3.53%     2 S               2.394  0.00     4 H
                                   -3.26%     3 S              10.158  0.00     2 C
                                    2.93%     1 P:z            -5.239  0.67     1 C
                                   -2.66%     1 P:y            -5.239  0.67     1 C
                                    2.32%     2 S             -13.620  2.00     2 C
                                   -2.06%     1 S              -6.532  1.00     3 H
                                   -2.00%     2 S               2.394  0.00     3 H
                                    1.57%     1 P:y            11.051  0.00     4 H
                                   -1.56%     1 P:y            -5.239  0.67     2 C
                                    1.45%     1 P:x            -5.239  0.67     1 C
                                    1.32%     1 P:z            -5.239  0.67     2 C
                                    1.31%     2 S             -18.450  2.00     7 N
                                    1.25%     1 P:x            -5.239  0.67     2 C
                                    1.12%     2 P:x             4.589  0.00     2 C
       0.329  0.00    41 A         36.91%     1 S              -6.532  1.00     3 H
                                   17.72%     2 S               2.394  0.00     4 H
                                  -17.27%     2 P:z             4.589  0.00     2 C
                                   15.75%     1 S              -6.532  1.00     4 H
                                   11.87%     1 S              -6.532  1.00     5 H
                                    9.90%     2 S             -13.620  2.00     1 C
                                    8.52%     2 S             -18.450  2.00     7 N
                                   -8.32%     2 P:x             4.589  0.00     2 C
                                    8.20%     2 S               2.394  0.00     3 H
                                   -7.42%     3 S              10.158  0.00     1 C
                                    6.58%     2 P:y             4.589  0.00     2 C
                                   -5.62%     2 P:y             4.589  0.00     1 C
                                    5.13%     1 P:y            -5.239  0.67     2 C
                                    5.05%     1 P:z            -5.239  0.67     2 C
                                    3.18%     2 P:z             4.589  0.00     1 C
                                   -2.46%     2 S               2.394  0.00     5 H
                                    2.32%     3 S               0.624  0.00     6 F
                                    1.75%     2 P:z             7.649  0.00     7 N
                                    1.68%     1 P:y            -9.020  1.33    10 O
                                   -1.67%     3 S              21.524  0.00    10 O
                                   -1.57%     1 P:z            -5.239  0.67     1 C
                                    1.56%     3 S              40.869  0.00     3 H
                                    1.54%     1 P:z            -9.020  1.33     9 O
                                   -1.32%     3 S              21.524  0.00     9 O
                                    1.12%     1 P:x           -11.127  1.67     6 F



 =======================================================================
 Electrostatic potential at the Nuclei due to electrons and other nuclei
 =======================================================================
  
         Atom                  Potential
         ----                  ---------
     1)   C                  14.59872191
     2)   H                   1.02503745
     3)   F                  26.62072923
     4)   C                  14.67824703
     5)   H                   1.01010999
     6)   H                   1.02952208
     7)   N                  18.14904839
     8)   O                  22.32832028
     9)   O                  22.32855531
    10)   N                  18.16313684
    11)   O                  22.34387820
    12)   O                  22.34530662
 Mulliken charges used for AMS results%charges...


    =====================
     CALCULATION RESULTS
    =====================

Energy (hartree)            -2.46474837


--------------
Atomic charges
--------------
  Index   Atom    Charge
      1      C    0.6295
      2      H   -0.1548
      3      F   -0.3994
      4      C    0.4532
      5      H   -0.1331
      6      H   -0.1033
      7      N    0.5706
      8      O   -0.3593
      9      O   -0.3542
     10      N    0.5716
     11      O   -0.3509
     12      O   -0.3699


Dipole moment vector    (Debye):     4.51660373    0.03389438   -0.34101968
              magnitude (Debye):     4.52958635


-----------------------
Molecular orbitals info
-----------------------
n orbitals:              267
n spin:                    1

Note: only printing virtual orbitals with
      energy smaller than HOMO + 100. eV

HOMO (eV):              -7.4045
LUMO (eV):              -4.6803
HOMO-LUMO gap (eV):      2.7242

   Index   Energy (eV)    Occupation
     164       92.2781         0.000       
     163       92.1082         0.000       
     162       91.8828         0.000       
     161       91.2119         0.000       
     160       91.0326         0.000       
     159       90.6346         0.000       
     158       89.7518         0.000       
     157       89.3728         0.000       
     156       88.4240         0.000       
     155       87.9920         0.000       
     154       86.7235         0.000       
     153       86.1053         0.000       
     152       84.0646         0.000       
     151       82.0009         0.000       
     150       80.2539         0.000       
     149       78.7029         0.000       
     148       78.0722         0.000       
     147       77.5735         0.000       
     146       75.7180         0.000       
     145       73.9644         0.000       
     144       72.3914         0.000       
     143       71.7632         0.000       
     142       69.9285         0.000       
     141       69.6180         0.000       
     140       66.8035         0.000       
     139       65.7916         0.000       
     138       63.7967         0.000       
     137       63.0752         0.000       
     136       62.1056         0.000       
     135       61.2584         0.000       
     134       60.5751         0.000       
     133       59.6521         0.000       
     132       59.0354         0.000       
     131       58.1788         0.000       
     130       57.0969         0.000       
     129       56.9422         0.000       
     128       55.7025         0.000       
     127       55.2961         0.000       
     126       54.5867         0.000       
     125       52.7110         0.000       
     124       52.1268         0.000       
     123       51.9775         0.000       
     122       50.9409         0.000       
     121       50.8791         0.000       
     120       49.8587         0.000       
     119       48.9779         0.000       
     118       47.3974         0.000       
     117       47.0477         0.000       
     116       46.6802         0.000       
     115       46.1343         0.000       
     114       45.1638         0.000       
     113       44.5578         0.000       
     112       43.5738         0.000       
     111       42.5782         0.000       
     110       40.7327         0.000       
     109       40.4946         0.000       
     108       40.2246         0.000       
     107       38.8629         0.000       
     106       38.1604         0.000       
     105       36.8942         0.000       
     104       35.4272         0.000       
     103       34.9374         0.000       
     102       34.7597         0.000       
     101       34.3972         0.000       
     100       33.9579         0.000       
      99       33.4521         0.000       
      98       33.4398         0.000       
      97       32.4259         0.000       
      96       31.9497         0.000       
      95       31.1951         0.000       
      94       30.8317         0.000       
      93       30.6347         0.000       
      92       30.3119         0.000       
      91       28.8630         0.000       
      90       28.3840         0.000       
      89       27.6643         0.000       
      88       26.9408         0.000       
      87       26.2376         0.000       
      86       25.3616         0.000       
      85       24.1251         0.000       
      84       23.3492         0.000       
      83       22.7984         0.000       
      82       22.5461         0.000       
      81       21.9226         0.000       
      80       21.2449         0.000       
      79       20.4717         0.000       
      78       19.8370         0.000       
      77       19.4664         0.000       
      76       18.4794         0.000       
      75       17.8227         0.000       
      74       17.7841         0.000       
      73       16.3412         0.000       
      72       15.9809         0.000       
      71       15.1073         0.000       
      70       14.4034         0.000       
      69       13.9867         0.000       
      68       13.0444         0.000       
      67       12.6764         0.000       
      66       11.1380         0.000       
      65       10.7404         0.000       
      64       10.5540         0.000       
      63       10.1870         0.000       
      62        9.9971         0.000       
      61        9.9038         0.000       
      60        9.4804         0.000       
      59        9.0131         0.000       
      58        8.7673         0.000       
      57        8.4907         0.000       
      56        7.9521         0.000       
      55        7.7252         0.000       
      54        6.8049         0.000       
      53        6.2670         0.000       
      52        6.0997         0.000       
      51        5.6519         0.000       
      50        4.8257         0.000       
      49        4.6469         0.000       
      48        3.7063         0.000       
      47        3.6750         0.000       
      46        3.2177         0.000       
      45        2.2440         0.000       
      44        1.8675         0.000       
      43        1.8446         0.000       
      42        1.0812         0.000       
      41        0.3293         0.000       
      40       -0.0408         0.000       
      39       -0.8161         0.000       
      38       -2.1406         0.000       
      37       -3.7587         0.000       
      36       -4.6803         0.000 < LUMO
      35       -7.4045         2.000 < HOMO
      34       -7.7645         2.000       
      33       -8.0539         2.000       
      32       -8.3104         2.000       
      31       -8.4298         2.000       
      30       -8.7329         2.000       
      29       -9.8295         2.000       
      28      -10.2042         2.000       
      27      -11.6680         2.000       
      26      -11.8455         2.000       
      25      -12.7126         2.000       
      24      -13.3025         2.000       
      23      -13.4458         2.000       
      22      -13.9140         2.000       
      21      -14.5153         2.000       
      20      -14.6235         2.000       
      19      -14.7872         2.000       
      18      -15.7454         2.000       
      17      -16.9975         2.000       
      16      -20.4707         2.000       
      15      -22.3827         2.000       
      14      -27.0362         2.000       
      13      -27.4672         2.000       
      12      -30.0359         2.000       
      11      -31.4533         2.000       
      10      -31.9938         2.000       
       9     -272.9881         2.000       
       8     -275.1855         2.000       
       7     -388.4672         2.000       
       6     -388.8530         2.000       
       5     -513.1281         2.000       
       4     -513.1749         2.000       
       3     -513.5984         2.000       
       2     -513.6051         2.000       
       1     -662.2670         2.000       

AMS application finished. Exiting.
NORMAL TERMINATION
     Total cpu time:      41.31
  Total system time:       0.36
 Total elapsed time:      41.83
NORMAL TERMINATION
