
 *******************************************************************************
 *                                                                             *
 *  --------------------------------                                           *
 *   Amsterdam Modeling Suite (AMS)              2026.103                      *
 *  --------------------------------                                           *
 *                                               r260501 2026-05-01 873454b5   *
 *                                                                             *
 *                                                                             *
 *                              =================                              *
 *                              |               |                              *
 *                              |     A M S     |                              *
 *                              |               |                              *
 *                              =================                              *
 *                                                                             *
 *                                                                             *
 *   Online information and documentation:  https://www.scm.com/support/       *
 *   E-mail:  support@scm.com   info@scm.com                                   *
 *                                                                             *
 *   Scientific publications using AMS results must be properly referenced     *
 *   See the User Manuals (or the web site) for recommended citations          *
 *   The terms and conditions of the End User License Agreement apply to       *
 *   the use of AMS, https://www.scm.com/license-terms/                        *
 *                                                                             *
 **********************  x86_64_linux_intel / intelmpi  ************************
 
 Licensed to: Jong-June Jeon / University of Seoul 2026-05-13 16:10:32
 SCM User ID: u30731
  
 AMS 2026.103  RunTime: May31-2026 23:15:59  ShM Nodes: 1  Procs: 1

 AMS jobname: c4_fragA_opt
 AMS jobid  : 827886345

 Start   directory: /gpfs/home1/yeseo1ee/projects/eda-asm-prediction/adf_outputs/batch_001/dipolar_001959/
 Results directory: /gpfs/home1/yeseo1ee/projects/eda-asm-prediction/adf_outputs/batch_001/dipolar_001959/c4_fragA_opt.results/
 Scratch directory: /tmp/amstmp_c4_fragA_opt_kid0.827886345/

 RNG seed: 1820813366 1962391722 1271411373 2135475756 1387754664 354369670 1580488252 1778369847



                      ************************************************************************
                      *  ADF 2026.103  RunTime: May31-2026 23:15:59  ShM Nodes: 1  Procs: 1  *
                      ************************************************************************
  

       ***************************
       *  GEOMETRY OPTIMIZATION  *
       ***************************

Optimization Method                    Quasi Newton
Optimization Coordinates               Delocalized Coordinates
Optimize lattice                       F
 
 ------------------------------------------------------
 Convergence criteria (Hartree,Angstrom)
 ------------------------------------------------------
 Maximum gradient               0.000100000000
 Maximum rms gradient           0.000066666667
 Maximum step allowed           0.010000000000
 Maximum rms step allowed       0.006666666667
 Maximum energy change allowe   0.000330000000
 Maximum stress energy allowe   0.000500000000
 
Initial model Hessian                  Automatic Hessian
 
------------------------------------
Quasi-Newton Optimizer Parameters
------------------------------------
Hessian Update Method                  BFGS
Maximum number of steps                  200
First GDIIS cycle                          0
Maximum GDIIS vectors                      0
Trust radius (bohr)                        0.200000
Trust radius varies                        T
Constraints converged at all steps         T
Use projector                              T
 
 Rigid motions settings for: old optimizer
 Atomic rotations (x,y,z):     T T T
 Atomic translations (x,y,z):  T T T
 Tolerance:                  1.000000000000000E-006

--------
Geometry
--------
Formula: C15H14N2O2
Atoms
  Index Symbol   x (angstrom)   y (angstrom)   z (angstrom)
      1      C    -1.42337000     0.17602000    -0.08005000
      2      C    -1.71526000     0.23951000    -1.56244000
      3      O    -2.46484000    -0.60280000    -2.07011000
      4      N    -1.12919000     1.22688000    -2.25944000
      5      C    -1.16256000     1.22545000    -3.70842000
      6      C    -2.30918000    -0.51044000     0.86769000
      7      C    -1.79948000    -0.84499000     2.14103000
      8      C    -2.60996000    -1.46430000     3.08669000
      9      C    -3.94310000    -1.76566000     2.78035000
     10      C    -4.45616000    -1.43943000     1.52186000
     11      C    -3.64998000    -0.81854000     0.56736000
     12      O    -0.60418000     1.00239000     0.54308000
     13      N     0.39493000     1.62495000    -0.10471000
     14      C     1.23993000     2.25037000     0.80841000
     15      C     2.24001000     3.06910000     0.24382000
     16      C     3.17977000     3.68812000     1.06510000
     17      C     3.12851000     3.51554000     2.45291000
     18      C     2.12261000     2.71743000     3.01519000
     19      C     1.18286000     2.08157000     2.20822000
     20      H    -0.37078000     1.72121000    -1.78016000
     21      H    -0.73948000     2.16891000    -4.07476000
     22      H    -2.19370000     1.13001000    -4.07571000
     23      H    -0.57118000     0.38884000    -4.11886000
     24      H    -0.75285000    -0.63890000     2.36936000
     25      H    -2.19884000    -1.72595000     4.06413000
     26      H    -4.57774000    -2.25779000     3.52088000
     27      H    -5.49665000    -1.66646000     1.27934000
     28      H    -4.05923000    -0.56395000    -0.40747000
     29      H     2.26759000     3.19795000    -0.83931000
     30      H     3.95584000     4.31356000     0.61819000
     31      H     3.86394000     4.00455000     3.09528000
     32      H     2.07540000     2.58396000     4.09856000
     33      H     0.41063000     1.45328000     2.65064000

Total System Charge              0.00000


----------------
ADF Engine Input
----------------
 
   Basis
     Type TZ2P
     Core None
   End
   XC
     GGA BLYP
     Dispersion GRIMME3 BJDAMP
   End
   Symmetry NOSYM
   NumericalQuality Normal
   Unrestricted No
   SCF
     Iterations 200
     Converge 1.0e-6
   End
   Save TAPE21
 

 Title: *** (NO TITLE) ***

 Using automatic Hessian for delocalized coordinates.
 *** GO1_GOStep1 ***

 Energy gradients wrt nuclear displacements
 ==========================================

     Atom      Cartesian (a.u./angstrom)
                 X         Y         Z
 ----------------------------------------
     1 C     0.059958 -0.013152 -0.000363
     2 C    -0.004361  0.029818 -0.022836
     3 O     0.012495  0.012013  0.006355
     4 N    -0.021667 -0.021952  0.005678
     5 C     0.004733 -0.004365  0.020673
     6 C    -0.015454 -0.003204  0.012511
     7 C    -0.006781  0.002738 -0.007466
     8 C    -0.003240  0.001443 -0.006911
     9 C     0.004707  0.003883 -0.007173
    10 C     0.005144 -0.000066  0.003820
    11 C     0.011799  0.002218  0.006197
    12 O    -0.004181  0.031737 -0.020607
    13 N    -0.039173 -0.040305  0.015913
    14 C     0.012993  0.007086  0.007626
    15 C    -0.007934 -0.004002  0.004672
    16 C    -0.002993 -0.003470  0.006184
    17 C    -0.006499 -0.005329 -0.007489
    18 C     0.000958  0.002494 -0.006270
    19 C     0.001424  0.000942 -0.010572
    20 H    -0.000782  0.000425 -0.001139
    21 H     0.001273  0.002558 -0.002070
    22 H    -0.004904  0.000882 -0.002217
    23 H     0.004048 -0.001917 -0.000755
    24 H     0.005805  0.001617  0.000522
    25 H     0.001832 -0.000905  0.004197
    26 H    -0.002963 -0.002176  0.003158
    27 H    -0.004925 -0.001148 -0.001093
    28 H    -0.003603  0.001775 -0.003576
    29 H    -0.000121  0.000877 -0.003896
    30 H     0.003264  0.002520 -0.002193
    31 H     0.003439  0.002276  0.002977
    32 H    -0.000618 -0.000668  0.004536
    33 H    -0.003671 -0.004640  0.001610
 ----------------------------------------
 
----------------------------------------------------------------------
Geometry Convergence after Step   1       (Hartree/Angstrom,Angstrom)
----------------------------------------------------------------------
current energy                               -7.52424746 Hartree
energy change                      -7.52424746     0.00033000    F
constrained gradient max            0.05995740     0.00010000    F
constrained gradient rms            0.01180228     0.00006667    F
gradient max                        0.05995740
gradient rms                        0.01180228
cart. step max                      0.16844530     0.01000000    F
cart. step rms                      0.05167466     0.00666667    F
 

--------
Geometry
--------
Formula: C15H14N2O2
Atoms
  Index Symbol   x (angstrom)   y (angstrom)   z (angstrom)
      1      C    -1.43022851     0.18474724    -0.11160427
      2      C    -1.75076187     0.21647094    -1.58964703
      3      O    -2.55796865    -0.60941884    -2.05292476
      4      N    -1.14683629     1.17675666    -2.33844897
      5      C    -1.26225563     1.17025031    -3.79066749
      6      C    -2.30058463    -0.49807396     0.84967167
      7      C    -1.77855143    -0.85551424     2.11691652
      8      C    -2.58378331    -1.47481343     3.06886551
      9      C    -3.92563085    -1.75750170     2.77880665
     10      C    -4.45118666    -1.41409398     1.52806591
     11      C    -3.65218716    -0.79372688     0.56672747
     12      O    -0.54736417     0.97900187     0.50112677
     13      N     0.47701565     1.64991606    -0.10991672
     14      C     1.29067658     2.26998500     0.83655427
     15      C     2.31119600     3.09328976     0.30517235
     16      C     3.22547047     3.71651455     1.15260443
     17      C     3.13722174     3.54630834     2.54047201
     18      C     2.11711792     2.74404679     3.07301876
     19      C     1.19987427     2.10600710     2.24018264
     20      H    -0.34635252     1.64296856    -1.90024178
     21      H    -0.81803846     2.09057658    -4.18480858
     22      H    -2.31404936     1.12065917    -4.09527536
     23      H    -0.73962530     0.30525283    -4.22931327
     24      H    -0.72949859    -0.66653316     2.33457344
     25      H    -2.16294790    -1.75105467     4.03551786
     26      H    -4.55417006    -2.24856144     3.52171327
     27      H    -5.49446524    -1.62830876     1.29766508
     28      H    -4.06869386    -0.53035207    -0.39993626
     29      H     2.37187402     3.22200438    -0.77463824
     30      H     4.01039180     4.34237907     0.72793976
     31      H     3.85119169     4.03672657     3.20144597
     32      H     2.03979643     2.61182113     4.15251904
     33      H     0.41766388     1.48266022     2.66451335

Total System Charge              0.00000

 *** GO1_GOStep2 ***

 Energy gradients wrt nuclear displacements
 ==========================================

     Atom      Cartesian (a.u./angstrom)
                 X         Y         Z
 ----------------------------------------
     1 C     0.024870 -0.026043  0.000771
     2 C     0.000490  0.020910 -0.009709
     3 O    -0.004315 -0.005350  0.002013
     4 N    -0.016809 -0.004932 -0.007230
     5 C     0.001374 -0.001842  0.010905
     6 C    -0.012866  0.000039  0.004429
     7 C    -0.002204  0.001319 -0.002817
     8 C    -0.001376  0.000003 -0.001797
     9 C     0.001964  0.001708 -0.002728
    10 C     0.000831 -0.000517  0.001350
    11 C     0.007464  0.001155  0.001498
    12 O    -0.001386  0.023652 -0.017201
    13 N    -0.006630 -0.015526  0.025800
    14 C     0.011500  0.009593  0.000494
    15 C    -0.004142 -0.001416  0.003156
    16 C    -0.000126 -0.000972  0.002606
    17 C    -0.002491 -0.002359 -0.003026
    18 C     0.000934  0.001560 -0.001505
    19 C     0.000831 -0.000524 -0.004189
    20 H     0.001162 -0.001581 -0.000717
    21 H     0.000536  0.001246 -0.001861
    22 H    -0.001831  0.000668 -0.002295
    23 H     0.002238 -0.001109 -0.000747
    24 H     0.002207  0.000331  0.000343
    25 H     0.000579 -0.000399  0.001833
    26 H    -0.001190 -0.000978  0.001321
    27 H    -0.002005 -0.000499 -0.000344
    28 H    -0.001783  0.001197 -0.002350
    29 H    -0.000048  0.000618 -0.001484
    30 H     0.001579  0.001122 -0.000662
    31 H     0.001533  0.000977  0.001389
    32 H    -0.000181 -0.000120  0.001944
    33 H    -0.000711 -0.001930  0.000810
 ----------------------------------------

 dE(predicted):    -0.50722E-02, dE(actual):    -0.34446E-02, Trust radius:    0.200000, all in a.u.
 
----------------------------------------------------------------------
Geometry Convergence after Step   2       (Hartree/Angstrom,Angstrom)
----------------------------------------------------------------------
current energy                               -7.52769211 Hartree
energy change                      -0.00344465     0.00033000    F
constrained gradient max            0.02605054     0.00010000    F
constrained gradient rms            0.00698693     0.00006667    F
gradient max                        0.02605054
gradient rms                        0.00698693
cart. step max                      0.20012847     0.01000000    F
cart. step rms                      0.06201305     0.00666667    F
 

--------
Geometry
--------
Formula: C15H14N2O2
Atoms
  Index Symbol   x (angstrom)   y (angstrom)   z (angstrom)
      1      C    -1.48952370     0.18379548    -0.07364179
      2      C    -1.75136530     0.23217636    -1.55751810
      3      O    -2.56846314    -0.54995508    -2.07980644
      4      N    -1.06037078     1.19177409    -2.25019953
      5      C    -1.11945961     1.25055613    -3.71046681
      6      C    -2.35209681    -0.51746477     0.87742626
      7      C    -1.82621056    -0.89984012     2.13940951
      8      C    -2.62608304    -1.53928811     3.08325912
      9      C    -3.96884199    -1.82101035     2.79375108
     10      C    -4.49914347    -1.45642264     1.54970981
     11      C    -3.70713172    -0.81636437     0.59566015
     12      O    -0.56899974     0.94681029     0.52911272
     13      N     0.43107133     1.63686295    -0.13604388
     14      C     1.25789274     2.26340821     0.79108140
     15      C     2.27822165     3.07199420     0.22888237
     16      C     3.20661983     3.71029462     1.04918482
     17      C     3.14012064     3.57126147     2.44310118
     18      C     2.12467602     2.78325664     3.00730514
     19      C     1.19052093     2.13262640     2.20284270
     20      H    -0.26276756     1.60628658    -1.75757686
     21      H    -0.61790999     2.16306602    -4.04523379
     22      H    -2.15977005     1.26483186    -4.04855728
     23      H    -0.62751861     0.37994027    -4.16842592
     24      H    -0.77935151    -0.71308366     2.35816837
     25      H    -2.20076620    -1.83210652     4.04092936
     26      H    -4.59185943    -2.32694983     3.52844300
     27      H    -5.54025821    -1.67057705     1.31904414
     28      H    -4.12593443    -0.54082973    -0.36393160
     29      H     2.32463951     3.17701620    -0.85264329
     30      H     3.98569819     4.32270542     0.59974587
     31      H     3.86437039     4.07214147     3.08121301
     32      H     2.06309330     2.67517388     4.08865464
     33      H     0.41121129     1.52830367     2.65377067

Total System Charge              0.00000

 *** GO1_GOStep3 ***

 Energy gradients wrt nuclear displacements
 ==========================================

     Atom      Cartesian (a.u./angstrom)
                 X         Y         Z
 ----------------------------------------
     1 C     0.011563 -0.026208  0.001533
     2 C     0.001064  0.008509  0.003398
     3 O    -0.005758 -0.007673 -0.003771
     4 N     0.002073  0.012735  0.006349
     5 C     0.003650 -0.000404  0.000409
     6 C    -0.009912  0.002047  0.000062
     7 C     0.000435 -0.000167  0.000162
     8 C     0.000123 -0.000808  0.001483
     9 C    -0.000366 -0.000340  0.000710
    10 C    -0.001474 -0.000652  0.000027
    11 C     0.000143  0.000434  0.000798
    12 O     0.002027  0.021747 -0.006553
    13 N    -0.004813 -0.009914 -0.004232
    14 C     0.001307  0.004537 -0.001505
    15 C    -0.001420  0.000072 -0.000438
    16 C     0.001697  0.000588 -0.000014
    17 C     0.000557  0.000009  0.000097
    18 C    -0.000063  0.000119  0.002137
    19 C    -0.000066 -0.001497  0.001037
    20 H    -0.001010 -0.003822 -0.001846
    21 H    -0.000289 -0.000078 -0.001100
    22 H     0.000924  0.000523 -0.000185
    23 H     0.000602  0.000333 -0.000580
    24 H    -0.000748 -0.000525 -0.000074
    25 H    -0.000388  0.000046 -0.000058
    26 H     0.000185  0.000006 -0.000057
    27 H     0.000289  0.000036  0.000202
    28 H    -0.000688  0.000192  0.001704
    29 H    -0.000455  0.000187  0.000415
    30 H    -0.000175 -0.000211  0.000314
    31 H    -0.000099 -0.000084 -0.000015
    32 H     0.000190  0.000279 -0.000228
    33 H     0.000895 -0.000017 -0.000183
 ----------------------------------------

 dE(predicted):    -0.33716E-02, dE(actual):    -0.21573E-02, Trust radius:    0.200000, all in a.u.
 
----------------------------------------------------------------------
Geometry Convergence after Step   3       (Hartree/Angstrom,Angstrom)
----------------------------------------------------------------------
current energy                               -7.52984936 Hartree
energy change                      -0.00215726     0.00033000    F
constrained gradient max            0.02620761     0.00010000    F
constrained gradient rms            0.00457318     0.00006667    F
gradient max                        0.02620761
gradient rms                        0.00457318
cart. step max                      0.10638245     0.01000000    F
cart. step rms                      0.04787668     0.00666667    F
 

--------
Geometry
--------
Formula: C15H14N2O2
Atoms
  Index Symbol   x (angstrom)   y (angstrom)   z (angstrom)
      1      C    -1.51222170     0.26343675    -0.09031292
      2      C    -1.77219688     0.26656288    -1.57412537
      3      O    -2.60079757    -0.51646929    -2.06460355
      4      N    -1.08031807     1.18618191    -2.31329070
      5      C    -1.18777414     1.19593013    -3.77176208
      6      C    -2.33948540    -0.46274243     0.86680107
      7      C    -1.78975932    -0.82916256     2.12253055
      8      C    -2.56225072    -1.49291001     3.07139125
      9      C    -3.89810622    -1.81544280     2.79210388
     10      C    -4.44957812    -1.46771605     1.55250361
     11      C    -3.68596083    -0.80359968     0.59284601
     12      O    -0.57019638     0.98390953     0.52076954
     13      N     0.42864690     1.68225868    -0.13980199
     14      C     1.25328819     2.27304468     0.80839064
     15      C     2.31166758     3.05067544     0.27304873
     16      C     3.23498089     3.66176028     1.11816485
     17      C     3.12812988     3.52326654     2.50954630
     18      C     2.07631059     2.76386884     3.04537876
     19      C     1.14381110     2.14336015     2.21673839
     20      H    -0.27132900     1.61842131    -1.85306670
     21      H    -0.68743242     2.09103023    -4.15161623
     22      H    -2.23959921     1.21058962    -4.07270298
     23      H    -0.72244833     0.30366807    -4.21494105
     24      H    -0.74755045    -0.60833046     2.33266662
     25      H    -2.12012741    -1.77333903     4.02511599
     26      H    -4.49941523    -2.34067562     3.53124440
     27      H    -5.48484255    -1.71554132     1.32924740
     28      H    -4.11680009    -0.54473420    -0.36627802
     29      H     2.38997694     3.15426108    -0.80685716
     30      H     4.04268507     4.25191280     0.68993722
     31      H     3.84935228     4.00257467     3.16718793
     32      H     1.98246593     2.65704315     4.12452950
     33      H     0.33118469     1.56729672     2.64586611

Total System Charge              0.00000

 *** GO1_GOStep4 ***

 Energy gradients wrt nuclear displacements
 ==========================================

     Atom      Cartesian (a.u./angstrom)
                 X         Y         Z
 ----------------------------------------
     1 C     0.006166 -0.013083 -0.002936
     2 C    -0.001897  0.001136 -0.001980
     3 O     0.001669  0.000622  0.000821
     4 N    -0.007159  0.004629 -0.000906
     5 C     0.001121 -0.001110  0.000509
     6 C    -0.003896  0.003337  0.002102
     7 C     0.000724  0.000271 -0.001251
     8 C     0.000265 -0.000335  0.001013
     9 C     0.000146 -0.000238  0.000258
    10 C    -0.000531 -0.000162 -0.000263
    11 C     0.000928  0.000468 -0.000719
    12 O     0.002347  0.012551  0.005096
    13 N     0.000289 -0.005476 -0.001105
    14 C    -0.002268  0.001010  0.001505
    15 C    -0.001260 -0.000361 -0.001164
    16 C     0.000693  0.000021 -0.000063
    17 C     0.000447  0.000159  0.000001
    18 C    -0.000619 -0.000366  0.001227
    19 C     0.000077 -0.001478  0.000074
    20 H     0.002587 -0.002194 -0.000858
    21 H    -0.000289  0.000118 -0.000385
    22 H     0.000559  0.000261 -0.000445
    23 H     0.000425  0.000085 -0.000192
    24 H     0.000260  0.000423 -0.000137
    25 H    -0.000238  0.000174 -0.000210
    26 H     0.000166  0.000020 -0.000112
    27 H     0.000373  0.000098  0.000000
    28 H    -0.000445  0.000018  0.000452
    29 H    -0.000278  0.000299  0.000278
    30 H    -0.000266 -0.000223  0.000161
    31 H    -0.000191 -0.000162 -0.000173
    32 H     0.000116  0.000080 -0.000279
    33 H    -0.000020 -0.000592 -0.000319
 ----------------------------------------

 dE(predicted):    -0.18494E-02, dE(actual):    -0.15559E-02, Trust radius:    0.400000, all in a.u.
 
----------------------------------------------------------------------
Geometry Convergence after Step   4       (Hartree/Angstrom,Angstrom)
----------------------------------------------------------------------
current energy                               -7.53140522 Hartree
energy change                      -0.00155585     0.00033000    F
constrained gradient max            0.01308519     0.00010000    F
constrained gradient rms            0.00245149     0.00006667    F
gradient max                        0.01308519
gradient rms                        0.00245149
cart. step max                      0.21031850     0.01000000    F
cart. step rms                      0.05244463     0.00666667    F
 

--------
Geometry
--------
Formula: C15H14N2O2
Atoms
  Index Symbol   x (angstrom)   y (angstrom)   z (angstrom)
      1      C    -1.53751871     0.28813879    -0.06945133
      2      C    -1.79748245     0.30553115    -1.55148422
      3      O    -2.64792823    -0.44990683    -2.04637846
      4      N    -1.07282118     1.20057921    -2.28852001
      5      C    -1.18912306     1.22324311    -3.74628011
      6      C    -2.34980102    -0.47133097     0.87240825
      7      C    -1.79114450    -0.87654159     2.11239884
      8      C    -2.55778941    -1.56860601     3.04526284
      9      C    -3.89690288    -1.87889621     2.76752430
     10      C    -4.45688154    -1.49347233     1.54318544
     11      C    -3.69887139    -0.80297649     0.59825580
     12      O    -0.56101925     0.95445488     0.54409195
     13      N     0.44688065     1.64425144    -0.11857774
     14      C     1.27052317     2.25766702     0.81582911
     15      C     2.37275304     2.95939391     0.26274987
     16      C     3.28917054     3.60149834     1.09165107
     17      C     3.13368379     3.56994444     2.48478887
     18      C     2.03856911     2.88802934     3.03718976
     19      C     1.11040112     2.24005731     2.22512479
     20      H    -0.26523171     1.62840793    -1.82147082
     21      H    -0.66994808     2.10918491    -4.12185156
     22      H    -2.24292481     1.26411931    -4.03810488
     23      H    -0.74884101     0.32306151    -4.19835284
     24      H    -0.74675772    -0.66566070     2.32112091
     25      H    -2.10818548    -1.88067996     3.98558485
     26      H    -4.49371330    -2.42486736     3.49512092
     27      H    -5.49419272    -1.73300114     1.32017911
     28      H    -4.13435200    -0.51638454    -0.35088647
     29      H     2.49034781     2.97884703    -0.81842587
     30      H     4.13025703     4.13148544     0.64911208
     31      H     3.84953155     4.07327412     3.13021088
     32      H     1.90442359     2.86736165     4.11718987
     33      H     0.25919905     1.73418328     2.66745480

Total System Charge              0.00000

 *** GO1_GOStep5 ***

 Energy gradients wrt nuclear displacements
 ==========================================

     Atom      Cartesian (a.u./angstrom)
                 X         Y         Z
 ----------------------------------------
     1 C     0.001285 -0.004765 -0.002825
     2 C    -0.003486 -0.001223 -0.000550
     3 O     0.002823  0.001438  0.002040
     4 N    -0.004864  0.004021 -0.000273
     5 C     0.001223 -0.001740 -0.000669
     6 C    -0.001208  0.001492  0.001131
     7 C     0.000170  0.000202 -0.000539
     8 C     0.000491 -0.000337  0.000290
     9 C    -0.000016  0.000111  0.000120
    10 C    -0.000277 -0.000056 -0.000232
    11 C     0.001472  0.000273 -0.000826
    12 O    -0.000560  0.004451  0.002088
    13 N     0.000559 -0.004561  0.001113
    14 C     0.000146  0.001478  0.000727
    15 C    -0.000611 -0.000065 -0.000141
    16 C     0.000472  0.000193  0.000576
    17 C     0.000728  0.000192 -0.000774
    18 C    -0.001106 -0.000318  0.000053
    19 C     0.000436 -0.000534  0.000481
    20 H     0.001803 -0.000813 -0.000526
    21 H    -0.000331  0.000126  0.000082
    22 H     0.000449  0.000075 -0.000064
    23 H     0.000168  0.000066 -0.000157
    24 H    -0.000073 -0.000192 -0.000251
    25 H    -0.000153 -0.000005 -0.000264
    26 H     0.000101  0.000022 -0.000118
    27 H     0.000325  0.000084 -0.000020
    28 H    -0.000175 -0.000012 -0.000102
    29 H    -0.000173  0.000317  0.000085
    30 H    -0.000205 -0.000157  0.000173
    31 H    -0.000064 -0.000174 -0.000161
    32 H     0.000122 -0.000057 -0.000237
    33 H     0.000527  0.000469 -0.000232
 ----------------------------------------

 dE(predicted):    -0.98881E-03, dE(actual):    -0.66048E-03, Trust radius:    0.400000, all in a.u.
 
----------------------------------------------------------------------
Geometry Convergence after Step   5       (Hartree/Angstrom,Angstrom)
----------------------------------------------------------------------
current energy                               -7.53206569 Hartree
energy change                      -0.00066048     0.00033000    F
constrained gradient max            0.00485698     0.00010000    F
constrained gradient rms            0.00132515     0.00006667    F
gradient max                        0.00485698
gradient rms                        0.00132515
cart. step max                      0.07063100     0.01000000    F
cart. step rms                      0.02334666     0.00666667    F
 

--------
Geometry
--------
Formula: C15H14N2O2
Atoms
  Index Symbol   x (angstrom)   y (angstrom)   z (angstrom)
      1      C    -1.54264733     0.29179036    -0.07755958
      2      C    -1.79348981     0.29586896    -1.56017156
      3      O    -2.68844075    -0.41138811    -2.05173407
      4      N    -1.02486177     1.14776192    -2.30180711
      5      C    -1.19392056     1.22703324    -3.75210954
      6      C    -2.33980573    -0.48521947     0.86224279
      7      C    -1.78626702    -0.86111328     2.11441869
      8      C    -2.55299658    -1.54240949     3.05491607
      9      C    -3.88688480    -1.87247346     2.77520085
     10      C    -4.44427172    -1.51115379     1.54271339
     11      C    -3.68783410    -0.82847041     0.59112259
     12      O    -0.55150523     0.93733219     0.52886347
     13      N     0.40609543     1.70920469    -0.12651633
     14      C     1.25489039     2.27617346     0.81316480
     15      C     2.36592548     2.97061478     0.26683536
     16      C     3.28804773     3.59606516     1.10146432
     17      C     3.13338319     3.55196244     2.49478591
     18      C     2.03514158     2.87086931     3.04050159
     19      C     1.09743428     2.24382627     2.22257753
     20      H    -0.20835472     1.55777693    -1.83487889
     21      H    -0.64253045     2.09730756    -4.11806977
     22      H    -2.25526636     1.33038082    -3.99909675
     23      H    -0.81941236     0.32099545    -4.24884721
     24      H    -0.74834649    -0.62754216     2.33109699
     25      H    -2.10674207    -1.82961136     4.00491502
     26      H    -4.48333736    -2.40904626     3.51008129
     27      H    -5.47949133    -1.76074286     1.31993140
     28      H    -4.12176780    -0.55587691    -0.36277657
     29      H     2.48612492     2.99574147    -0.81400713
     30      H     4.13366621     4.12295050     0.66333466
     31      H     3.85275853     4.04429218     3.14491415
     32      H     1.90002263     2.84178681     4.12034881
     33      H     0.23899394     1.74570304     2.66079485

Total System Charge              0.00000

 *** GO1_GOStep6 ***

 Energy gradients wrt nuclear displacements
 ==========================================

     Atom      Cartesian (a.u./angstrom)
                 X         Y         Z
 ----------------------------------------
     1 C    -0.004294  0.004457  0.001311
     2 C     0.004080 -0.006219  0.000465
     3 O    -0.000482  0.001073  0.001669
     4 N    -0.002538  0.004133  0.001753
     5 C    -0.000592  0.000844 -0.001992
     6 C     0.002565 -0.000877 -0.003066
     7 C     0.000474 -0.000135  0.000037
     8 C    -0.000470  0.000626  0.000334
     9 C     0.000479 -0.000434 -0.000026
    10 C    -0.000327  0.000471 -0.000859
    11 C     0.000255  0.000555  0.000523
    12 O    -0.000772 -0.005431  0.000422
    13 N    -0.001139  0.004771  0.000973
    14 C     0.000450 -0.001366 -0.000676
    15 C     0.000435  0.000551  0.000068
    16 C     0.000073 -0.000427 -0.000084
    17 C     0.000132  0.000497  0.000082
    18 C     0.000011 -0.000754 -0.000509
    19 C     0.000035  0.000350  0.000667
    20 H     0.002285 -0.004142 -0.000916
    21 H    -0.000430  0.000091  0.000254
    22 H     0.000202  0.000055 -0.000308
    23 H     0.000271 -0.000080  0.000562
    24 H    -0.000105  0.000433 -0.000090
    25 H    -0.000079  0.000125 -0.000113
    26 H    -0.000033  0.000169 -0.000163
    27 H     0.000043  0.000020  0.000089
    28 H    -0.000346  0.000053 -0.000343
    29 H     0.000069 -0.000043  0.000018
    30 H    -0.000105  0.000084  0.000019
    31 H    -0.000153  0.000028 -0.000051
    32 H    -0.000091  0.000131 -0.000100
    33 H     0.000095  0.000391  0.000046
 ----------------------------------------

 dE(predicted):    -0.42082E-03, dE(actual):    -0.10071E-03, Trust radius:    0.400000, all in a.u.
 
----------------------------------------------------------------------
Geometry Convergence after Step   6       (Hartree/Angstrom,Angstrom)
----------------------------------------------------------------------
current energy                               -7.53216640 Hartree
energy change                      -0.00010071     0.00033000    T
constrained gradient max            0.00621521     0.00010000    F
constrained gradient rms            0.00154447     0.00006667    F
gradient max                        0.00621521
gradient rms                        0.00154447
cart. step max                      0.10373115     0.01000000    F
cart. step rms                      0.03284788     0.00666667    F
 

--------
Geometry
--------
Formula: C15H14N2O2
Atoms
  Index Symbol   x (angstrom)   y (angstrom)   z (angstrom)
      1      C    -1.54905554     0.30006844    -0.08677991
      2      C    -1.81346616     0.31731402    -1.56770754
      3      O    -2.69540218    -0.40328572    -2.06642039
      4      N    -1.04364049     1.17107194    -2.30675602
      5      C    -1.19851250     1.24277663    -3.75881061
      6      C    -2.33752876    -0.47755011     0.86197267
      7      C    -1.76433660    -0.86705930     2.10161517
      8      C    -2.51601865    -1.55620211     3.04865236
      9      C    -3.85604067    -1.87872377     2.79035188
     10      C    -4.43302378    -1.50545259     1.57053321
     11      C    -3.69122099    -0.81671970     0.61142055
     12      O    -0.54236168     0.93249333     0.50917261
     13      N     0.44317932     1.66518794    -0.15164823
     14      C     1.26644221     2.25162726     0.79801523
     15      C     2.40978745     2.90820313     0.27179688
     16      C     3.30825297     3.54955910     1.12016341
     17      C     3.09979796     3.55575163     2.50757538
     18      C     1.97140988     2.90934393     3.03344711
     19      C     1.05600819     2.26799414     2.20097205
     20      H    -0.25742934     1.62170957    -1.82551306
     21      H    -0.66196876     2.12351432    -4.12181397
     22      H    -2.25942314     1.32199450    -4.01628853
     23      H    -0.80004762     0.34394177    -4.24973018
     24      H    -0.72173621    -0.64051361     2.30229138
     25      H    -2.05359615    -1.85412063     3.98752346
     26      H    -4.44073302    -2.42107638     3.53033862
     27      H    -5.47225053    -1.75123162     1.36296645
     28      H    -4.13986020    -0.53696395    -0.33318344
     29      H     2.57293631     2.89201031    -0.80347027
     30      H     4.17944140     4.04674708     0.69785631
     31      H     3.80215819     4.05866077     3.16801422
     32      H     1.79632586     2.91664751     4.10786095
     33      H     0.17622325     1.79267216     2.62223222

Total System Charge              0.00000

 *** GO1_GOStep7 ***

 Energy gradients wrt nuclear displacements
 ==========================================

     Atom      Cartesian (a.u./angstrom)
                 X         Y         Z
 ----------------------------------------
     1 C    -0.003522  0.002683  0.000427
     2 C     0.000880 -0.000894  0.003512
     3 O    -0.000829 -0.001489 -0.002072
     4 N     0.000832  0.003444 -0.000061
     5 C     0.000603 -0.000958 -0.002196
     6 C     0.002436 -0.000975 -0.002314
     7 C    -0.000024 -0.000068  0.000547
     8 C     0.000105 -0.000002  0.000094
     9 C    -0.000142 -0.000209  0.000229
    10 C    -0.000187 -0.000033 -0.000071
    11 C    -0.001420  0.000122  0.000686
    12 O     0.001275 -0.001551  0.001492
    13 N     0.002921  0.002305 -0.001503
    14 C    -0.002443 -0.002134 -0.000376
    15 C     0.000902  0.000178 -0.000282
    16 C    -0.000088 -0.000317 -0.000531
    17 C    -0.000059  0.000707  0.000586
    18 C    -0.000217 -0.000508  0.000065
    19 C    -0.000285  0.000637 -0.000092
    20 H    -0.000405 -0.000694  0.000657
    21 H    -0.000350  0.000168  0.000317
    22 H     0.000267 -0.000174  0.000365
    23 H    -0.000051  0.000106 -0.000152
    24 H    -0.000224  0.000277 -0.000021
    25 H    -0.000114  0.000065 -0.000113
    26 H     0.000013  0.000108 -0.000124
    27 H     0.000126 -0.000002  0.000138
    28 H     0.000105 -0.000106  0.000664
    29 H     0.000179 -0.000135  0.000237
    30 H    -0.000122 -0.000085  0.000001
    31 H    -0.000111 -0.000151  0.000007
    32 H    -0.000061 -0.000018 -0.000179
    33 H     0.000010 -0.000294  0.000065
 ----------------------------------------

 dE(predicted):    -0.30880E-03, dE(actual):    -0.20814E-03, Trust radius:    0.400000, all in a.u.
 
----------------------------------------------------------------------
Geometry Convergence after Step   7       (Hartree/Angstrom,Angstrom)
----------------------------------------------------------------------
current energy                               -7.53237454 Hartree
energy change                      -0.00020814     0.00033000    T
constrained gradient max            0.00352501     0.00010000    F
constrained gradient rms            0.00106990     0.00006667    F
gradient max                        0.00352501
gradient rms                        0.00106990
cart. step max                      0.08361298     0.01000000    F
cart. step rms                      0.02731067     0.00666667    F
 

--------
Geometry
--------
Formula: C15H14N2O2
Atoms
  Index Symbol   x (angstrom)   y (angstrom)   z (angstrom)
      1      C    -1.53674338     0.28928938    -0.07250364
      2      C    -1.80828787     0.31496831    -1.55297528
      3      O    -2.69925333    -0.39716338    -2.04505599
      4      N    -1.03065346     1.15435566    -2.29727435
      5      C    -1.18855473     1.22204103    -3.74792822
      6      C    -2.34518449    -0.47094230     0.87492436
      7      C    -1.78638555    -0.87379979     2.11623084
      8      C    -2.55215313    -1.56621934     3.04947344
      9      C    -3.89106743    -1.87882875     2.77368502
     10      C    -4.45061619    -1.49908440     1.54779370
     11      C    -3.69353179    -0.80950321     0.60128301
     12      O    -0.54047545     0.93349783     0.52812104
     13      N     0.43989205     1.66703509    -0.13287458
     14      C     1.26990970     2.26299155     0.80689261
     15      C     2.38069261     2.95819700     0.26276473
     16      C     3.28977566     3.60092061     1.09900949
     17      C     3.12364498     3.56901537     2.49138466
     18      C     2.02305620     2.89024262     3.03499761
     19      C     1.09870418     2.24547765     2.21490179
     20      H    -0.23762059     1.59977641    -1.82211412
     21      H    -0.63629313     2.09035863    -4.11793376
     22      H    -2.24844976     1.31965559    -4.00443647
     23      H    -0.80731827     0.31353053    -4.23524012
     24      H    -0.74200522    -0.66283848     2.32585779
     25      H    -2.10111902    -1.87643638     3.99014637
     26      H    -4.48646818    -2.42512076     3.50250896
     27      H    -5.48698697    -1.74339053     1.32374040
     28      H    -4.12619921    -0.53047015    -0.35142640
     29      H     2.51058135     2.97153970    -0.81726355
     30      H     4.13730507     4.12691754     0.66319899
     31      H     3.83476987     4.07230603     3.14248236
     32      H     1.87993884     2.86985700     4.11419032
     33      H     0.24140665     1.74221396     2.65008898

Total System Charge              0.00000

 *** GO1_GOStep8 ***

 Energy gradients wrt nuclear displacements
 ==========================================

     Atom      Cartesian (a.u./angstrom)
                 X         Y         Z
 ----------------------------------------
     1 C     0.001124 -0.001379 -0.000680
     2 C    -0.002271  0.001264  0.000488
     3 O     0.001032 -0.000559  0.001062
     4 N    -0.001271  0.001436 -0.000109
     5 C     0.000834 -0.000720 -0.000438
     6 C    -0.001169  0.002041  0.001462
     7 C    -0.000308 -0.000181  0.000180
     8 C    -0.000106 -0.000489 -0.000380
     9 C     0.000062  0.000607  0.000211
    10 C    -0.000026  0.000025 -0.000351
    11 C     0.000995 -0.000423 -0.000310
    12 O     0.000346 -0.000215 -0.000563
    13 N     0.000284 -0.000374  0.000626
    14 C    -0.000088  0.000660 -0.000388
    15 C     0.000128 -0.000205  0.000191
    16 C    -0.000515  0.000614  0.000145
    17 C     0.000325 -0.000814 -0.000142
    18 C    -0.000234  0.000611 -0.000038
    19 C     0.000208 -0.000220 -0.000115
    20 H     0.000627 -0.000614 -0.000314
    21 H    -0.000157  0.000213  0.000070
    22 H    -0.000016 -0.000132  0.000236
    23 H     0.000237  0.000051 -0.000156
    24 H     0.000129 -0.000425 -0.000171
    25 H     0.000025 -0.000132  0.000060
    26 H    -0.000054 -0.000184 -0.000017
    27 H    -0.000120 -0.000091 -0.000065
    28 H    -0.000082 -0.000185 -0.000665
    29 H    -0.000002 -0.000064 -0.000091
    30 H     0.000145 -0.000006 -0.000035
    31 H     0.000034  0.000060  0.000091
    32 H     0.000041 -0.000052  0.000157
    33 H    -0.000157 -0.000120  0.000052
 ----------------------------------------

 dE(predicted):    -0.13753E-03, dE(actual):    -0.10499E-03, Trust radius:    0.400000, all in a.u.
 
----------------------------------------------------------------------
Geometry Convergence after Step   8       (Hartree/Angstrom,Angstrom)
----------------------------------------------------------------------
current energy                               -7.53247953 Hartree
energy change                      -0.00010499     0.00033000    T
constrained gradient max            0.00227890     0.00010000    F
constrained gradient rms            0.00058625     0.00006667    F
gradient max                        0.00227890
gradient rms                        0.00058625
cart. step max                      0.03068501     0.01000000    F
cart. step rms                      0.00820504     0.00666667    F
 

--------
Geometry
--------
Formula: C15H14N2O2
Atoms
  Index Symbol   x (angstrom)   y (angstrom)   z (angstrom)
      1      C    -1.54191855     0.28668621    -0.07902509
      2      C    -1.80155057     0.30606189    -1.56200820
      3      O    -2.69895000    -0.39481220    -2.05875980
      4      N    -1.01972867     1.14557431    -2.30079939
      5      C    -1.18509465     1.23141241    -3.74931122
      6      C    -2.34569223    -0.47929209     0.86791060
      7      C    -1.78655635    -0.86386472     2.11482694
      8      C    -2.54885781    -1.55102263     3.05464603
      9      C    -3.88440482    -1.87819658     2.77935201
     10      C    -4.44606987    -1.51126229     1.55059386
     11      C    -3.69327045    -0.82458085     0.59846414
     12      O    -0.55362288     0.93868383     0.52573615
     13      N     0.42879103     1.67275889    -0.13177721
     14      C     1.26297034     2.26301904     0.80847663
     15      C     2.37603106     2.95404273     0.26368240
     16      C     3.29014017     3.59047309     1.09929082
     17      C     3.12396906     3.56089987     2.49166194
     18      C     2.02198927     2.88514111     3.03610473
     19      C     1.09337721     2.24561638     2.21669446
     20      H    -0.23258044     1.59612883    -1.82064237
     21      H    -0.62743060     2.09906958    -4.11270273
     22      H    -2.24549671     1.33996388    -3.99959100
     23      H    -0.81362951     0.32540724    -4.24855840
     24      H    -0.74570300    -0.63798120     2.32639303
     25      H    -2.09760589    -1.84575137     4.00016733
     26      H    -4.47751765    -2.41932294     3.51384073
     27      H    -5.48175399    -1.76102200     1.32951730
     28      H    -4.12921440    -0.55019121    -0.35392156
     29      H     2.50403529     2.96871349    -0.81654096
     30      H     4.13903156     4.11364629     0.66280093
     31      H     3.83783215     4.06104452     3.14216562
     32      H     1.87926817     2.86576565     4.11534837
     33      H     0.23352372     1.74758083     2.65261389

Total System Charge              0.00000

 *** GO1_GOStep9 ***

 Energy gradients wrt nuclear displacements
 ==========================================

     Atom      Cartesian (a.u./angstrom)
                 X         Y         Z
 ----------------------------------------
     1 C     0.000020  0.000648  0.000210
     2 C     0.001259 -0.001797 -0.000556
     3 O     0.000211  0.000906  0.000264
     4 N    -0.001613  0.001350  0.000678
     5 C     0.000386 -0.000230 -0.000262
     6 C    -0.000052  0.000030  0.000494
     7 C    -0.000230 -0.000022 -0.000159
     8 C    -0.000207  0.000246 -0.000012
     9 C     0.000246 -0.000249 -0.000179
    10 C     0.000059  0.000218 -0.000104
    11 C     0.000196 -0.000113  0.000035
    12 O    -0.001247 -0.001071 -0.000820
    13 N    -0.000579 -0.000150  0.000525
    14 C     0.000994  0.000267 -0.000425
    15 C    -0.000103  0.000086  0.000258
    16 C     0.000067 -0.000127  0.000230
    17 C    -0.000121 -0.000010 -0.000197
    18 C     0.000156  0.000045 -0.000089
    19 C     0.000109  0.000025  0.000147
    20 H     0.000462 -0.000452 -0.000279
    21 H    -0.000169  0.000167  0.000012
    22 H     0.000069 -0.000157  0.000136
    23 H     0.000271  0.000020 -0.000017
    24 H     0.000129  0.000028 -0.000006
    25 H     0.000023 -0.000002  0.000061
    26 H    -0.000076  0.000016  0.000054
    27 H    -0.000088  0.000023 -0.000026
    28 H    -0.000153  0.000025 -0.000077
    29 H    -0.000067  0.000038 -0.000088
    30 H     0.000085  0.000062  0.000003
    31 H     0.000027  0.000063  0.000055
    32 H     0.000012 -0.000005  0.000127
    33 H    -0.000075  0.000122  0.000008
 ----------------------------------------

 dE(predicted):    -0.60156E-04, dE(actual):    -0.44333E-04, Trust radius:    0.400000, all in a.u.
 
----------------------------------------------------------------------
Geometry Convergence after Step   9       (Hartree/Angstrom,Angstrom)
----------------------------------------------------------------------
current energy                               -7.53252386 Hartree
energy change                      -0.00004433     0.00033000    T
constrained gradient max            0.00179697     0.00010000    F
constrained gradient rms            0.00043465     0.00006667    F
gradient max                        0.00179697
gradient rms                        0.00043465
cart. step max                      0.05504463     0.01000000    F
cart. step rms                      0.01775611     0.00666667    F
 

--------
Geometry
--------
Formula: C15H14N2O2
Atoms
  Index Symbol   x (angstrom)   y (angstrom)   z (angstrom)
      1      C    -1.54316244     0.28925910    -0.08758162
      2      C    -1.81426843     0.31907640    -1.56850393
      3      O    -2.73225175    -0.35792844    -2.06204333
      4      N    -1.00252110     1.12343936    -2.31316577
      5      C    -1.18669594     1.22904699    -3.75769965
      6      C    -2.33973975    -0.48154559     0.86161636
      7      C    -1.76915463    -0.87227547     2.10160441
      8      C    -2.52456570    -1.55793391     3.04797827
      9      C    -3.86531034    -1.87606410     2.78750072
     10      C    -4.43915849    -1.50090389     1.56699645
     11      C    -3.69378438    -0.81462273     0.60858725
     12      O    -0.54634062     0.93084719     0.51416192
     13      N     0.43644616     1.66670869    -0.14145562
     14      C     1.26182403     2.25844931     0.80534839
     15      C     2.38390390     2.94272005     0.27047135
     16      C     3.28830788     3.58275228     1.11377936
     17      C     3.10294871     3.56436613     2.50405119
     18      C     1.99336934     2.89322281     3.03851285
     19      C     1.07409262     2.25036112     2.21126267
     20      H    -0.20631861     1.55961411    -1.83464162
     21      H    -0.59185983     2.07029275    -4.12417237
     22      H    -2.24435132     1.39132862    -3.99063912
     23      H    -0.86867415     0.30959795    -4.26886374
     24      H    -0.72580512    -0.64984806     2.30390703
     25      H    -2.06437742    -1.85715016     3.98773594
     26      H    -4.45314704    -2.41549190     3.52738668
     27      H    -5.47931264    -1.74212274     1.35789373
     28      H    -4.13986442    -0.53033951    -0.33596711
     29      H     2.52693400     2.94876243    -0.80789940
     30      H     4.14400467     4.10107737     0.68498585
     31      H     3.80922403     4.06748715     3.16045349
     32      H     1.83591941     2.88185954     4.11576914
     33      H     0.20799939     1.75634716     2.63928023

Total System Charge              0.00000

 *** GO1_GOStep10 ***

 Energy gradients wrt nuclear displacements
 ==========================================

     Atom      Cartesian (a.u./angstrom)
                 X         Y         Z
 ----------------------------------------
     1 C    -0.000002  0.001438  0.000651
     2 C    -0.000670  0.001599  0.000003
     3 O     0.000749 -0.001153 -0.000741
     4 N    -0.000328 -0.000017  0.000237
     5 C    -0.000173  0.000617 -0.000086
     6 C     0.000808 -0.001404 -0.000617
     7 C    -0.000161  0.000248 -0.000100
     8 C    -0.000037  0.000159 -0.000121
     9 C     0.000018 -0.000124 -0.000075
    10 C     0.000092 -0.000005 -0.000022
    11 C    -0.000496  0.000413  0.000337
    12 O    -0.000190 -0.001527 -0.000147
    13 N    -0.000061  0.000944 -0.000089
    14 C    -0.000108 -0.000424  0.000239
    15 C    -0.000066  0.000226  0.000032
    16 C     0.000147 -0.000510  0.000037
    17 C    -0.000420  0.000461  0.000028
    18 C     0.000192 -0.000310 -0.000053
    19 C     0.000051  0.000208 -0.000056
    20 H     0.000767 -0.001356 -0.000128
    21 H    -0.000163 -0.000002  0.000047
    22 H     0.000007 -0.000170  0.000075
    23 H     0.000315  0.000093  0.000023
    24 H    -0.000065  0.000307  0.000135
    25 H     0.000018  0.000011  0.000024
    26 H    -0.000071  0.000076  0.000032
    27 H    -0.000041  0.000004 -0.000017
    28 H    -0.000066  0.000140  0.000291
    29 H     0.000010 -0.000014  0.000004
    30 H     0.000008  0.000059 -0.000012
    31 H     0.000045 -0.000015  0.000059
    32 H    -0.000079  0.000032  0.000014
    33 H    -0.000033 -0.000005 -0.000004
 ----------------------------------------

 dE(predicted):    -0.43196E-04, dE(actual):    -0.37874E-04, Trust radius:    0.400000, all in a.u.
 
----------------------------------------------------------------------
Geometry Convergence after Step  10       (Hartree/Angstrom,Angstrom)
----------------------------------------------------------------------
current energy                               -7.53256173 Hartree
energy change                      -0.00003787     0.00033000    T
constrained gradient max            0.00159708     0.00010000    F
constrained gradient rms            0.00044410     0.00006667    F
gradient max                        0.00159708
gradient rms                        0.00044410
cart. step max                      0.03897223     0.01000000    F
cart. step rms                      0.01069683     0.00666667    F
 

--------
Geometry
--------
Formula: C15H14N2O2
Atoms
  Index Symbol   x (angstrom)   y (angstrom)   z (angstrom)
      1      C    -1.54599111     0.29867829    -0.08685435
      2      C    -1.82305866     0.33045976    -1.56659077
      3      O    -2.76473563    -0.31895621    -2.05340798
      4      N    -0.99431785     1.11133730    -2.31710101
      5      C    -1.18759940     1.22125961    -3.75977320
      6      C    -2.33995598    -0.47299355     0.86405775
      7      C    -1.76444686    -0.86957884     2.10017552
      8      C    -2.51549281    -1.56195802     3.04518076
      9      C    -3.85611583    -1.88259116     2.78672599
     10      C    -4.43348071    -1.50526071     1.56859829
     11      C    -3.69266047    -0.81208942     0.61146431
     12      O    -0.54628995     0.93962336     0.51133156
     13      N     0.44001959     1.66854446    -0.14683668
     14      C     1.26145237     2.26157654     0.80250795
     15      C     2.39178807     2.93624248     0.27275886
     16      C     3.29308122     3.57568389     1.11989052
     17      C     3.09855669     3.56282894     2.50910503
     18      C     1.98073970     2.90130557     3.03831895
     19      C     1.06349681     2.26059125     2.20706963
     20      H    -0.20222929     1.55452209    -1.83818120
     21      H    -0.56836037     2.04176983    -4.13289996
     22      H    -2.24142359     1.41701176    -3.98486684
     23      H    -0.90419203     0.29119014    -4.27186077
     24      H    -0.72043471    -0.64820871     2.29973695
     25      H    -2.05171725    -1.86528788     3.98179294
     26      H    -4.43979582    -2.42895439     3.52471859
     27      H    -5.47246335    -1.75133165     1.35957474
     28      H    -4.13987184    -0.52871133    -0.33272875
     29      H     2.54353241     2.93556861    -0.80437640
     30      H     4.15514077     4.08667270     0.69525422
     31      H     3.80312924     4.06437859     3.16842951
     32      H     1.81577462     2.89484203     4.11443885
     33      H     0.19223200     1.77222467     2.63099699

Total System Charge              0.00000

 *** GO1_GOStep11 ***

 Energy gradients wrt nuclear displacements
 ==========================================

     Atom      Cartesian (a.u./angstrom)
                 X         Y         Z
 ----------------------------------------
     1 C    -0.000199  0.001785  0.000626
     2 C     0.001010 -0.000417 -0.000509
     3 O    -0.000922 -0.000570  0.000030
     4 N     0.000054  0.000447  0.000055
     5 C    -0.000240  0.000051  0.000467
     6 C     0.000298 -0.000705 -0.000099
     7 C    -0.000014 -0.000036 -0.000125
     8 C     0.000046 -0.000005 -0.000087
     9 C    -0.000151  0.000137  0.000095
    10 C    -0.000115 -0.000022 -0.000058
    11 C    -0.000092  0.000320 -0.000074
    12 O     0.001072 -0.000191  0.000412
    13 N     0.000356  0.000892 -0.001144
    14 C    -0.001139 -0.000785  0.000538
    15 C     0.000182 -0.000047 -0.000208
    16 C    -0.000076 -0.000076 -0.000221
    17 C    -0.000161  0.000118  0.000328
    18 C     0.000083 -0.000156  0.000096
    19 C    -0.000121  0.000197 -0.000191
    20 H     0.000137 -0.000496  0.000211
    21 H    -0.000004  0.000149 -0.000054
    22 H    -0.000074 -0.000312  0.000130
    23 H     0.000209  0.000131 -0.000152
    24 H    -0.000164  0.000033  0.000076
    25 H    -0.000006  0.000020 -0.000037
    26 H     0.000003 -0.000041 -0.000094
    27 H     0.000046 -0.000016 -0.000041
    28 H     0.000059 -0.000118 -0.000025
    29 H     0.000080 -0.000078  0.000101
    30 H    -0.000049 -0.000024  0.000013
    31 H    -0.000024 -0.000043  0.000021
    32 H    -0.000087  0.000019 -0.000072
    33 H     0.000002 -0.000166 -0.000009
 ----------------------------------------

 dE(predicted):    -0.39458E-04, dE(actual):    -0.48708E-04, Trust radius:    0.400000, all in a.u.
 
----------------------------------------------------------------------
Geometry Convergence after Step  11       (Hartree/Angstrom,Angstrom)
----------------------------------------------------------------------
current energy                               -7.53261044 Hartree
energy change                      -0.00004871     0.00033000    T
constrained gradient max            0.00178604     0.00010000    F
constrained gradient rms            0.00038143     0.00006667    F
gradient max                        0.00178604
gradient rms                        0.00038143
cart. step max                      0.07444424     0.01000000    F
cart. step rms                      0.01920928     0.00666667    F
 

--------
Geometry
--------
Formula: C15H14N2O2
Atoms
  Index Symbol   x (angstrom)   y (angstrom)   z (angstrom)
      1      C    -1.56213026     0.31579912    -0.08715264
      2      C    -1.84367584     0.35870710    -1.56635903
      3      O    -2.81289935    -0.25083310    -2.05061093
      4      N    -0.97868658     1.09170359    -2.32371720
      5      C    -1.16904921     1.19696244    -3.76672700
      6      C    -2.35234706    -0.45870831     0.86510797
      7      C    -1.76543650    -0.86340136     2.09359646
      8      C    -2.50545572    -1.56833573     3.03808875
      9      C    -3.84520280    -1.89703461     2.78509537
     10      C    -4.43290349    -1.51379420     1.57381254
     11      C    -3.70360801    -0.80706147     0.61741678
     12      O    -0.56375377     0.95806802     0.51352977
     13      N     0.43084920     1.67820979    -0.14110190
     14      C     1.25529041     2.26973535     0.80762279
     15      C     2.38245393     2.94796693     0.27589445
     16      C     3.28832007     3.58275426     1.12186489
     17      C     3.10227988     3.56012145     2.51206577
     18      C     1.98590233     2.89774742     3.04331521
     19      C     1.06405912     2.26176482     2.21325381
     20      H    -0.18980636     1.53872859    -1.84298406
     21      H    -0.49527317     1.96732559    -4.15207531
     22      H    -2.20739267     1.46134726    -3.99458771
     23      H    -0.95152833     0.24282284    -4.26636456
     24      H    -0.72034953    -0.64086425     2.28618611
     25      H    -2.03324408    -1.87695659     3.96868975
     26      H    -4.42005169    -2.45371810     3.52224456
     27      H    -5.47123738    -1.76600572     1.36910984
     28      H    -4.15797126    -0.51941977    -0.32192503
     29      H     2.52762793     2.95498237    -0.80209418
     30      H     4.14791510     4.09651511     0.69577093
     31      H     3.81026939     4.05802759     3.17041143
     32      H     1.82700187     2.88486678     4.12027603
     33      H     0.19434385     1.77236679     2.63899633

Total System Charge              0.00000

 *** GO1_GOStep12 ***

 Energy gradients wrt nuclear displacements
 ==========================================

     Atom      Cartesian (a.u./angstrom)
                 X         Y         Z
 ----------------------------------------
     1 C     0.000445 -0.000220  0.000293
     2 C     0.000191  0.000688 -0.001079
     3 O    -0.000351 -0.000154 -0.000257
     4 N    -0.000149 -0.000651 -0.000892
     5 C    -0.000530 -0.000170  0.001328
     6 C    -0.000357  0.000475  0.000953
     7 C     0.000189  0.000153 -0.000493
     8 C    -0.000021 -0.000004  0.000280
     9 C    -0.000009 -0.000182 -0.000016
    10 C    -0.000239 -0.000030  0.000086
    11 C    -0.000110 -0.000019 -0.000417
    12 O    -0.000307  0.000128 -0.000134
    13 N     0.000300  0.000110  0.000115
    14 C     0.000336  0.000023  0.000277
    15 C     0.000112 -0.000187 -0.000099
    16 C    -0.000098  0.000551 -0.000160
    17 C     0.000312 -0.000435  0.000314
    18 C     0.000033  0.000345  0.000212
    19 C    -0.000223 -0.000103 -0.000027
    20 H    -0.000128  0.000336  0.000201
    21 H     0.000190  0.000169 -0.000235
    22 H     0.000002 -0.000419  0.000183
    23 H     0.000244 -0.000006 -0.000388
    24 H    -0.000025 -0.000181 -0.000028
    25 H    -0.000042  0.000035 -0.000049
    26 H     0.000049 -0.000010 -0.000072
    27 H     0.000108  0.000078 -0.000025
    28 H     0.000140 -0.000216  0.000067
    29 H     0.000043 -0.000036  0.000109
    30 H    -0.000064 -0.000054  0.000097
    31 H    -0.000116  0.000013 -0.000062
    32 H    -0.000005 -0.000018 -0.000067
    33 H     0.000075 -0.000009 -0.000016
 ----------------------------------------

 dE(predicted):    -0.43990E-04, dE(actual):    -0.32690E-05, Trust radius:    0.047117, all in a.u.
 
----------------------------------------------------------------------
Geometry Convergence after Step  12       (Hartree/Angstrom,Angstrom)
----------------------------------------------------------------------
current energy                               -7.53261371 Hartree
energy change                      -0.00000327     0.00033000    T
constrained gradient max            0.00133129     0.00010000    F
constrained gradient rms            0.00031466     0.00006667    F
gradient max                        0.00133129
gradient rms                        0.00031466
cart. step max                      0.03949450     0.01000000    F
cart. step rms                      0.00994468     0.00666667    F
 

--------
Geometry
--------
Formula: C15H14N2O2
Atoms
  Index Symbol   x (angstrom)   y (angstrom)   z (angstrom)
      1      C    -1.56081549     0.31077969    -0.08371102
      2      C    -1.84567105     0.36508966    -1.56163336
      3      O    -2.82635052    -0.22547527    -2.04544923
      4      N    -0.97228065     1.08931482    -2.31815440
      5      C    -1.16391234     1.20546392    -3.76047897
      6      C    -2.35249958    -0.46481423     0.86615372
      7      C    -1.76528296    -0.87568509     2.09258153
      8      C    -2.50633865    -1.58146639     3.03552155
      9      C    -3.84770873    -1.90405852     2.78342765
     10      C    -4.43562416    -1.51476711     1.57422101
     11      C    -3.70539100    -0.80688393     0.61941834
     12      O    -0.55918656     0.94688998     0.51819452
     13      N     0.43929103     1.65871079    -0.13857402
     14      C     1.25859035     2.26194452     0.80695775
     15      C     2.38564844     2.93765371     0.27212948
     16      C     3.28800795     3.58163017     1.11481459
     17      C     3.09602447     3.57431190     2.50428036
     18      C     1.97990083     2.91381496     3.03852444
     19      C     1.06270171     2.26693406     2.21189187
     20      H    -0.17472238     1.52115968    -1.83785758
     21      H    -0.46922658     1.95751421    -4.14452147
     22      H    -2.19455516     1.50084177    -3.98572950
     23      H    -0.97503803     0.24697239    -4.26321527
     24      H    -0.71948594    -0.65599182     2.28499089
     25      H    -2.03409163    -1.89460744     3.96462913
     26      H    -4.42375467    -2.46063801     3.51977939
     27      H    -5.47530954    -1.76231057     1.37034763
     28      H    -4.16072421    -0.51216459    -0.31738805
     29      H     2.53370700     2.93524451    -0.80553826
     30      H     4.14788263     4.09313958     0.68646120
     31      H     3.80072293     4.08033752     3.16005345
     32      H     1.81730314     2.91161470     4.11505629
     33      H     0.19249936     1.77989041     2.63946633

Total System Charge              0.00000

 *** GO1_GOStep13 ***

 Energy gradients wrt nuclear displacements
 ==========================================

     Atom      Cartesian (a.u./angstrom)
                 X         Y         Z
 ----------------------------------------
     1 C     0.000462 -0.000013  0.000174
     2 C    -0.000306 -0.000065 -0.000897
     3 O     0.000414  0.000461  0.000352
     4 N    -0.000221 -0.000412 -0.000286
     5 C    -0.000367  0.000145  0.000808
     6 C    -0.000434  0.000096  0.000829
     7 C     0.000039  0.000133 -0.000456
     8 C    -0.000033 -0.000174  0.000125
     9 C     0.000015  0.000061  0.000005
    10 C    -0.000079 -0.000098  0.000023
    11 C     0.000287  0.000114 -0.000255
    12 O    -0.000283  0.000160 -0.000107
    13 N    -0.000242 -0.000659 -0.000257
    14 C     0.000366  0.000362  0.000342
    15 C    -0.000200 -0.000006 -0.000056
    16 C     0.000160 -0.000069 -0.000011
    17 C    -0.000044  0.000125  0.000053
    18 C     0.000013  0.000065  0.000094
    19 C    -0.000078 -0.000139 -0.000084
    20 H     0.000106  0.000161 -0.000025
    21 H     0.000079  0.000083 -0.000179
    22 H     0.000117 -0.000373  0.000089
    23 H     0.000236 -0.000012 -0.000248
    24 H     0.000020 -0.000035  0.000017
    25 H    -0.000032  0.000013 -0.000012
    26 H     0.000017  0.000009 -0.000022
    27 H     0.000039  0.000020 -0.000047
    28 H    -0.000002 -0.000021 -0.000043
    29 H     0.000002  0.000055  0.000043
    30 H    -0.000039 -0.000018  0.000055
    31 H    -0.000013  0.000009 -0.000005
    32 H    -0.000017 -0.000037 -0.000018
    33 H     0.000017  0.000056 -0.000004
 ----------------------------------------

 dE(predicted):    -0.18834E-04, dE(actual):    -0.30858E-04, Trust radius:    0.094234, all in a.u.
 
----------------------------------------------------------------------
Geometry Convergence after Step  13       (Hartree/Angstrom,Angstrom)
----------------------------------------------------------------------
current energy                               -7.53264457 Hartree
energy change                      -0.00003086     0.00033000    T
constrained gradient max            0.00089299     0.00010000    F
constrained gradient rms            0.00023951     0.00006667    F
gradient max                        0.00089299
gradient rms                        0.00023951
cart. step max                      0.04620316     0.01000000    F
cart. step rms                      0.01079914     0.00666667    F
 

--------
Geometry
--------
Formula: C15H14N2O2
Atoms
  Index Symbol   x (angstrom)   y (angstrom)   z (angstrom)
      1      C    -1.56819896     0.31700681    -0.08306470
      2      C    -1.85610452     0.37965614    -1.55965541
      3      O    -2.84896763    -0.19132274    -2.04301540
      4      N    -0.96707644     1.08420484    -2.31743296
      5      C    -1.15547921     1.20364081    -3.76042309
      6      C    -2.35509098    -0.46553393     0.86474030
      7      C    -1.76497070    -0.87449384     2.09094575
      8      C    -2.50195333    -1.58354114     3.03444654
      9      C    -3.84213827    -1.91209489     2.78369508
     10      C    -4.43287961    -1.52500378     1.57522495
     11      C    -3.70701864    -0.81336091     0.61986419
     12      O    -0.56548574     0.95194501     0.51957724
     13      N     0.43334712     1.66342201    -0.13740648
     14      C     1.25370482     2.26555528     0.80729334
     15      C     2.38373063     2.93561139     0.27150015
     16      C     3.28794551     3.57827615     1.11307525
     17      C     3.09621228     3.57320027     2.50254398
     18      C     1.97719683     2.91836105     3.03777680
     19      C     1.05748707     2.27377126     2.21223660
     20      H    -0.16525038     1.50666562    -1.83601389
     21      H    -0.42635269     1.92047566    -4.14735502
     22      H    -2.17101784     1.54704493    -3.98739633
     23      H    -1.01267871     0.23484511    -4.25804210
     24      H    -0.72027095    -0.64938392     2.28287060
     25      H    -2.02740536    -1.89463636     3.96305013
     26      H    -4.41499716    -2.47127889     3.52054375
     27      H    -5.47176092    -1.77695918     1.37258239
     28      H    -4.16491581    -0.51874443    -0.31571547
     29      H     2.53225093     2.93010867    -0.80610475
     30      H     4.14987818     4.08565374     0.68392218
     31      H     3.80277007     4.07752687     3.15759578
     32      H     1.81431020     2.91922625     4.11426779
     33      H     0.18549019     1.79054615     2.64052282

Total System Charge              0.00000

 *** GO1_GOStep14 ***

 Energy gradients wrt nuclear displacements
 ==========================================

     Atom      Cartesian (a.u./angstrom)
                 X         Y         Z
 ----------------------------------------
     1 C     0.000059 -0.000085  0.000041
     2 C    -0.000805  0.000515  0.000136
     3 O     0.000065 -0.000058  0.000220
     4 N     0.000613 -0.000120  0.000001
     5 C    -0.000196  0.000355  0.000065
     6 C    -0.000146 -0.000408 -0.000050
     7 C     0.000056  0.000018 -0.000154
     8 C    -0.000087 -0.000065  0.000173
     9 C     0.000043  0.000039  0.000023
    10 C    -0.000098  0.000037  0.000031
    11 C     0.000239  0.000046 -0.000104
    12 O    -0.000064  0.000378  0.000134
    13 N    -0.000151 -0.000264 -0.000397
    14 C     0.000126  0.000347  0.000138
    15 C    -0.000099 -0.000228 -0.000022
    16 C    -0.000034  0.000174  0.000012
    17 C     0.000127 -0.000064 -0.000030
    18 C    -0.000053 -0.000008  0.000043
    19 C    -0.000046 -0.000076  0.000022
    20 H     0.000156 -0.000237 -0.000089
    21 H    -0.000053  0.000011 -0.000017
    22 H     0.000156 -0.000293  0.000028
    23 H     0.000185 -0.000042 -0.000117
    24 H    -0.000000  0.000043  0.000010
    25 H    -0.000041  0.000013 -0.000036
    26 H     0.000028  0.000001 -0.000039
    27 H     0.000044 -0.000002 -0.000010
    28 H    -0.000021 -0.000012 -0.000033
    29 H     0.000034  0.000001  0.000020
    30 H    -0.000037 -0.000029  0.000036
    31 H    -0.000026 -0.000015 -0.000029
    32 H    -0.000037  0.000029 -0.000022
    33 H     0.000063  0.000002  0.000014
 ----------------------------------------

 dE(predicted):    -0.12534E-04, dE(actual):    -0.11844E-04, Trust radius:    0.188469, all in a.u.
 
----------------------------------------------------------------------
Geometry Convergence after Step  14       (Hartree/Angstrom,Angstrom)
----------------------------------------------------------------------
current energy                               -7.53265641 Hartree
energy change                      -0.00001184     0.00033000    T
constrained gradient max            0.00081100     0.00010000    F
constrained gradient rms            0.00017045     0.00006667    F
gradient max                        0.00081100
gradient rms                        0.00017045
cart. step max                      0.01977818     0.01000000    F
cart. step rms                      0.00412445     0.00666667    T
 

--------
Geometry
--------
Formula: C15H14N2O2
Atoms
  Index Symbol   x (angstrom)   y (angstrom)   z (angstrom)
      1      C    -1.56413156     0.31034695    -0.08490497
      2      C    -1.85363535     0.37595296    -1.56089784
      3      O    -2.84709134    -0.19377754    -2.04479549
      4      N    -0.96758184     1.08510386    -2.31782150
      5      C    -1.15669827     1.20757149    -3.76071367
      6      C    -2.35225345    -0.47023080     0.86327043
      7      C    -1.76237933    -0.88022841     2.08944933
      8      C    -2.50067360    -1.58609653     3.03412140
      9      C    -3.84244651    -1.90981096     2.78550886
     10      C    -4.43319719    -1.52149761     1.57749613
     11      C    -3.70604632    -0.81298563     0.62084812
     12      O    -0.56034570     0.94333909     0.51828822
     13      N     0.43662228     1.65831924    -0.13753477
     14      C     1.25499168     2.26233605     0.80722089
     15      C     2.38469607     2.93340824     0.27185434
     16      C     3.28673365     3.57886020     1.11353884
     17      C     3.09235559     3.57687115     2.50261379
     18      C     1.97333935     2.92167415     3.03734965
     19      C     1.05603807     2.27385344     2.21173525
     20      H    -0.16515362     1.50619750    -1.83627882
     21      H    -0.41759965     1.91377753    -4.14803224
     22      H    -2.16724667     1.56682311    -3.98658833
     23      H    -1.02918885     0.23662980    -4.25798999
     24      H    -0.71657462    -0.65899711     2.27988207
     25      H    -2.02603962    -1.89821177     3.96239087
     26      H    -4.41666662    -2.46573096     3.52383368
     27      H    -5.47352974    -1.76918681     1.37672922
     28      H    -4.16439866    -0.51632681    -0.31389325
     29      H     2.53483209     2.92589854    -0.80555212
     30      H     4.14861437     4.08669154     0.68465241
     31      H     3.79698218     4.08375199     3.15784726
     32      H     1.80855589     2.92497492     4.11358424
     33      H     0.18342729     1.79108921     2.63943800

Total System Charge              0.00000

 *** GO1_GOStep15 ***

 Energy gradients wrt nuclear displacements
 ==========================================

     Atom      Cartesian (a.u./angstrom)
                 X         Y         Z
 ----------------------------------------
     1 C    -0.000044 -0.000152 -0.000100
     2 C    -0.000175 -0.000060  0.000506
     3 O    -0.000162  0.000181 -0.000071
     4 N     0.000188  0.000075  0.000008
     5 C     0.000044  0.000254 -0.000396
     6 C     0.000107 -0.000196 -0.000525
     7 C    -0.000060  0.000095  0.000253
     8 C     0.000001 -0.000025 -0.000074
     9 C    -0.000011  0.000077 -0.000005
    10 C     0.000107 -0.000057 -0.000042
    11 C    -0.000058 -0.000013  0.000205
    12 O     0.000035 -0.000029  0.000098
    13 N    -0.000017  0.000096  0.000181
    14 C     0.000091  0.000071 -0.000018
    15 C    -0.000135 -0.000021  0.000056
    16 C    -0.000024 -0.000039  0.000085
    17 C     0.000000 -0.000010 -0.000121
    18 C    -0.000085 -0.000031 -0.000086
    19 C     0.000043  0.000044 -0.000017
    20 H     0.000093 -0.000284 -0.000056
    21 H    -0.000123  0.000028  0.000057
    22 H     0.000086 -0.000132  0.000047
    23 H     0.000187 -0.000053 -0.000048
    24 H     0.000002  0.000018 -0.000009
    25 H    -0.000011 -0.000010 -0.000003
    26 H    -0.000030  0.000021  0.000016
    27 H    -0.000039 -0.000019  0.000011
    28 H    -0.000023  0.000080  0.000021
    29 H     0.000021  0.000012 -0.000026
    30 H     0.000014  0.000012 -0.000012
    31 H     0.000008  0.000015  0.000017
    32 H    -0.000022  0.000012  0.000020
    33 H    -0.000012  0.000041  0.000026
 ----------------------------------------

 dE(predicted):    -0.64555E-05, dE(actual):    -0.15657E-04, Trust radius:    0.188469, all in a.u.
 
----------------------------------------------------------------------
Geometry Convergence after Step  15       (Hartree/Angstrom,Angstrom)
----------------------------------------------------------------------
current energy                               -7.53267207 Hartree
energy change                      -0.00001566     0.00033000    T
constrained gradient max            0.00052256     0.00010000    F
constrained gradient rms            0.00012127     0.00006667    F
gradient max                        0.00052256
gradient rms                        0.00012127
cart. step max                      0.02558475     0.01000000    F
cart. step rms                      0.00680807     0.00666667    F
 

--------
Geometry
--------
Formula: C15H14N2O2
Atoms
  Index Symbol   x (angstrom)   y (angstrom)   z (angstrom)
      1      C    -1.56177829     0.30654538    -0.08563852
      2      C    -1.84794043     0.36711975    -1.56209526
      3      O    -2.83022414    -0.21936230    -2.04906465
      4      N    -0.97257292     1.09204785    -2.31631385
      5      C    -1.15813744     1.21033143    -3.76033196
      6      C    -2.35077288    -0.47211974     0.86305079
      7      C    -1.76400086    -0.87772639     2.09239809
      8      C    -2.50452235    -1.58036570     3.03750089
      9      C    -3.84541651    -1.90609948     2.78646324
     10      C    -4.43298633    -1.52277072     1.57534032
     11      C    -3.70360568    -0.81747105     0.61810931
     12      O    -0.56044646     0.94349543     0.51777938
     13      N     0.43287753     1.66365454    -0.13772773
     14      C     1.25374711     2.26382801     0.80671410
     15      C     2.38071057     2.93944754     0.27078754
     16      C     3.28481119     3.58190466     1.11246975
     17      C     3.09402869     3.57472349     2.50202833
     18      C     1.97849762     2.91426401     3.03749019
     19      C     1.05953871     2.26869983     2.21198289
     20      H    -0.17496309     1.52065621    -1.83346054
     21      H    -0.40357790     1.89852740    -4.14993572
     22      H    -2.16024833     1.59118778    -3.99055946
     23      H    -1.05144933     0.23364528    -4.25050260
     24      H    -0.71898525    -0.65480994     2.28511020
     25      H    -2.03229236    -1.88834983     3.96844235
     26      H    -4.42151204    -2.45917982     3.52553170
     27      H    -5.47264383    -1.77196374     1.37262308
     28      H    -4.15943937    -0.52490387    -0.31920785
     29      H     2.52698560     2.93717939    -0.80720404
     30      H     4.14442237     4.09322634     0.68298074
     31      H     3.79989298     4.07983459     3.15738053
     32      H     1.81748038     2.91240007     4.11433534
     33      H     0.18883305     1.78279362     2.64017339

Total System Charge              0.00000

 *** GO1_GOStep16 ***

 Energy gradients wrt nuclear displacements
 ==========================================

     Atom      Cartesian (a.u./angstrom)
                 X         Y         Z
 ----------------------------------------
     1 C    -0.000315 -0.000419 -0.000341
     2 C     0.000382 -0.000186  0.001016
     3 O    -0.000355 -0.000029 -0.000257
     4 N     0.000006  0.000221  0.000351
     5 C     0.000279  0.000211 -0.000992
     6 C     0.000267  0.000425 -0.000875
     7 C    -0.000029 -0.000288  0.000674
     8 C     0.000085  0.000183 -0.000293
     9 C    -0.000059 -0.000033 -0.000056
    10 C     0.000253  0.000034 -0.000036
    11 C    -0.000370 -0.000316  0.000345
    12 O     0.000195  0.000034  0.000073
    13 N     0.000044  0.000374  0.000471
    14 C    -0.000209 -0.000424 -0.000454
    15 C     0.000019  0.000291  0.000120
    16 C     0.000129 -0.000449  0.000158
    17 C    -0.000317  0.000316 -0.000181
    18 C     0.000070 -0.000181 -0.000141
    19 C     0.000076  0.000123  0.000022
    20 H     0.000008 -0.000276 -0.000059
    21 H    -0.000174  0.000039  0.000168
    22 H     0.000013  0.000078  0.000077
    23 H     0.000202 -0.000061  0.000062
    24 H    -0.000019  0.000020 -0.000009
    25 H     0.000021  0.000014  0.000048
    26 H    -0.000083  0.000023  0.000065
    27 H    -0.000114 -0.000027  0.000024
    28 H     0.000029  0.000114  0.000005
    29 H    -0.000053  0.000028 -0.000072
    30 H     0.000075  0.000084 -0.000062
    31 H     0.000043  0.000023  0.000068
    32 H     0.000033  0.000010  0.000078
    33 H    -0.000130  0.000044  0.000005
 ----------------------------------------

 dE(predicted):    -0.10902E-04, dE(actual):    -0.17217E-04, Trust radius:    0.188469, all in a.u.
 
----------------------------------------------------------------------
Geometry Convergence after Step  16       (Hartree/Angstrom,Angstrom)
----------------------------------------------------------------------
current energy                               -7.53268929 Hartree
energy change                      -0.00001722     0.00033000    T
constrained gradient max            0.00101926     0.00010000    F
constrained gradient rms            0.00026552     0.00006667    F
gradient max                        0.00101926
gradient rms                        0.00026552
cart. step max                      0.07853883     0.01000000    F
cart. step rms                      0.01379457     0.00666667    F
 

--------
Geometry
--------
Formula: C15H14N2O2
Atoms
  Index Symbol   x (angstrom)   y (angstrom)   z (angstrom)
      1      C    -1.56060322     0.30867575    -0.08777463
      2      C    -1.84790502     0.36851828    -1.56388241
      3      O    -2.83236137    -0.21505210    -2.05003107
      4      N    -0.97101327     1.08743606    -2.32058005
      5      C    -1.16190666     1.20182145    -3.76395982
      6      C    -2.34931514    -0.46799002     0.86275346
      7      C    -1.76016972    -0.87615220     2.09022528
      8      C    -2.49887483    -1.58062232     3.03524232
      9      C    -3.84012266    -1.90658852     2.78586508
     10      C    -4.43015937    -1.52025601     1.57694211
     11      C    -3.70277938    -0.81262365     0.61985457
     12      O    -0.55835862     0.94499764     0.51476862
     13      N     0.43489011     1.66582365    -0.13939056
     14      C     1.25411790     2.26512466     0.80696877
     15      C     2.38009562     2.94514717     0.27414928
     16      C     3.28140749     3.58790967     1.11859015
     17      C     3.08987865     3.57537255     2.50808768
     18      C     1.97537806     2.91084923     3.04050131
     19      C     1.05878518     2.26549516     2.21216268
     20      H    -0.17735030     1.52499816    -1.83921721
     21      H    -0.36372044     1.82976222    -4.16801025
     22      H    -2.13642390     1.65080772    -3.99351059
     23      H    -1.12998816     0.21362913    -4.24023857
     24      H    -0.71448598    -0.65471588     2.28100853
     25      H    -2.02459272    -1.89100509     3.96441484
     26      H    -4.41440717    -2.46211666     3.52453629
[...]
     28      H    0.0000026787   -0.0000023190   -0.0000073416
     29      H    0.0000030258    0.0000010408    0.0000067462
     30      H    0.0000032134   -0.0000020134    0.0000121533
     31      H   -0.0000028198   -0.0000019958    0.0000094846
     32      H   -0.0000045134   -0.0000023475    0.0000052371
     33      H    0.0000001890   -0.0000010936    0.0000013410


--------------
Atomic charges
--------------
  Index   Atom    Charge
      1      C    0.2871
      2      C    0.5519
      3      O   -0.5981
      4      N   -0.1527
      5      C    0.7962
      6      C   -0.0557
      7      C    0.2269
      8      C    0.2219
      9      C    0.2218
     10      C    0.2189
     11      C    0.2418
     12      O   -0.3302
     13      N   -0.1362
     14      C    0.0945
     15      C    0.2114
     16      C    0.2222
     17      C    0.1995
     18      C    0.2355
     19      C    0.1653
     20      H    0.0234
     21      H   -0.2400
     22      H   -0.1824
     23      H   -0.1805
     24      H   -0.1917
     25      H   -0.2202
     26      H   -0.2102
     27      H   -0.2183
     28      H   -0.1531
     29      H   -0.2096
     30      H   -0.2187
     31      H   -0.2124
     32      H   -0.2258
     33      H   -0.1823


Dipole moment vector    (Debye):     1.19821756    0.67467144    1.19848684
              magnitude (Debye):     1.82408267


-----------------------
Molecular orbitals info
-----------------------
n orbitals:              648
n spin:                    1

Note: only printing virtual orbitals with
      energy smaller than HOMO + 100. eV

HOMO (eV):              -4.9071
LUMO (eV):              -3.6961
HOMO-LUMO gap (eV):      1.2110

   Index   Energy (eV)    Occupation
     410       95.0560         0.000       
     409       94.8353         0.000       
     408       94.5214         0.000       
     407       94.1762         0.000       
     406       94.0901         0.000       
     405       93.8615         0.000       
     404       93.8052         0.000       
     403       93.1951         0.000       
     402       92.7721         0.000       
     401       92.7529         0.000       
     400       92.4078         0.000       
     399       92.1443         0.000       
     398       91.9793         0.000       
     397       91.7153         0.000       
     396       91.2244         0.000       
     395       91.1046         0.000       
     394       90.9060         0.000       
     393       89.8689         0.000       
     392       89.6383         0.000       
     391       89.3203         0.000       
     390       89.1130         0.000       
     389       88.3142         0.000       
     388       87.2611         0.000       
     387       87.0882         0.000       
     386       86.9284         0.000       
     385       86.5424         0.000       
     384       86.2887         0.000       
     383       86.1323         0.000       
     382       85.8503         0.000       
     381       85.7042         0.000       
     380       85.4120         0.000       
     379       84.9966         0.000       
     378       84.6078         0.000       
     377       83.8718         0.000       
     376       83.6335         0.000       
     375       83.0461         0.000       
     374       82.8084         0.000       
     373       82.3745         0.000       
     372       82.2914         0.000       
     371       81.8082         0.000       
     370       81.2693         0.000       
     369       80.6664         0.000       
     368       80.5730         0.000       
     367       80.3985         0.000       
     366       80.3606         0.000       
     365       80.0629         0.000       
     364       80.0394         0.000       
     363       79.9443         0.000       
     362       79.6054         0.000       
     361       79.4288         0.000       
     360       78.7857         0.000       
     359       78.3534         0.000       
     358       77.8522         0.000       
     357       77.3644         0.000       
     356       77.2368         0.000       
     355       76.9606         0.000       
     354       76.6847         0.000       
     353       76.3474         0.000       
     352       75.9040         0.000       
     351       75.8845         0.000       
     350       75.1367         0.000       
     349       75.0243         0.000       
     348       74.8983         0.000       
     347       74.6033         0.000       
     346       74.0737         0.000       
     345       73.7150         0.000       
     344       73.5400         0.000       
     343       73.2889         0.000       
     342       72.9043         0.000       
     341       72.7418         0.000       
     340       72.1556         0.000       
     339       71.7512         0.000       
     338       71.5044         0.000       
     337       70.7123         0.000       
     336       69.6897         0.000       
     335       69.2842         0.000       
     334       68.9017         0.000       
     333       68.0404         0.000       
     332       67.9069         0.000       
     331       67.8435         0.000       
     330       67.1661         0.000       
     329       66.5793         0.000       
     328       66.3632         0.000       
     327       65.9521         0.000       
     326       65.4648         0.000       
     325       65.1005         0.000       
     324       65.0664         0.000       
     323       64.6507         0.000       
     322       64.2184         0.000       
     321       63.8212         0.000       
     320       63.7265         0.000       
     319       63.5717         0.000       
     318       63.3405         0.000       
     317       62.9581         0.000       
     316       62.6510         0.000       
     315       62.4324         0.000       
     314       62.2112         0.000       
     313       61.7807         0.000       
     312       61.4274         0.000       
     311       61.1660         0.000       
     310       60.8593         0.000       
     309       60.8204         0.000       
     308       60.4004         0.000       
     307       59.6188         0.000       
     306       58.7463         0.000       
     305       58.5938         0.000       
     304       57.7664         0.000       
     303       56.9825         0.000       
     302       56.7782         0.000       
     301       56.0184         0.000       
     300       55.6972         0.000       
     299       55.5927         0.000       
     298       55.2690         0.000       
     297       54.7888         0.000       
     296       54.7455         0.000       
     295       54.6473         0.000       
     294       54.1541         0.000       
     293       53.7090         0.000       
     292       53.4932         0.000       
     291       53.2815         0.000       
     290       53.1869         0.000       
     289       52.8679         0.000       
     288       52.1884         0.000       
     287       51.7576         0.000       
     286       51.3746         0.000       
     285       51.3308         0.000       
     284       51.0707         0.000       
     283       50.8338         0.000       
     282       50.4221         0.000       
     281       50.1974         0.000       
     280       50.0023         0.000       
     279       49.8694         0.000       
     278       49.7866         0.000       
     277       49.4622         0.000       
     276       49.2975         0.000       
     275       48.7848         0.000       
     274       48.6165         0.000       
     273       48.5117         0.000       
     272       48.0235         0.000       
     271       47.8176         0.000       
     270       46.8401         0.000       
     269       46.2079         0.000       
     268       46.0585         0.000       
     267       45.5568         0.000       
     266       44.9013         0.000       
     265       44.6659         0.000       
     264       43.7244         0.000       
     263       43.4631         0.000       
     262       43.3143         0.000       
     261       43.1474         0.000       
     260       42.6880         0.000       
     259       42.3812         0.000       
     258       42.1920         0.000       
     257       41.7846         0.000       
     256       41.0120         0.000       
     255       40.6541         0.000       
     254       40.5149         0.000       
     253       40.1501         0.000       
     252       40.0755         0.000       
     251       39.9033         0.000       
     250       39.5903         0.000       
     249       39.2692         0.000       
     248       38.9340         0.000       
     247       38.7389         0.000       
     246       38.5931         0.000       
     245       38.3748         0.000       
     244       38.0214         0.000       
     243       37.7493         0.000       
     242       37.4903         0.000       
     241       37.2676         0.000       
     240       37.1191         0.000       
     239       36.8444         0.000       
     238       36.4964         0.000       
     237       36.1746         0.000       
     236       36.0688         0.000       
     235       35.8476         0.000       
     234       35.7927         0.000       
     233       35.5192         0.000       
     232       35.3263         0.000       
     231       35.0764         0.000       
     230       34.8605         0.000       
     229       34.4932         0.000       
     228       34.1609         0.000       
     227       33.5510         0.000       
     226       33.0535         0.000       
     225       32.8084         0.000       
     224       31.9955         0.000       
     223       31.8606         0.000       
     222       31.3063         0.000       
     221       31.2437         0.000       
     220       31.1012         0.000       
     219       30.6719         0.000       
     218       30.4159         0.000       
     217       30.2449         0.000       
     216       29.9993         0.000       
     215       29.8613         0.000       
     214       29.1734         0.000       
     213       28.8964         0.000       
     212       28.7462         0.000       
     211       28.4154         0.000       
     210       28.3083         0.000       
     209       28.1031         0.000       
     208       28.0088         0.000       
     207       27.8061         0.000       
     206       27.5709         0.000       
     205       27.4460         0.000       
     204       27.0311         0.000       
     203       26.7317         0.000       
     202       26.6153         0.000       
     201       26.2422         0.000       
     200       25.9541         0.000       
     199       25.8558         0.000       
     198       25.5865         0.000       
     197       25.3309         0.000       
     196       25.2793         0.000       
     195       24.9664         0.000       
     194       24.5029         0.000       
     193       24.1660         0.000       
     192       23.8945         0.000       
     191       23.7536         0.000       
     190       23.4622         0.000       
     189       23.3383         0.000       
     188       23.0456         0.000       
     187       22.9715         0.000       
     186       22.6773         0.000       
     185       22.3450         0.000       
     184       22.1295         0.000       
     183       21.5381         0.000       
     182       21.1727         0.000       
     181       21.0418         0.000       
     180       20.7209         0.000       
     179       20.3492         0.000       
     178       20.2448         0.000       
     177       19.9205         0.000       
     176       19.7814         0.000       
     175       19.7195         0.000       
     174       19.4384         0.000       
     173       18.9004         0.000       
     172       18.4830         0.000       
     171       18.2357         0.000       
     170       18.1012         0.000       
     169       17.8158         0.000       
     168       17.7525         0.000       
     167       17.5394         0.000       
     166       17.4061         0.000       
     165       17.1089         0.000       
     164       16.9657         0.000       
     163       16.5802         0.000       
     162       16.3826         0.000       
     161       16.3446         0.000       
     160       15.9028         0.000       
     159       15.2550         0.000       
     158       14.5331         0.000       
     157       14.3119         0.000       
     156       14.0492         0.000       
     155       13.8493         0.000       
     154       13.7796         0.000       
     153       13.6272         0.000       
     152       13.3892         0.000       
     151       13.2941         0.000       
     150       12.6638         0.000       
     149       12.5921         0.000       
     148       12.4669         0.000       
     147       12.2276         0.000       
     146       12.0055         0.000       
     145       11.5621         0.000       
     144       11.3909         0.000       
     143       11.0619         0.000       
     142       10.9442         0.000       
     141       10.7312         0.000       
     140       10.4923         0.000       
     139       10.1057         0.000       
     138        9.9942         0.000       
     137        9.9191         0.000       
     136        9.8071         0.000       
     135        9.6511         0.000       
     134        9.5726         0.000       
     133        9.4484         0.000       
     132        9.2746         0.000       
     131        9.2181         0.000       
     130        9.0637         0.000       
     129        9.0164         0.000       
     128        8.8973         0.000       
     127        8.5949         0.000       
     126        8.4363         0.000       
     125        8.4006         0.000       
     124        8.2291         0.000       
     123        8.1974         0.000       
     122        8.0117         0.000       
     121        7.9711         0.000       
     120        7.7085         0.000       
     119        7.5860         0.000       
     118        7.5566         0.000       
     117        7.3016         0.000       
     116        7.1531         0.000       
     115        6.9466         0.000       
     114        6.7345         0.000       
     113        6.4428         0.000       
     112        6.2322         0.000       
     111        5.9845         0.000       
     110        5.7782         0.000       
     109        5.7282         0.000       
     108        5.4343         0.000       
     107        5.3341         0.000       
     106        5.1870         0.000       
     105        5.1434         0.000       
     104        5.0083         0.000       
     103        4.9707         0.000       
     102        4.9031         0.000       
     101        4.7951         0.000       
     100        4.6757         0.000       
      99        4.6399         0.000       
      98        4.2415         0.000       
      97        4.0878         0.000       
      96        4.0548         0.000       
      95        3.8689         0.000       
      94        3.7491         0.000       
      93        3.6488         0.000       
      92        3.4919         0.000       
      91        2.9038         0.000       
      90        2.8140         0.000       
      89        2.5992         0.000       
      88        2.3667         0.000       
      87        2.2914         0.000       
      86        1.9202         0.000       
      85        1.8423         0.000       
      84        1.5888         0.000       
      83        1.4753         0.000       
      82        1.3388         0.000       
      81        1.2032         0.000       
      80        0.8824         0.000       
      79        0.7274         0.000       
      78        0.6254         0.000       
      77        0.5718         0.000       
      76        0.4054         0.000       
      75        0.0148         0.000       
      74       -0.1663         0.000       
      73       -0.3131         0.000       
      72       -0.7172         0.000       
      71       -1.2943         0.000       
      70       -1.3395         0.000       
      69       -1.3854         0.000       
      68       -3.6961         0.000 < LUMO
      67       -4.9071         2.000 < HOMO
      66       -5.9536         2.000       
      65       -6.1644         2.000       
      64       -6.4042         2.000       
      63       -6.5240         2.000       
      62       -6.7228         2.000       
      61       -7.1428         2.000       
      60       -7.4790         2.000       
      59       -8.4398         2.000       
      58       -8.5482         2.000       
      57       -8.8180         2.000       
      56       -8.9251         2.000       
      55       -9.1215         2.000       
      54       -9.1594         2.000       
      53       -9.6099         2.000       
      52       -9.6787         2.000       
      51       -9.9595         2.000       
      50      -10.3601         2.000       
      49      -10.4302         2.000       
      48      -10.5722         2.000       
      47      -10.7865         2.000       
      46      -10.9618         2.000       
      45      -11.0358         2.000       
      44      -11.0758         2.000       
      43      -11.3948         2.000       
      42      -11.5245         2.000       
      41      -12.0198         2.000       
      40      -12.1116         2.000       
      39      -12.4584         2.000       
      38      -13.2161         2.000       
      37      -13.6426         2.000       
      36      -14.2251         2.000       
      35      -14.7328         2.000       
      34      -14.8850         2.000       
      33      -15.1658         2.000       
      32      -15.5085         2.000       
      31      -16.5049         2.000       
      30      -17.8958         2.000       
      29      -18.1142         2.000       
      28      -18.5364         2.000       
      27      -18.6404         2.000       
      26      -19.2519         2.000       
      25      -20.8038         2.000       
      24      -21.4477         2.000       
      23      -22.5941         2.000       
      22      -22.8444         2.000       
      21      -25.6824         2.000       
      20      -28.9603         2.000       
      19     -270.1400         2.000       
      18     -270.2112         2.000       
      17     -270.2470         2.000       
      16     -270.2590         2.000       
      15     -270.2688         2.000       
      14     -270.3043         2.000       
      13     -270.3151         2.000       
      12     -270.3898         2.000       
      11     -270.4310         2.000       
      10     -270.4778         2.000       
       9     -270.9174         2.000       
       8     -270.9253         2.000       
       7     -271.2359         2.000       
       6     -272.7760         2.000       
       5     -272.8673         2.000       
       4     -382.2847         2.000       
       3     -383.0714         2.000       
       2     -510.5303         2.000       
       1     -514.7924         2.000       

AMS application finished. Exiting.
NORMAL TERMINATION
     Total cpu time:    4596.81
  Total system time:      27.65
 Total elapsed time:    4651.23
NORMAL TERMINATION
