
 *******************************************************************************
 *                                                                             *
 *  --------------------------------                                           *
 *   Amsterdam Modeling Suite (AMS)              2026.103                      *
 *  --------------------------------                                           *
 *                                               r260501 2026-05-01 873454b5   *
 *                                                                             *
 *                                                                             *
 *                              =================                              *
 *                              |               |                              *
 *                              |     A M S     |                              *
 *                              |               |                              *
 *                              =================                              *
 *                                                                             *
 *                                                                             *
 *   Online information and documentation:  https://www.scm.com/support/       *
 *   E-mail:  support@scm.com   info@scm.com                                   *
 *                                                                             *
 *   Scientific publications using AMS results must be properly referenced     *
 *   See the User Manuals (or the web site) for recommended citations          *
 *   The terms and conditions of the End User License Agreement apply to       *
 *   the use of AMS, https://www.scm.com/license-terms/                        *
 *                                                                             *
 **********************  x86_64_linux_intel / intelmpi  ************************
 
 Licensed to: Jong-June Jeon / University of Seoul 2026-05-13 16:10:32
 SCM User ID: u30731
  
 AMS 2026.103  RunTime: May31-2026 23:15:59  ShM Nodes: 1  Procs: 1

 AMS jobname: c5_fragB_opt
 AMS jobid  : 26488652

 Start   directory: /gpfs/home1/yeseo1ee/projects/eda-asm-prediction/adf_outputs/batch_001/dipolar_001959/
 Results directory: /gpfs/home1/yeseo1ee/projects/eda-asm-prediction/adf_outputs/batch_001/dipolar_001959/c5_fragB_opt.results/
 Scratch directory: /tmp/amstmp_c5_fragB_opt_kid0.26488652/

 RNG seed: 914648077 1500543495 -419395942 -1247599001 1297571721 -1213627835 -1141987341 567589091



                      ************************************************************************
                      *  ADF 2026.103  RunTime: May31-2026 23:15:59  ShM Nodes: 1  Procs: 1  *
                      ************************************************************************
  

       ***************************
       *  GEOMETRY OPTIMIZATION  *
       ***************************

Optimization Method                    Quasi Newton
Optimization Coordinates               Delocalized Coordinates
Optimize lattice                       F
 
 ------------------------------------------------------
 Convergence criteria (Hartree,Angstrom)
 ------------------------------------------------------
 Maximum gradient               0.000100000000
 Maximum rms gradient           0.000066666667
 Maximum step allowed           0.010000000000
 Maximum rms step allowed       0.006666666667
 Maximum energy change allowe   0.000140000000
 Maximum stress energy allowe   0.000500000000
 
Initial model Hessian                  Automatic Hessian
 
------------------------------------
Quasi-Newton Optimizer Parameters
------------------------------------
Hessian Update Method                  BFGS
Maximum number of steps                  200
First GDIIS cycle                          0
Maximum GDIIS vectors                      0
Trust radius (bohr)                        0.200000
Trust radius varies                        T
Constraints converged at all steps         T
Use projector                              T
 
 Rigid motions settings for: old optimizer
 Atomic rotations (x,y,z):     T T T
 Atomic translations (x,y,z):  T T T
 Tolerance:                  1.000000000000000E-006

--------
Geometry
--------
Formula: C5H4F3NO
Atoms
  Index Symbol   x (angstrom)   y (angstrom)   z (angstrom)
      1      C     3.72443000    -0.11388000     0.72070000
      2      N     3.56728000     0.37874000    -0.63473000
      3      C     2.45961000     0.33295000    -1.39141000
      4      O     2.35640000     0.87922000    -2.49825000
      5      C     1.32013000    -0.41092000    -0.86317000
      6      C     0.42062000    -1.23767000    -0.67871000
      7      C    -0.04129000    -2.62763000    -0.83063000
      8      F    -1.01062000    -2.97437000     0.03030000
      9      F    -0.51378000    -2.85024000    -2.06969000
     10      F     0.97554000    -3.49174000    -0.63371000
     11      H     3.87578000     0.72177000     1.42055000
     12      H     4.58888000    -0.79173000     0.78698000
     13      H     2.82700000    -0.66602000     1.02434000
     14      H     4.31086000     0.96139000    -1.01530000

Total System Charge              0.00000


----------------
ADF Engine Input
----------------
 
   Basis
     Type TZ2P
     Core None
   End
   XC
     GGA BLYP
     Dispersion GRIMME3 BJDAMP
   End
   Symmetry NOSYM
   NumericalQuality Normal
   Unrestricted No
   SCF
     Iterations 200
     Converge 1.0e-6
   End
   Save TAPE21
 

 Title: *** (NO TITLE) ***

 Using automatic Hessian for delocalized coordinates.
 *** GO1_GOStep1 ***

 Energy gradients wrt nuclear displacements
 ==========================================

     Atom      Cartesian (a.u./angstrom)
                 X         Y         Z
 ----------------------------------------
     1 C    -0.005405  0.007675 -0.018531
     2 N    -0.027968 -0.006743 -0.015173
     3 C     0.035151 -0.030091  0.024863
     4 O    -0.002100  0.004688  0.000739
     5 C     0.051832  0.059953 -0.009868
     6 C    -0.073673 -0.037473  0.019349
     7 C     0.008674 -0.026809 -0.007547
     8 F     0.034169  0.004687 -0.032627
     9 F     0.013714  0.002054  0.039983
    10 F    -0.036138  0.021419 -0.006634
    11 H     0.000660  0.002653  0.000299
    12 H     0.003291 -0.002325 -0.000505
    13 H    -0.003538 -0.002919  0.002262
    14 H     0.001330  0.003229  0.003391
 ----------------------------------------
 
----------------------------------------------------------------------
Geometry Convergence after Step   1       (Hartree/Angstrom,Angstrom)
----------------------------------------------------------------------
current energy                               -2.98563753 Hartree
energy change                      -2.98563753     0.00014000    F
constrained gradient max            0.07363148     0.00010000    F
constrained gradient rms            0.02422019     0.00006667    F
gradient max                        0.07363148
gradient rms                        0.02422019
cart. step max                      0.11477447     0.01000000    F
cart. step rms                      0.04791358     0.00666667    F
 

--------
Geometry
--------
Formula: C5H4F3NO
Atoms
  Index Symbol   x (angstrom)   y (angstrom)   z (angstrom)
      1      C     3.73470659    -0.10262699     0.73618022
      2      N     3.57380037     0.42796811    -0.61403838
      3      C     2.46880574     0.36738024    -1.40814727
      4      O     2.37872094     0.91750321    -2.51343206
      5      C     1.36763250    -0.47716171    -0.93912033
      6      C     0.51220453    -1.30785212    -0.74921009
      7      C    -0.06584169    -2.66310434    -0.83340901
      8      F    -1.02366368    -2.88462567     0.11269781
      9      F    -0.62855447    -2.87074355    -2.05923465
     10      F     0.91790043    -3.59839384    -0.65695015
     11      H     3.85354828     0.71108796     1.46552820
     12      H     4.61453314    -0.75787679     0.79318280
     13      H     2.85096608    -0.68692177     1.00871615
     14      H     4.30608126     1.03523724    -0.97549325

Total System Charge              0.00000

 *** GO1_GOStep2 ***

 Energy gradients wrt nuclear displacements
 ==========================================

     Atom      Cartesian (a.u./angstrom)
                 X         Y         Z
 ----------------------------------------
     1 C    -0.001260  0.003454 -0.008374
     2 N    -0.005109 -0.007000 -0.005461
     3 C     0.012653 -0.009087  0.014953
     4 O    -0.002260  0.001174 -0.007648
     5 C    -0.015543 -0.009900  0.000627
     6 C    -0.002240  0.031389  0.007166
     7 C     0.004782 -0.026650 -0.005556
     8 F     0.006204  0.003982 -0.004759
     9 F     0.003471  0.005400  0.003385
    10 F    -0.001841  0.007238  0.000113
    11 H     0.000453  0.000750  0.000979
    12 H     0.001341 -0.001101  0.000953
    13 H    -0.000993 -0.001103  0.001111
    14 H     0.000342  0.001452  0.002510
 ----------------------------------------

 dE(predicted):    -0.66670E-02, dE(actual):    -0.72984E-02, Trust radius:    0.400000, all in a.u.
 
----------------------------------------------------------------------
Geometry Convergence after Step   2       (Hartree/Angstrom,Angstrom)
----------------------------------------------------------------------
current energy                               -2.99293592 Hartree
energy change                      -0.00729839     0.00014000    F
constrained gradient max            0.03129823     0.00010000    F
constrained gradient rms            0.00854702     0.00006667    F
gradient max                        0.03129823
gradient rms                        0.00854702
cart. step max                      0.21319900     0.01000000    F
cart. step rms                      0.07681979     0.00666667    F
 

--------
Geometry
--------
Formula: C5H4F3NO
Atoms
  Index Symbol   x (angstrom)   y (angstrom)   z (angstrom)
      1      C     3.73663003    -0.07405496     0.75654161
      2      N     3.59301653     0.47868011    -0.59278624
      3      C     2.53213796     0.34331687    -1.45339356
      4      O     2.43059564     0.94808223    -2.52526815
      5      C     1.46663971    -0.57360354    -1.03152649
      6      C     0.62427517    -1.40961924    -0.82099930
      7      C    -0.10404563    -2.69200852    -0.83532659
      8      F    -0.96377376    -2.81789190     0.23107491
      9      F    -0.84175347    -2.83004231    -1.98606543
     10      F     0.78687615    -3.74211758    -0.77985633
     11      H     3.75542533     0.72488200     1.50973920
     12      H     4.66150383    -0.65837294     0.83829513
     13      H     2.89178742    -0.73264745     0.97005376
     14      H     4.29152509     1.14526724    -0.91321253

Total System Charge              0.00000

 *** GO1_GOStep3 ***

 Energy gradients wrt nuclear displacements
 ==========================================

     Atom      Cartesian (a.u./angstrom)
                 X         Y         Z
 ----------------------------------------
     1 C    -0.000517  0.002657 -0.000768
     2 N     0.003443 -0.000591  0.001980
     3 C     0.009806 -0.015258 -0.006773
     4 O    -0.004227  0.005588 -0.001393
     5 C    -0.021332 -0.011116  0.002115
     6 C     0.010201  0.035884  0.006283
     7 C     0.002568 -0.015261 -0.003668
     8 F    -0.004548  0.000809  0.006304
     9 F    -0.003470  0.002865 -0.008193
    10 F     0.007703 -0.004647  0.000373
    11 H     0.000474 -0.000685  0.001273
    12 H    -0.000004 -0.000381  0.000660
    13 H     0.000229 -0.000095  0.000360
    14 H    -0.000326  0.000231  0.001446
 ----------------------------------------

 dE(predicted):    -0.53248E-02, dE(actual):    -0.34782E-02, Trust radius:    0.400000, all in a.u.
 Residual max backtransformation error   0.3077E+00
 
----------------------------------------------------------------------
Geometry Convergence after Step   3       (Hartree/Angstrom,Angstrom)
----------------------------------------------------------------------
current energy                               -2.99641412 Hartree
energy change                      -0.00347820     0.00014000    F
constrained gradient max            0.03578230     0.00010000    F
constrained gradient rms            0.00838309     0.00006667    F
gradient max                        0.03578230
gradient rms                        0.00838309
cart. step max                      0.15448027     0.01000000    F
cart. step rms                      0.07383167     0.00666667    F
 

--------
Geometry
--------
Formula: C5H4F3NO
Atoms
  Index Symbol   x (angstrom)   y (angstrom)   z (angstrom)
      1      C     3.71869618    -0.08984037     0.75872684
      2      N     3.57515844     0.55119517    -0.55865866
      3      C     2.54104717     0.42206026    -1.46539405
      4      O     2.50346616     1.01753385    -2.54149810
      5      C     1.55221981    -0.63184401    -1.16814014
      6      C     0.74857462    -1.51861658    -0.95976638
      7      C    -0.10529992    -2.71215352    -0.82365672
      8      F    -0.89651479    -2.66341162     0.32100576
      9      F    -0.95583637    -2.87945654    -1.89979243
     10      F     0.66736221    -3.86256822    -0.74594701
     11      H     3.69058836     0.65870325     1.56284711
     12      H     4.66486227    -0.64114622     0.81398252
     13      H     2.89681432    -0.79430511     0.90792610
     14      H     4.25970154     1.25371965    -0.83436483

Total System Charge              0.00000

 *** GO1_GOStep4 ***

 Energy gradients wrt nuclear displacements
 ==========================================

     Atom      Cartesian (a.u./angstrom)
                 X         Y         Z
 ----------------------------------------
     1 C     0.002616 -0.003954  0.004063
     2 N     0.014200 -0.001866  0.000245
     3 C    -0.017214  0.024895  0.000865
     4 O     0.006651 -0.009266 -0.001124
     5 C     0.006145  0.001335 -0.013507
     6 C    -0.001426  0.007249  0.006497
     7 C     0.006617  0.004619 -0.001799
     8 F    -0.016425 -0.000665  0.020979
     9 F    -0.011556 -0.006141 -0.015288
    10 F     0.010336 -0.017238 -0.002814
    11 H    -0.000270  0.000954  0.001556
    12 H    -0.000383 -0.000622  0.000640
    13 H    -0.000308 -0.000552  0.000495
    14 H     0.001016  0.001253 -0.000808
 ----------------------------------------
 Rebuilding optimization coordinates
Challenging geometry: added dihedral     2    3    6   10
Challenging geometry: added dihedral     8    7    3    2
Challenging geometry: added dihedral     9    7    3    2

 dE(predicted):    -0.45518E-02, dE(actual):    -0.13641E-02, Trust radius:    0.400000, all in a.u.
 
----------------------------------------------------------------------
Geometry Convergence after Step   4       (Hartree/Angstrom,Angstrom)
----------------------------------------------------------------------
current energy                               -2.99777824 Hartree
energy change                      -0.00136411     0.00014000    F
constrained gradient max            0.02479326     0.00010000    F
constrained gradient rms            0.00874865     0.00006667    F
gradient max                        0.02480621
gradient rms                        0.00874866
cart. step max                      0.21245392     0.01000000    F
cart. step rms                      0.07194615     0.00666667    F
 

--------
Geometry
--------
Formula: C5H4F3NO
Atoms
  Index Symbol   x (angstrom)   y (angstrom)   z (angstrom)
      1      C     3.78408760    -0.03286624     0.78012235
      2      N     3.58536022     0.52523241    -0.56693963
      3      C     2.50913886     0.35527714    -1.41294005
      4      O     2.41026337     0.90237070    -2.51057894
      5      C     1.47590217    -0.59040374    -0.95568622
      6      C     0.72370762    -1.53553960    -0.90006131
      7      C    -0.12895230    -2.72653278    -0.88687115
      8      F    -0.98368302    -2.72571324     0.20746715
      9      F    -0.91175275    -2.83044103    -2.01670813
     10      F     0.63524871    -3.87868315    -0.81249350
     11      H     3.80929659     0.76690535     1.53248766
     12      H     4.72259128    -0.59774825     0.82242628
     13      H     2.95857340    -0.70900903     1.01381219
     14      H     4.27105825     1.18702145    -0.92676671

Total System Charge              0.00000

 *** GO1_GOStep5 ***

 Energy gradients wrt nuclear displacements
 ==========================================

     Atom      Cartesian (a.u./angstrom)
                 X         Y         Z
 ----------------------------------------
     1 C     0.002053 -0.003180  0.006775
     2 N     0.009995 -0.001949  0.003548
     3 C    -0.009568 -0.003971 -0.017370
     4 O     0.002288 -0.000154 -0.000243
     5 C    -0.012863  0.003231  0.013670
     6 C     0.011610  0.013022 -0.000219
     7 C     0.008139  0.004480 -0.007642
     8 F    -0.010794  0.000966  0.015090
     9 F    -0.009513 -0.002628 -0.012854
    10 F     0.008700 -0.012783 -0.000219
    11 H     0.000062  0.000706  0.000855
    12 H    -0.000305 -0.000030 -0.000172
    13 H     0.000495  0.000006  0.000181
    14 H    -0.000300  0.002285 -0.001400
 ----------------------------------------

 dE(predicted):    -0.19766E-02, dE(actual):     0.20663E-03, Trust radius:    0.074151, all in a.u.
 
----------------------------------------------------------------------
Geometry Convergence after Step   5       (Hartree/Angstrom,Angstrom)
----------------------------------------------------------------------
current energy                               -2.99757161 Hartree
energy change                       0.00020663     0.00014000    F
constrained gradient max            0.01743146     0.00010000    F
constrained gradient rms            0.00733277     0.00006667    F
gradient max                        0.01743146
gradient rms                        0.00733277
cart. step max                      0.05381990     0.01000000    F
cart. step rms                      0.02301434     0.00666667    F
 

--------
Geometry
--------
Formula: C5H4F3NO
Atoms
  Index Symbol   x (angstrom)   y (angstrom)   z (angstrom)
      1      C     3.76531493    -0.05232991     0.76742527
      2      N     3.58152235     0.53676443    -0.56518462
      3      C     2.52465931     0.36764598    -1.42764910
      4      O     2.42770385     0.93938474    -2.51303690
      5      C     1.50229921    -0.60643564    -1.00950612
      6      C     0.73641273    -1.53913708    -0.91370097
      7      C    -0.12141725    -2.72188402    -0.86348459
      8      F    -0.97065607    -2.69238037     0.22651283
      9      F    -0.90302349    -2.84258416    -1.98606895
     10      F     0.63311088    -3.87298349    -0.77363041
     11      H     3.76392983     0.72677335     1.54084492
     12      H     4.71209646    -0.60323609     0.81252823
     13      H     2.94674094    -0.74744872     0.96769357
     14      H     4.26214633     1.21772097    -0.89547316

Total System Charge              0.00000

 *** GO1_GOStep6 ***

 Energy gradients wrt nuclear displacements
 ==========================================

     Atom      Cartesian (a.u./angstrom)
                 X         Y         Z
 ----------------------------------------
     1 C     0.000764 -0.001738  0.004093
     2 N     0.006777 -0.001791  0.001341
     3 C    -0.002912 -0.000410 -0.011672
     4 O     0.001880 -0.001377  0.001792
     5 C    -0.007555  0.006598  0.008065
     6 C     0.002230  0.002985 -0.000000
     7 C     0.006312  0.001943 -0.003408
     8 F    -0.007531  0.001155  0.008648
     9 F    -0.003299 -0.001932 -0.005550
    10 F     0.004394 -0.006701 -0.002603
    11 H    -0.000100  0.000242  0.000263
    12 H    -0.000304 -0.000072 -0.000337
    13 H     0.000075 -0.000066 -0.000102
    14 H    -0.000731  0.001163 -0.000531
 ----------------------------------------

 dE(predicted):    -0.13038E-02, dE(actual):    -0.13051E-02, Trust radius:    0.148301, all in a.u.
 
----------------------------------------------------------------------
Geometry Convergence after Step   6       (Hartree/Angstrom,Angstrom)
----------------------------------------------------------------------
current energy                               -2.99887674 Hartree
energy change                      -0.00130513     0.00014000    F
constrained gradient max            0.01174659     0.00010000    F
constrained gradient rms            0.00411448     0.00006667    F
gradient max                        0.01174659
gradient rms                        0.00411448
cart. step max                      0.10863410     0.01000000    F
cart. step rms                      0.04442179     0.00666667    F
 

--------
Geometry
--------
Formula: C5H4F3NO
Atoms
  Index Symbol   x (angstrom)   y (angstrom)   z (angstrom)
      1      C     3.74419203    -0.08446681     0.75344105
      2      N     3.56724828     0.55831304    -0.55433023
      3      C     2.54648045     0.38217334    -1.45604192
      4      O     2.45214159     1.00537507    -2.51511647
      5      C     1.55224908    -0.64762582    -1.11814022
      6      C     0.77368350    -1.55830187    -0.96318201
      7      C    -0.11264555    -2.71377009    -0.83824684
      8      F    -0.93939146    -2.60280231     0.25898099
      9      F    -0.91623019    -2.87280320    -1.94035186
     10      F     0.61075904    -3.87668467    -0.68994911
     11      H     3.68624145     0.65559726     1.56222739
     12      H     4.71477194    -0.59243619     0.80083492
     13      H     2.95517689    -0.82563470     0.89928746
     14      H     4.22616293     1.28293696    -0.83214312

Total System Charge              0.00000

 *** GO1_GOStep7 ***

 Energy gradients wrt nuclear displacements
 ==========================================

     Atom      Cartesian (a.u./angstrom)
                 X         Y         Z
 ----------------------------------------
     1 C     0.000626 -0.001049  0.002760
     2 N     0.004827 -0.000558  0.000956
     3 C     0.001531  0.001440 -0.004185
     4 O     0.000679 -0.000891  0.000342
     5 C    -0.012090 -0.002520 -0.000076
     6 C     0.005609  0.007480  0.001975
     7 C     0.004721  0.001167 -0.002211
     8 F    -0.004297  0.000353  0.005063
     9 F    -0.004074 -0.001413 -0.004707
    10 F     0.002891 -0.004728 -0.000296
    11 H    -0.000079  0.000125  0.000523
    12 H    -0.000264 -0.000189 -0.000016
    13 H    -0.000043 -0.000116 -0.000012
    14 H    -0.000036  0.000900 -0.000118
 ----------------------------------------

 dE(predicted):    -0.12173E-02, dE(actual):    -0.10820E-02, Trust radius:    0.296602, all in a.u.
 
----------------------------------------------------------------------
Geometry Convergence after Step   7       (Hartree/Angstrom,Angstrom)
----------------------------------------------------------------------
current energy                               -2.99995875 Hartree
energy change                      -0.00108201     0.00014000    F
constrained gradient max            0.01212044     0.00010000    F
constrained gradient rms            0.00325824     0.00006667    F
gradient max                        0.01212044
gradient rms                        0.00325824
cart. step max                      0.17735976     0.01000000    F
cart. step rms                      0.05834085     0.00666667    F
 

--------
Geometry
--------
Formula: C5H4F3NO
Atoms
  Index Symbol   x (angstrom)   y (angstrom)   z (angstrom)
      1      C     3.74620410    -0.10371817     0.70450631
      2      N     3.53692495     0.57835177    -0.55026863
      3      C     2.55484652     0.35673012    -1.42202389
      4      O     2.38062906     1.00543752    -2.46365969
      5      C     1.58849078    -0.68284075    -1.09115480
      6      C     0.81417289    -1.60092620    -0.92882076
      7      C    -0.10168266    -2.69583400    -0.80098154
      8      F    -1.01042115    -2.50552492     0.13493967
      9      F    -0.73887043    -2.86191728    -1.95930501
     10      F     0.52872246    -3.84216582    -0.55173810
     11      H     3.65351858     0.58847661     1.54606439
     12      H     4.74214124    -0.56444267     0.73585914
     13      H     2.99518881    -0.88929981     0.81387471
     14      H     4.17097485     1.32754362    -0.80002180

Total System Charge              0.00000

 *** GO1_GOStep8 ***

 Energy gradients wrt nuclear displacements
 ==========================================

     Atom      Cartesian (a.u./angstrom)
                 X         Y         Z
 ----------------------------------------
     1 C    -0.008365  0.012888 -0.017719
     2 N    -0.033600 -0.009310 -0.021314
     3 C     0.051353 -0.011896  0.041600
     4 O    -0.006801  0.000420  0.003129
     5 C     0.002866  0.023704 -0.005769
     6 C    -0.040583 -0.048975 -0.004181
     7 C    -0.021143 -0.017004  0.026922
     8 F     0.053801 -0.013835 -0.064553
     9 F     0.044695  0.011436  0.067129
    10 F    -0.038384  0.060132 -0.023143
    11 H     0.000374 -0.002796 -0.004448
    12 H     0.000234  0.000516 -0.000713
    13 H    -0.001277  0.000325 -0.001860
    14 H    -0.003170 -0.005604  0.004919
 ----------------------------------------

 dE(predicted):    -0.11864E-02, dE(actual):     0.69187E-02, Trust radius:    0.074151, all in a.u.
 
----------------------------------------------------------------------
Geometry Convergence after Step   8       (Hartree/Angstrom,Angstrom)
----------------------------------------------------------------------
current energy                               -2.99304009 Hartree
energy change                       0.00691866     0.00014000    F
constrained gradient max            0.06733994     0.00010000    F
constrained gradient rms            0.02782787     0.00006667    F
gradient max                        0.06733994
gradient rms                        0.02782787
cart. step max                      0.03142492     0.01000000    F
cart. step rms                      0.01047866     0.00666667    F
 

--------
Geometry
--------
Formula: C5H4F3NO
Atoms
  Index Symbol   x (angstrom)   y (angstrom)   z (angstrom)
      1      C     3.75703157    -0.09971129     0.71534804
      2      N     3.54346074     0.58194999    -0.54740722
      3      C     2.55115650     0.36261663    -1.43005275
      4      O     2.38669840     1.01236688    -2.47159514
      5      C     1.58049736    -0.67821520    -1.10109441
      6      C     0.80719782    -1.59641463    -0.94034720
      7      C    -0.11129539    -2.70402751    -0.80952420
      8      F    -1.02459991    -2.50970053     0.14973684
      9      F    -0.77029535    -2.88119210    -1.97371348
     10      F     0.53565868    -3.85925773    -0.55424145
     11      H     3.66769607     0.59642604     1.55576003
     12      H     4.75245255    -0.56133084     0.74488373
     13      H     3.00606122    -0.88441395     0.83093221
     14      H     4.17911972     1.33077426    -0.80141500

Total System Charge              0.00000

 *** GO1_GOStep9 ***

 Energy gradients wrt nuclear displacements
 ==========================================

     Atom      Cartesian (a.u./angstrom)
                 X         Y         Z
 ----------------------------------------
     1 C    -0.005624  0.008743 -0.011640
     2 N    -0.019450 -0.004264 -0.012129
     3 C     0.035790 -0.012925  0.026691
     4 O    -0.006450  0.001775  0.000472
     5 C    -0.002716  0.017711 -0.005291
     6 C    -0.023064 -0.028718 -0.003773
     7 C    -0.011638 -0.011391  0.021667
     8 F     0.028729 -0.006750 -0.037026
     9 F     0.026921  0.007711  0.036103
    10 F    -0.021222  0.032996 -0.015095
    11 H     0.000409 -0.002069 -0.002693
    12 H     0.000289  0.000242 -0.000127
    13 H    -0.000658  0.000251 -0.001131
    14 H    -0.001315 -0.003314  0.003972
 ----------------------------------------

 dE(predicted):    -0.51676E-02, dE(actual):    -0.46890E-02, Trust radius:    0.148301, all in a.u.
 
----------------------------------------------------------------------
Geometry Convergence after Step   9       (Hartree/Angstrom,Angstrom)
----------------------------------------------------------------------
current energy                               -2.99772914 Hartree
energy change                      -0.00468905     0.00014000    F
constrained gradient max            0.03684558     0.00010000    F
constrained gradient rms            0.01660843     0.00006667    F
gradient max                        0.03684558
gradient rms                        0.01660843
cart. step max                      0.07451498     0.01000000    F
cart. step rms                      0.02315875     0.00666667    F
 

--------
Geometry
--------
Formula: C5H4F3NO
Atoms
  Index Symbol   x (angstrom)   y (angstrom)   z (angstrom)
      1      C     3.74905989    -0.10762000     0.72942557
      2      N     3.54045130     0.58912446    -0.53992513
      3      C     2.54529085     0.38809270    -1.45258282
      4      O     2.41931123     1.04416523    -2.49178096
      5      C     1.59480011    -0.68397570    -1.15582568
      6      C     0.82368865    -1.59666940    -0.97872126
      7      C    -0.10905019    -2.70755710    -0.82053133
      8      F    -0.98536720    -2.49015102     0.20152015
      9      F    -0.84481034    -2.91242102    -1.95863319
     10      F     0.55105708    -3.87582440    -0.54859836
     11      H     3.65768361     0.58561631     1.57484093
     12      H     4.74295442    -0.57141068     0.75781888
     13      H     2.99651495    -0.89157360     0.83913953
     14      H     4.17925564     1.34007422    -0.78887634

Total System Charge              0.00000

 *** GO1_GOStep10 ***

 Energy gradients wrt nuclear displacements
 ==========================================

     Atom      Cartesian (a.u./angstrom)
                 X         Y         Z
 ----------------------------------------
     1 C    -0.001318  0.001533 -0.002637
     2 N    -0.003020 -0.000448 -0.003226
     3 C     0.007877 -0.003392  0.008893
     4 O    -0.001324  0.000067 -0.001333
     5 C    -0.007993  0.001105 -0.005054
     6 C     0.003694  0.001368  0.001925
     7 C    -0.001485 -0.001789  0.007273
     8 F     0.006542 -0.002874 -0.007828
     9 F     0.001200  0.000490  0.000987
    10 F    -0.004436  0.005685 -0.000826
    11 H     0.000171 -0.000667 -0.000023
    12 H     0.000067 -0.000193  0.000639
    13 H    -0.000093 -0.000009  0.000022
    14 H     0.000116 -0.000874  0.001187
 ----------------------------------------

 dE(predicted):    -0.30005E-02, dE(actual):    -0.27593E-02, Trust radius:    0.296602, all in a.u.
 
----------------------------------------------------------------------
Geometry Convergence after Step  10       (Hartree/Angstrom,Angstrom)
----------------------------------------------------------------------
current energy                               -3.00048844 Hartree
energy change                      -0.00275930     0.00014000    F
constrained gradient max            0.00887480     0.00010000    F
constrained gradient rms            0.00353689     0.00006667    F
gradient max                        0.00887480
gradient rms                        0.00353689
cart. step max                      0.05071844     0.01000000    F
cart. step rms                      0.01954637     0.00666667    F
 

--------
Geometry
--------
Formula: C5H4F3NO
Atoms
  Index Symbol   x (angstrom)   y (angstrom)   z (angstrom)
      1      C     3.74460791    -0.10300966     0.73793919
      2      N     3.53664476     0.59167918    -0.53555605
      3      C     2.55469066     0.37925697    -1.46612225
      4      O     2.43600286     1.04209242    -2.50063893
      5      C     1.61494574    -0.70647743    -1.18181144
      6      C     0.84325150    -1.62001839    -1.00020836
      7      C    -0.11053420    -2.71039419    -0.82138581
      8      F    -0.94530221    -2.47470576     0.24031584
      9      F    -0.89552878    -2.88331059    -1.93315207
     10      F     0.53404634    -3.90127033    -0.58980955
     11      H     3.63239857     0.59043487     1.58123231
     12      H     4.74615829    -0.54898447     0.77432130
     13      H     3.00452736    -0.89972911     0.84046372
     14      H     4.16493121     1.35430649    -0.77831789

Total System Charge              0.00000

 *** GO1_GOStep11 ***

 Energy gradients wrt nuclear displacements
 ==========================================

     Atom      Cartesian (a.u./angstrom)
                 X         Y         Z
 ----------------------------------------
     1 C    -0.000222 -0.000086 -0.000013
     2 N    -0.000512  0.000341 -0.000717
     3 C     0.003581 -0.002781  0.002833
     4 O    -0.000319  0.000451  0.000057
     5 C    -0.004245  0.004365 -0.005773
     6 C     0.001543 -0.002494  0.002472
     7 C    -0.000803 -0.000802  0.004937
     8 F    -0.000051  0.001304 -0.001376
     9 F    -0.000325  0.000541 -0.002280
    10 F     0.000908 -0.000356 -0.001366
    11 H     0.000034 -0.000086  0.000306
    12 H     0.000031 -0.000166  0.000379
    13 H     0.000009 -0.000073  0.000219
    14 H     0.000371 -0.000158  0.000321
 ----------------------------------------

 dE(predicted):    -0.13551E-03, dE(actual):    -0.45241E-04, Trust radius:    0.296602, all in a.u.
 
----------------------------------------------------------------------
Geometry Convergence after Step  11       (Hartree/Angstrom,Angstrom)
----------------------------------------------------------------------
current energy                               -3.00053368 Hartree
energy change                      -0.00004524     0.00014000    T
constrained gradient max            0.00573439     0.00010000    F
constrained gradient rms            0.00190536     0.00006667    F
gradient max                        0.00573439
gradient rms                        0.00190536
cart. step max                      0.04038688     0.01000000    F
cart. step rms                      0.01255124     0.00666667    F
 

--------
Geometry
--------
Formula: C5H4F3NO
Atoms
  Index Symbol   x (angstrom)   y (angstrom)   z (angstrom)
      1      C     3.73909599    -0.09605043     0.74354094
      2      N     3.53924278     0.59010163    -0.53626762
      3      C     2.55757466     0.37673248    -1.46856103
      4      O     2.44796407     1.02943004    -2.50989352
      5      C     1.61481500    -0.70525362    -1.17672057
      6      C     0.84570323    -1.62172340    -1.00250568
      7      C    -0.10919651    -2.71158629    -0.82670427
      8      F    -0.91647668    -2.49668817     0.26294874
      9      F    -0.92408138    -2.86170416    -1.91916381
     10      F     0.53448448    -3.90999330    -0.63019643
     11      H     3.62969618     0.60530551     1.58060864
     12      H     4.73699891    -0.54937979     0.78488042
     13      H     2.99234360    -0.88606193     0.84979952
     14      H     4.17267568     1.34674143    -0.78449534

Total System Charge              0.00000

 *** GO1_GOStep12 ***

 Energy gradients wrt nuclear displacements
 ==========================================

     Atom      Cartesian (a.u./angstrom)
                 X         Y         Z
 ----------------------------------------
     1 C     0.000044 -0.000538  0.000633
     2 N     0.000590 -0.000053  0.000330
     3 C     0.001472 -0.001449  0.000859
     4 O     0.000379  0.000248  0.000086
     5 C    -0.005233  0.002628 -0.003951
     6 C     0.003824 -0.000876  0.002693
     7 C     0.000178  0.001167  0.001012
     8 F    -0.000354  0.000310  0.000082
     9 F    -0.001288 -0.000291 -0.002033
    10 F     0.000393 -0.000893 -0.000220
    11 H    -0.000101  0.000054  0.000224
    12 H    -0.000041 -0.000155  0.000190
    13 H    -0.000061 -0.000053  0.000063
    14 H     0.000195 -0.000100  0.000030
 ----------------------------------------

 dE(predicted):    -0.26437E-04, dE(actual):    -0.20155E-04, Trust radius:    0.296602, all in a.u.
 
----------------------------------------------------------------------
Geometry Convergence after Step  12       (Hartree/Angstrom,Angstrom)
----------------------------------------------------------------------
current energy                               -3.00055383 Hartree
energy change                      -0.00002016     0.00014000    T
constrained gradient max            0.00529412     0.00010000    F
constrained gradient rms            0.00144670     0.00006667    F
gradient max                        0.00529412
gradient rms                        0.00144670
cart. step max                      0.02226060     0.01000000    F
cart. step rms                      0.00736078     0.00666667    F
 

--------
Geometry
--------
Formula: C5H4F3NO
Atoms
  Index Symbol   x (angstrom)   y (angstrom)   z (angstrom)
      1      C     3.73619782    -0.09228275     0.74578422
      2      N     3.53897548     0.59096108    -0.53558165
      3      C     2.56159205     0.37233003    -1.47071010
      4      O     2.45495880     1.02005610    -2.51539741
      5      C     1.61907999    -0.70967277    -1.17810306
      6      C     0.84956180    -1.62636594    -1.00570871
      7      C    -0.10902443    -2.71206372    -0.82804961
      8      F    -0.89852658    -2.50384693     0.27610048
      9      F    -0.94066980    -2.84464276    -1.90836556
     10      F     0.52924082    -3.91605435    -0.65245703
     11      H     3.62276853     0.61010340     1.58127477
     12      H     4.73476785    -0.54370263     0.79088365
     13      H     2.99058199    -0.88354737     0.85093465
     14      H     4.17133567     1.34859862    -0.78333464

Total System Charge              0.00000

 *** GO1_GOStep13 ***

 Energy gradients wrt nuclear displacements
 ==========================================

     Atom      Cartesian (a.u./angstrom)
                 X         Y         Z
 ----------------------------------------
     1 C     0.000037 -0.000328  0.000478
     2 N     0.000464 -0.000341  0.000349
     3 C     0.001613 -0.001169  0.001102
     4 O     0.000357  0.000076  0.000152
     5 C    -0.004801  0.003186 -0.003866
     6 C     0.003020 -0.001912  0.002686
     7 C     0.000070  0.000984 -0.000175
     8 F    -0.000025  0.000065 -0.000146
     9 F    -0.000450 -0.000017 -0.000842
    10 F    -0.000027 -0.000270 -0.000064
    11 H    -0.000127 -0.000028  0.000100
    12 H    -0.000111 -0.000127  0.000140
    13 H    -0.000104 -0.000043  0.000013
    14 H     0.000086 -0.000077  0.000073
 ----------------------------------------

 dE(predicted):    -0.65856E-05, dE(actual):    -0.24681E-04, Trust radius:    0.296602, all in a.u.
 
----------------------------------------------------------------------
Geometry Convergence after Step  13       (Hartree/Angstrom,Angstrom)
----------------------------------------------------------------------
current energy                               -3.00057852 Hartree
energy change                      -0.00002468     0.00014000    T
constrained gradient max            0.00485894     0.00010000    F
constrained gradient rms            0.00134299     0.00006667    F
gradient max                        0.00485894
gradient rms                        0.00134299
cart. step max                      0.08819858     0.01000000    F
cart. step rms                      0.02727824     0.00666667    F
 

--------
Geometry
--------
Formula: C5H4F3NO
Atoms
  Index Symbol   x (angstrom)   y (angstrom)   z (angstrom)
      1      C     3.72877573    -0.07563137     0.75575876
      2      N     3.53887792     0.59371959    -0.53318395
      3      C     2.57610266     0.35402079    -1.47740549
      4      O     2.48012898     0.98338653    -2.53416632
      5      C     1.63179127    -0.72572033    -1.18052013
      6      C     0.85937432    -1.64188294    -1.01664965
      7      C    -0.11157439    -2.71487944    -0.83386257
      8      F    -0.83705099    -2.53749317     0.31997069
      9      F    -1.00163970    -2.78346914    -1.86847485
     10      F     0.50718196    -3.93703503    -0.74065560
     11      H     3.60267650     0.63298837     1.58380757
     12      H     4.72990195    -0.51979618     0.81418345
     13      H     2.98774764    -0.87126678     0.86122870
     14      H     4.16854614     1.35292910    -0.78276061

Total System Charge              0.00000

 *** GO1_GOStep14 ***

 Energy gradients wrt nuclear displacements
 ==========================================

     Atom      Cartesian (a.u./angstrom)
                 X         Y         Z
 ----------------------------------------
     1 C     0.000011  0.000208  0.000189
     2 N     0.000278 -0.000655  0.000271
     3 C     0.002189 -0.000959  0.001505
     4 O     0.000214 -0.000154  0.000524
     5 C    -0.004772  0.003985 -0.003331
     6 C     0.001890 -0.003535  0.002037
     7 C    -0.000072  0.000539 -0.003043
     8 F    -0.000058 -0.000276 -0.000152
     9 F     0.001645  0.000045  0.001688
    10 F    -0.000611  0.001031  0.000013
    11 H    -0.000173 -0.000224 -0.000060
    12 H    -0.000257 -0.000051  0.000093
    13 H    -0.000157 -0.000029  0.000011
    14 H    -0.000126  0.000077  0.000255
 ----------------------------------------

 dE(predicted):    -0.15687E-04, dE(actual):    -0.72396E-04, Trust radius:    0.296602, all in a.u.
 
----------------------------------------------------------------------
Geometry Convergence after Step  14       (Hartree/Angstrom,Angstrom)
----------------------------------------------------------------------
current energy                               -3.00065091 Hartree
energy change                      -0.00007240     0.00014000    T
constrained gradient max            0.00482718     0.00010000    F
constrained gradient rms            0.00150485     0.00006667    F
gradient max                        0.00482718
gradient rms                        0.00150485
cart. step max                      0.15722773     0.01000000    F
cart. step rms                      0.05029885     0.00666667    F
 

--------
Geometry
--------
Formula: C5H4F3NO
Atoms
  Index Symbol   x (angstrom)   y (angstrom)   z (angstrom)
      1      C     3.70801545    -0.05023795     0.77198069
      2      N     3.53830648     0.59651061    -0.53089462
      3      C     2.60388217     0.32422597    -1.49417675
      4      O     2.52935843     0.92688474    -2.56847205
      5      C     1.65903144    -0.75459467    -1.19521809
      6      C     0.87835303    -1.66528525    -1.03908684
      7      C    -0.11192358    -2.71789754    -0.83786434
      8      F    -0.71100428    -2.60397180     0.39540108
      9      F    -1.10299934    -2.67312393    -1.77551343
     10      F     0.46091259    -3.96440986    -0.89788333
     11      H     3.55372102     0.66863639     1.58630532
     12      H     4.71354853    -0.47968454     0.85994164
     13      H     2.97562740    -0.85452259     0.87318169
     14      H     4.16601067     1.35734043    -0.78043098

Total System Charge              0.00000

 *** GO1_GOStep15 ***

 Energy gradients wrt nuclear displacements
 ==========================================

     Atom      Cartesian (a.u./angstrom)
                 X         Y         Z
 ----------------------------------------
     1 C     0.000046  0.000308 -0.000228
     2 N     0.000296 -0.000881  0.000311
     3 C     0.002127 -0.001125  0.002556
     4 O    -0.000002  0.000193 -0.000424
     5 C    -0.004040  0.004040 -0.002687
     6 C     0.001628 -0.003405  0.000627
     7 C    -0.001754  0.000553 -0.003871
     8 F    -0.000206  0.000281 -0.000046
     9 F     0.002416  0.000988  0.003195
    10 F     0.000072 -0.000379  0.000521
    11 H    -0.000116 -0.000365 -0.000150
    12 H    -0.000149 -0.000171  0.000043
    13 H    -0.000114 -0.000159 -0.000060
    14 H    -0.000204  0.000121  0.000214
 ----------------------------------------

 dE(predicted):    -0.51062E-04, dE(actual):    -0.34385E-04, Trust radius:    0.296602, all in a.u.
 
----------------------------------------------------------------------
Geometry Convergence after Step  15       (Hartree/Angstrom,Angstrom)
----------------------------------------------------------------------
current energy                               -3.00068530 Hartree
energy change                      -0.00003439     0.00014000    T
constrained gradient max            0.00405584     0.00010000    F
constrained gradient rms            0.00157370     0.00006667    F
gradient max                        0.00405584
gradient rms                        0.00157370
cart. step max                      0.02229033     0.01000000    F
cart. step rms                      0.00955803     0.00666667    F
 

--------
Geometry
--------
Formula: C5H4F3NO
Atoms
  Index Symbol   x (angstrom)   y (angstrom)   z (angstrom)
      1      C     3.71431933    -0.04268332     0.77491631
      2      N     3.54209798     0.59490783    -0.53225048
      3      C     2.60013134     0.32234477    -1.48806393
      4      O     2.52450504     0.91726469    -2.56635199
      5      C     1.64922823    -0.74853344    -1.17796623
      6      C     0.86675304    -1.65901955    -1.02792372
      7      C    -0.11725137    -2.72101194    -0.84204792
      8      F    -0.72465516    -2.62626213     0.38819594
      9      F    -1.10253774    -2.67609540    -1.78761182
     10      F     0.46703495    -3.96131610    -0.91298663
     11      H     3.57407493     0.68463280     1.58442546
     12      H     4.71589154    -0.48214496     0.85925273
     13      H     2.97421975    -0.83821596     0.88841609
     14      H     4.17702815     1.34600272    -0.79273383

Total System Charge              0.00000

 *** GO1_GOStep16 ***

 Energy gradients wrt nuclear displacements
 ==========================================

     Atom      Cartesian (a.u./angstrom)
                 X         Y         Z
 ----------------------------------------
     1 C    -0.000055  0.000317 -0.000216
     2 N     0.000310 -0.000684  0.000085
     3 C     0.002144 -0.001245  0.001797
     4 O     0.000062  0.000064  0.000024
     5 C    -0.003756  0.004612 -0.002038
     6 C     0.001521 -0.003530  0.000418
     7 C    -0.001685  0.000382 -0.002702
     8 F    -0.000118 -0.000023  0.000207
     9 F     0.001827  0.000539  0.001890
    10 F    -0.000084  0.000159  0.000230
    11 H    -0.000038 -0.000313  0.000042
    12 H    -0.000066 -0.000139  0.000052
    13 H    -0.000019 -0.000156 -0.000024
    14 H    -0.000043  0.000015  0.000235
 ----------------------------------------

 dE(predicted):    -0.25044E-04, dE(actual):    -0.24660E-05, Trust radius:    0.020000, all in a.u.
 
----------------------------------------------------------------------
Geometry Convergence after Step  16       (Hartree/Angstrom,Angstrom)
----------------------------------------------------------------------
current energy                               -3.00068776 Hartree
energy change                      -0.00000247     0.00014000    T
constrained gradient max            0.00455346     0.00010000    F
constrained gradient rms            0.00139660     0.00006667    F
gradient max                        0.00455346
gradient rms                        0.00139660
cart. step max                      0.01138512     0.01000000    F
cart. step rms                      0.00407447     0.00666667    T
 

--------
Geometry
--------
Formula: C5H4F3NO
Atoms
  Index Symbol   x (angstrom)   y (angstrom)   z (angstrom)
      1      C     3.71365444    -0.04105374     0.77570774
      2      N     3.54309209     0.59402370    -0.53322889
      3      C     2.59963297     0.32228481    -1.48789694
      4      O     2.52537822     0.91443428    -2.56775016
      5      C     1.64641484    -0.74537753    -1.17422347
      6      C     0.86191065    -1.65319345    -1.02171298
      7      C    -0.11731010    -2.72101732    -0.84110040
      8      F    -0.72526757    -2.63764725     0.38885639
      9      F    -1.10342741    -2.67684247    -1.78852643
     10      F     0.47321671    -3.95753015    -0.92196692
     11      H     3.57990002     0.68983858     1.58322699
     12      H     4.71251200    -0.48684943     0.85969504
     13      H     2.96850574    -0.83126122     0.89320958
     14      H     4.18262740     1.34006119    -0.79701954

Total System Charge              0.00000

 *** GO1_GOStep17 ***

 Energy gradients wrt nuclear displacements
 ==========================================

     Atom      Cartesian (a.u./angstrom)
                 X         Y         Z
 ----------------------------------------
     1 C    -0.000120  0.000116 -0.000144
     2 N     0.000228 -0.000544 -0.000070
     3 C     0.001906 -0.001261  0.001541
     4 O     0.000075  0.000081  0.000037
     5 C    -0.004222  0.003523 -0.001823
     6 C     0.002672 -0.001892  0.000451
     7 C    -0.000936  0.000402 -0.000766
     8 F    -0.000080 -0.000078  0.000162
     9 F     0.000773 -0.000032  0.000417
    10 F    -0.000333  0.000331 -0.000277
    11 H    -0.000012 -0.000235  0.000156
    12 H    -0.000005 -0.000157  0.000104
    13 H     0.000000 -0.000188  0.000013
    14 H     0.000054 -0.000067  0.000198
 ----------------------------------------

 dE(predicted):    -0.11072E-04, dE(actual):     0.10387E-05, Trust radius:    0.020000, all in a.u.
 
----------------------------------------------------------------------
Geometry Convergence after Step  17       (Hartree/Angstrom,Angstrom)
----------------------------------------------------------------------
current energy                               -3.00068673 Hartree
energy change                       0.00000104     0.00014000    T
constrained gradient max            0.00424321     0.00010000    F
constrained gradient rms            0.00114331     0.00006667    F
gradient max                        0.00424321
gradient rms                        0.00114331
cart. step max                      0.01076524     0.01000000    F
cart. step rms                      0.00327275     0.00666667    T
 

--------
Geometry
--------
Formula: C5H4F3NO
Atoms
  Index Symbol   x (angstrom)   y (angstrom)   z (angstrom)
      1      C     3.71334752    -0.03853434     0.77698750
      2      N     3.54335008     0.59427246    -0.53328785
      3      C     2.60024813     0.32070238    -1.48792082
      4      O     2.52750687     0.90973104    -2.56948302
      5      C     1.64584648    -0.74539263    -1.17190565
      6      C     0.85948634    -1.65161554    -1.01865918
      7      C    -0.11764381    -2.72192916    -0.84148873
      8      F    -0.72223305    -2.64704013     0.39013878
      9      F    -1.10768375    -2.67228969    -1.78594908
     10      F     0.47403074    -3.95702082    -0.93273216
     11      H     3.58342262     0.69491729     1.58282715
     12      H     4.71065553    -0.48788678     0.86077988
     13      H     2.96530088    -0.82554499     0.89737247
     14      H     4.18520544     1.33750091    -0.79940928

Total System Charge              0.00000

 *** GO1_GOStep18 ***

 Energy gradients wrt nuclear displacements
 ==========================================

     Atom      Cartesian (a.u./angstrom)
                 X         Y         Z
 ----------------------------------------
     1 C    -0.000125  0.000022 -0.000049
     2 N     0.000283 -0.000406 -0.000123
     3 C     0.001724 -0.001195  0.001254
     4 O     0.000135  0.000038  0.000173
     5 C    -0.003853  0.003599 -0.001822
     6 C     0.002171 -0.001880  0.000700
     7 C    -0.000291  0.000060 -0.000017
     8 F    -0.000042  0.000058 -0.000269
     9 F     0.000074  0.000133 -0.000038
    10 F    -0.000256  0.000221 -0.000291
    11 H    -0.000001 -0.000208  0.000174
    12 H     0.000033 -0.000162  0.000099
    13 H     0.000021 -0.000182  0.000015
    14 H     0.000128 -0.000097  0.000194
 ----------------------------------------

 dE(predicted):    -0.52874E-05, dE(actual):     0.35885E-05, Trust radius:    0.020000, all in a.u.
 
----------------------------------------------------------------------
Geometry Convergence after Step  18       (Hartree/Angstrom,Angstrom)
----------------------------------------------------------------------
current energy                               -3.00068314 Hartree
energy change                       0.00000359     0.00014000    T
constrained gradient max            0.00387392     0.00010000    F
constrained gradient rms            0.00104887     0.00006667    F
gradient max                        0.00387392
gradient rms                        0.00104887
cart. step max                      0.00677749     0.01000000    T
cart. step rms                      0.00229400     0.00666667    T
 

--------
Geometry
--------
Formula: C5H4F3NO
Atoms
  Index Symbol   x (angstrom)   y (angstrom)   z (angstrom)
      1      C     3.71208782    -0.03759136     0.77757120
      2      N     3.54267569     0.59524229    -0.53297799
      3      C     2.60140403     0.31966191    -1.48900920
      4      O     2.53014413     0.90695696    -2.57153044
      5      C     1.64681463    -0.74626388    -1.17219388
      6      C     0.85842979    -1.65028977    -1.01647144
      7      C    -0.11715187    -2.72193181    -0.84078628
      8      F    -0.71891683    -2.65310831     0.39219179
      9      F    -1.11048696    -2.66890509    -1.78294407
     10      F     0.47519705    -3.95578961    -0.93950966
     11      H     3.58531482     0.69702306     1.58280386
     12      H     4.70795220    -0.49026601     0.86072622
     13      H     2.96133416    -0.82181766     0.89915260
     14      H     4.18604133     1.33694927    -0.79975269

Total System Charge              0.00000

 *** GO1_GOStep19 ***

 Energy gradients wrt nuclear displacements
 ==========================================

     Atom      Cartesian (a.u./angstrom)
                 X         Y         Z
 ----------------------------------------
     1 C    -0.000086 -0.000116  0.000110
     2 N     0.000316 -0.000248 -0.000101
     3 C     0.001624 -0.001083  0.000975
     4 O     0.000154  0.000058  0.000237
     5 C    -0.003710  0.003269 -0.001871
     6 C     0.001867 -0.001847  0.000926
     7 C     0.000494 -0.000025  0.000701
     8 F    -0.000033  0.000055 -0.000544
     9 F    -0.000513  0.000159 -0.000517
    10 F    -0.000337  0.000427 -0.000316
    11 H    -0.000016 -0.000192  0.000144
    12 H     0.000042 -0.000164  0.000087
    13 H     0.000013 -0.000171 -0.000007
    14 H     0.000184 -0.000122  0.000176
 ----------------------------------------

 dE(predicted):    -0.57396E-05, dE(actual):    -0.18005E-05, Trust radius:    0.020000, all in a.u.
 
----------------------------------------------------------------------
Geometry Convergence after Step  19       (Hartree/Angstrom,Angstrom)
----------------------------------------------------------------------
current energy                               -3.00068494 Hartree
energy change                      -0.00000180     0.00014000    T
constrained gradient max            0.00373063     0.00010000    F
constrained gradient rms            0.00100447     0.00006667    F
gradient max                        0.00373063
gradient rms                        0.00100447
cart. step max                      0.00491514     0.01000000    T
cart. step rms                      0.00181518     0.00666667    T
 

--------
Geometry
--------
Formula: C5H4F3NO
Atoms
  Index Symbol   x (angstrom)   y (angstrom)   z (angstrom)
      1      C     3.71152619    -0.03666613     0.77809040
      2      N     3.54152984     0.59685518    -0.53224889
      3      C     2.60242686     0.31848593    -1.48976394
      4      O     2.53200326     0.90410418    -2.57310692
      5      C     1.64862568    -0.74837826    -1.17234341
      6      C     0.85821458    -1.65033714    -1.01493606
      7      C    -0.11681513    -2.72208844    -0.84064461
      8      F    -0.71693619    -2.65701859     0.39328671
      9      F    -1.11244720    -2.66539691    -1.78085102
     10      F     0.47477089    -3.95557769    -0.94442480
     11      H     3.58786116     0.69860876     1.58306263
     12      H     4.70619328    -0.49218410     0.85979529
     13      H     2.95851671    -0.81854076     0.90080094
     14      H     4.18537008     1.33800398    -0.79944634

Total System Charge              0.00000

 *** GO1_GOStep20 ***

 Energy gradients wrt nuclear displacements
 ==========================================

     Atom      Cartesian (a.u./angstrom)
                 X         Y         Z
 ----------------------------------------
     1 C     0.000021 -0.000239  0.000329
     2 N     0.000350 -0.000119 -0.000018
     3 C     0.001542 -0.000775  0.000591
     4 O     0.000184  0.000007  0.000365
     5 C    -0.003576  0.002864 -0.001858
     6 C     0.001324 -0.002000  0.001133
     7 C     0.001325 -0.000041  0.000840
     8 F    -0.000127  0.000076 -0.000730
     9 F    -0.000815  0.000286 -0.000596
    10 F    -0.000405  0.000595 -0.000279
    11 H    -0.000043 -0.000204  0.000049
    12 H     0.000020 -0.000159  0.000068
    13 H    -0.000006 -0.000152 -0.000039
    14 H     0.000206 -0.000139  0.000145
 ----------------------------------------

 dE(predicted):    -0.71983E-05, dE(actual):    -0.59891E-05, Trust radius:    0.040000, all in a.u.
 
----------------------------------------------------------------------
Geometry Convergence after Step  20       (Hartree/Angstrom,Angstrom)
----------------------------------------------------------------------
current energy                               -3.00069093 Hartree
energy change                      -0.00000599     0.00014000    T
constrained gradient max            0.00359502     0.00010000    F
constrained gradient rms            0.00097090     0.00006667    F
gradient max                        0.00359502
gradient rms                        0.00097090
cart. step max                      0.00684889     0.01000000    T
cart. step rms                      0.00299627     0.00666667    T
 

--------
Geometry
--------
Formula: C5H4F3NO
Atoms
  Index Symbol   x (angstrom)   y (angstrom)   z (angstrom)
      1      C     3.71193459    -0.03580389     0.77839848
      2      N     3.53801273     0.60154788    -0.52992370
      3      C     2.60426669     0.31617347    -1.49079190
      4      O     2.53334088     0.89997797    -2.57480554
      5      C     1.65453219    -0.75522715    -1.17313746
      6      C     0.85937234    -1.65252555    -1.01275219
      7      C    -0.11682613    -2.72208248    -0.84084757
      8      F    -0.71791444    -2.65816803     0.39309890
      9      F    -1.11277284    -2.66094373    -1.78091531
     10      F     0.47167847    -3.95625028    -0.94642311
     11      H     3.59410195     0.69891805     1.58435599
     12      H     4.70501148    -0.49550928     0.85507752
     13      H     2.95586651    -0.81447868     0.90263243
     14      H     4.18023558     1.34424170    -0.79669654

Total System Charge              0.00000

 *** GO1_GOStep21 ***

 Energy gradients wrt nuclear displacements
 ==========================================

     Atom      Cartesian (a.u./angstrom)
                 X         Y         Z
 ----------------------------------------
     1 C     0.000287 -0.000431  0.000811
     2 N     0.000301  0.000109  0.000202
     3 C     0.001574 -0.000068 -0.000184
     4 O     0.000193 -0.000059  0.000594
     5 C    -0.003159  0.002002 -0.001788
     6 C     0.000003 -0.002650  0.001618
     7 C     0.002716  0.000199  0.000319
     8 F    -0.000287  0.000054 -0.000732
     9 F    -0.000991  0.000467 -0.000523
    10 F    -0.000592  0.001069 -0.000116
    11 H    -0.000108 -0.000270 -0.000202
    12 H    -0.000068 -0.000145  0.000023
    13 H    -0.000072 -0.000116 -0.000102
    14 H     0.000203 -0.000162  0.000080
 ----------------------------------------

 dE(predicted):    -0.18324E-04, dE(actual):    -0.20094E-04, Trust radius:    0.080000, all in a.u.
 
----------------------------------------------------------------------
Geometry Convergence after Step  21       (Hartree/Angstrom,Angstrom)
----------------------------------------------------------------------
current energy                               -3.00071102 Hartree
energy change                      -0.00002009     0.00014000    T
constrained gradient max            0.00317839     0.00010000    F
constrained gradient rms            0.00099477     0.00006667    F
gradient max                        0.00317839
gradient rms                        0.00099477
cart. step max                      0.01963774     0.01000000    F
cart. step rms                      0.00794629     0.00666667    F
 

--------
Geometry
--------
Formula: C5H4F3NO
Atoms
  Index Symbol   x (angstrom)   y (angstrom)   z (angstrom)
      1      C     3.71452878    -0.02900567     0.78111745
      2      N     3.53287842     0.60952432    -0.52583745
      3      C     2.60819973     0.30821297    -1.49047799
      4      O     2.53643537     0.88416423    -2.57834328
      5      C     1.66538070    -0.76940015    -1.16930596
      6      C     0.86187963    -1.65937950    -1.00990852
      7      C    -0.12001570    -2.72366452    -0.84428168
      8      F    -0.71465102    -2.66882199     0.39418770
      9      F    -1.12059041    -2.64525967    -1.77780099
     10      F     0.45826661    -3.96057348    -0.96606085
     11      H     3.60744094     0.70724378     1.58677537
     12      H     4.70520117    -0.49505039     0.85010141
     13      H     2.95418876    -0.80247016     0.91181535
     14      H     4.17169700     1.35435023    -0.79471056

Total System Charge              0.00000

 *** GO1_GOStep22 ***

 Energy gradients wrt nuclear displacements
 ==========================================

     Atom      Cartesian (a.u./angstrom)
                 X         Y         Z
 ----------------------------------------
     1 C     0.000499 -0.000505  0.001212
     2 N     0.000154  0.000278  0.000354
     3 C     0.001469  0.000791 -0.000963
     4 O     0.000207 -0.000210  0.000797
     5 C    -0.002512  0.000670 -0.001261
     6 C    -0.001030 -0.002680  0.001790
     7 C     0.003542  0.000483 -0.000730
     8 F    -0.000539  0.000050 -0.000230
     9 F    -0.000623  0.000448 -0.000257
    10 F    -0.000959  0.001420 -0.000162
    11 H    -0.000133 -0.000361 -0.000376
    12 H    -0.000157 -0.000118 -0.000061
    13 H    -0.000099 -0.000076 -0.000144
    14 H     0.000183 -0.000190  0.000031
 ----------------------------------------

 dE(predicted):    -0.25844E-04, dE(actual):    -0.18944E-04, Trust radius:    0.080000, all in a.u.
 
----------------------------------------------------------------------
Geometry Convergence after Step  22       (Hartree/Angstrom,Angstrom)
----------------------------------------------------------------------
current energy                               -3.00072996 Hartree
energy change                      -0.00001894     0.00014000    T
constrained gradient max            0.00363876     0.00010000    F
constrained gradient rms            0.00101726     0.00006667    F
gradient max                        0.00363876
gradient rms                        0.00101726
cart. step max                      0.03064134     0.01000000    F
cart. step rms                      0.01116217     0.00666667    F
 

--------
Geometry
--------
Formula: C5H4F3NO
Atoms
  Index Symbol   x (angstrom)   y (angstrom)   z (angstrom)
      1      C     3.72055721    -0.03206561     0.77822637
      2      N     3.52484173     0.61881941    -0.52061918
      3      C     2.60677814     0.30818990    -1.48830472
      4      O     2.52776966     0.88731574    -2.57399145
      5      C     1.67601381    -0.78081802    -1.16977410
      6      C     0.86675399    -1.66538164    -1.00922968
      7      C    -0.12183292    -2.72350298    -0.84585603
      8      F    -0.73869611    -2.64608529     0.38126084
      9      F    -1.10468315    -2.65626053    -1.79752493
     10      F     0.45403625    -3.96450159    -0.93541950
     11      H     3.62666082     0.69833518     1.59057320
     12      H     4.70961144    -0.50363358     0.83154842
     13      H     2.95782355    -0.80265464     0.91207050
     14      H     4.15520558     1.37211364    -0.78568974

Total System Charge              0.00000

 *** GO1_GOStep23 ***

 Energy gradients wrt nuclear displacements
 ==========================================

     Atom      Cartesian (a.u./angstrom)
                 X         Y         Z
 ----------------------------------------
     1 C     0.000600 -0.000565  0.001223
     2 N    -0.000244  0.000209  0.000438
     3 C     0.001381  0.001098 -0.001011
     4 O     0.000175 -0.000069  0.000612
     5 C    -0.001418 -0.000132 -0.001119
     6 C    -0.001577 -0.002537  0.002239
     7 C     0.003336  0.000621 -0.002345
     8 F    -0.000665 -0.000007  0.000031
     9 F    -0.000388  0.000699  0.000318
    10 F    -0.000667  0.001361  0.000207
    11 H    -0.000186 -0.000371 -0.000387
    12 H    -0.000282 -0.000100 -0.000077
    13 H    -0.000153 -0.000064 -0.000159
    14 H     0.000087 -0.000142  0.000029
 ----------------------------------------

 dE(predicted):    -0.15262E-04, dE(actual):    -0.23075E-04, Trust radius:    0.160000, all in a.u.
 
----------------------------------------------------------------------
Geometry Convergence after Step  23       (Hartree/Angstrom,Angstrom)
----------------------------------------------------------------------
current energy                               -3.00075304 Hartree
energy change                      -0.00002308     0.00014000    T
constrained gradient max            0.00341544     0.00010000    F
constrained gradient rms            0.00103025     0.00006667    F
gradient max                        0.00341544
gradient rms                        0.00103025
cart. step max                      0.01905640     0.01000000    F
cart. step rms                      0.00630132     0.00666667    T
 

--------
Geometry
--------
Formula: C5H4F3NO
Atoms
  Index Symbol   x (angstrom)   y (angstrom)   z (angstrom)
      1      C     3.72710911    -0.02825895     0.77884059
      2      N     3.52216232     0.62339095    -0.51787236
      3      C     2.60495903     0.30525572    -1.48368518
      4      O     2.52084947     0.88225556    -2.57029058
      5      C     1.68024246    -0.78778671    -1.16327346
      6      C     0.86836321    -1.67101313    -1.00900578
      7      C    -0.12645588    -2.72566752    -0.84997259
      8      F    -0.75140152    -2.64188485     0.37263246
      9      F    -1.10038103    -2.65883791    -1.80961634
     10      F     0.44574459    -3.96961915    -0.93185594
     11      H     3.64571722     0.70287488     1.59206527
     12      H     4.71401116    -0.50564418     0.82328729
     13      H     2.96147670    -0.79452212     0.92100741
     14      H     4.14844317     1.37932741    -0.78499081

Total System Charge              0.00000

 *** GO1_GOStep24 ***

 Energy gradients wrt nuclear displacements
 ==========================================

     Atom      Cartesian (a.u./angstrom)
                 X         Y         Z
 ----------------------------------------
     1 C     0.000411 -0.000336  0.000745
     2 N    -0.000305  0.000133  0.000317
     3 C     0.000895  0.000677 -0.000624
     4 O     0.000160 -0.000043  0.000418
     5 C    -0.000892 -0.000208 -0.000764
     6 C    -0.000543 -0.001423  0.001712
     7 C     0.001505  0.000548 -0.002398
     8 F    -0.000574  0.000029  0.000434
     9 F     0.000268  0.000354  0.000391
    10 F    -0.000590  0.000868 -0.000149
    11 H    -0.000106 -0.000303 -0.000101
    12 H    -0.000229 -0.000102 -0.000038
    13 H    -0.000105 -0.000092 -0.000060
    14 H     0.000103 -0.000102  0.000116
 ----------------------------------------

 dE(predicted):    -0.10559E-04, dE(actual):    -0.71635E-05, Trust radius:    0.160000, all in a.u.
 
----------------------------------------------------------------------
Geometry Convergence after Step  24       (Hartree/Angstrom,Angstrom)
----------------------------------------------------------------------
current energy                               -3.00076020 Hartree
energy change                      -0.00000716     0.00014000    T
constrained gradient max            0.00219889     0.00010000    F
constrained gradient rms            0.00068038     0.00006667    F
gradient max                        0.00219889
gradient rms                        0.00068038
cart. step max                      0.06383999     0.01000000    F
cart. step rms                      0.02053611     0.00666667    F
 

--------
Geometry
--------
Formula: C5H4F3NO
Atoms
  Index Symbol   x (angstrom)   y (angstrom)   z (angstrom)
      1      C     3.73937289    -0.03538101     0.77308457
      2      N     3.51837419     0.62802864    -0.51458146
      3      C     2.59439971     0.31308350    -1.47492275
      4      O     2.49620792     0.90076039    -2.55490462
      5      C     1.68027151    -0.78865955    -1.15788999
      6      C     0.87023768    -1.67439191    -1.00884104
      7      C    -0.12931218    -2.72677205    -0.85246568
      8      F    -0.80035832    -2.60122950     0.34126623
      9      F    -1.06378677    -2.69710264    -1.85081437
     10      F     0.44831619    -3.97222683    -0.86801595
     11      H     3.67512997     0.68981232     1.59330919
     12      H     4.72396525    -0.51932595     0.79966821
     13      H     2.97139800    -0.79811660     0.92151203
     14      H     4.13662397     1.39139119    -0.77913437

Total System Charge              0.00000

 *** GO1_GOStep25 ***

 Energy gradients wrt nuclear displacements
 ==========================================

     Atom      Cartesian (a.u./angstrom)
                 X         Y         Z
 ----------------------------------------
     1 C     0.000076 -0.000136  0.000083
     2 N    -0.000297 -0.000017  0.000307
     3 C     0.000194 -0.000004 -0.000060
     4 O     0.000136  0.000174  0.000096
     5 C    -0.000282  0.000049 -0.000661
     6 C     0.000604 -0.000337  0.001396
     7 C    -0.000529  0.000306 -0.002416
     8 F    -0.000341  0.000084  0.000522
     9 F     0.000856  0.000143  0.000554
    10 F    -0.000087  0.000066 -0.000305
    11 H    -0.000088 -0.000149  0.000172
    12 H    -0.000171 -0.000125  0.000055
    13 H    -0.000104 -0.000055  0.000048
    14 H     0.000031  0.000001  0.000210
 ----------------------------------------

 dE(predicted):    -0.10883E-04, dE(actual):    -0.25670E-04, Trust radius:    0.160000, all in a.u.
 
----------------------------------------------------------------------
Geometry Convergence after Step  25       (Hartree/Angstrom,Angstrom)
----------------------------------------------------------------------
current energy                               -3.00078587 Hartree
energy change                      -0.00002567     0.00014000    T
constrained gradient max            0.00220441     0.00010000    F
constrained gradient rms            0.00050385     0.00006667    F
gradient max                        0.00220441
gradient rms                        0.00050385
cart. step max                      0.03408716     0.01000000    F
cart. step rms                      0.01078494     0.00666667    F
 

--------
Geometry
--------
Formula: C5H4F3NO
Atoms
  Index Symbol   x (angstrom)   y (angstrom)   z (angstrom)
      1      C     3.74651873    -0.03951584     0.77010600
      2      N     3.51897867     0.62772719    -0.51427199
      3      C     2.58810728     0.31809308    -1.46983282
      4      O     2.48325772     0.91165837    -2.54605686
      5      C     1.67557263    -0.78493526    -1.15415317
      6      C     0.86897417    -1.67445024    -1.00882350
      7      C    -0.13106856    -2.72726478    -0.85343582
      8      F    -0.82667084    -2.58171637     0.32299159
      9      F    -1.04467207    -2.71957930    -1.87132302
     10      F     0.45067633    -3.97133651    -0.83392879
     11      H     3.68478541     0.68286355     1.59307435
     12      H     4.73215924    -0.52182295     0.79130892
     13      H     2.98063580    -0.80416186     0.91951757
     14      H     4.13358550     1.39431092    -0.77790244

Total System Charge              0.00000

 *** GO1_GOStep26 ***

 Energy gradients wrt nuclear displacements
 ==========================================

     Atom      Cartesian (a.u./angstrom)
                 X         Y         Z
 ----------------------------------------
     1 C    -0.000046 -0.000077 -0.000111
     2 N    -0.000074  0.000017  0.000309
     3 C     0.000049 -0.000380  0.000093
     4 O     0.000132  0.000107  0.000136
     5 C    -0.000497  0.000554 -0.000703
     6 C     0.001190 -0.000234  0.001152
     7 C    -0.001218  0.000412 -0.001879
     8 F    -0.000207  0.000121  0.000126
     9 F     0.000823 -0.000022  0.000426
    10 F     0.000058 -0.000263 -0.000386
    11 H    -0.000040 -0.000104  0.000215
    12 H    -0.000072 -0.000155  0.000183
    13 H    -0.000068 -0.000050  0.000127
    14 H    -0.000031  0.000072  0.000313
 ----------------------------------------
 
----------------------------------------------------------------------
Geometry Convergence after Step  26       (Hartree/Angstrom,Angstrom)
----------------------------------------------------------------------
current energy                               -3.00078594 Hartree
energy change                      -0.00000007     0.00014000    T
constrained gradient max            0.00164403     0.00010000    F
constrained gradient rms            0.00049076     0.00006667    F
gradient max                        0.00164403
gradient rms                        0.00049076
cart. step max                      0.01747970     0.01000000    F
cart. step rms                      0.00649339     0.00666667    T
 

--------
Geometry
--------
Formula: C5H4F3NO
Atoms
  Index Symbol   x (angstrom)   y (angstrom)   z (angstrom)
      1      C     3.74206580    -0.03824107     0.77161739
      2      N     3.52292315     0.62346268    -0.51712745
      3      C     2.58993210     0.31803882    -1.47203924
      4      O     2.48912523     0.91008603    -2.54952757
      5      C     1.67205972    -0.78031395    -1.15545130
      6      C     0.86734782    -1.67158030    -1.00979689
      7      C    -0.12973962    -2.72697709    -0.85192012
      8      F    -0.81177985    -2.59413222     0.33332981
      9      F    -1.05564705    -2.71102789    -1.85976369
     10      F     0.45426620    -3.96998540    -0.85140850
     11      H     3.67274538     0.68680135     1.59172920
     12      H     4.72866758    -0.51807761     0.80168515
     13      H     2.97695525    -0.80425644     0.91799113
     14      H     4.14191829     1.38607308    -0.78204794

Total System Charge              0.00000

 *** GO1_GOStep27 ***

 Energy gradients wrt nuclear displacements
 ==========================================

     Atom      Cartesian (a.u./angstrom)
                 X         Y         Z
 ----------------------------------------
     1 C    -0.000116 -0.000073 -0.000047
     2 N     0.000036  0.000051  0.000247
     3 C     0.000162 -0.000363  0.000264
     4 O     0.000136  0.000109  0.000038
     5 C    -0.000696  0.000981 -0.000799
     6 C     0.001312 -0.000536  0.000990
     7 C    -0.001043  0.000338 -0.000823
     8 F    -0.000055 -0.000062 -0.000175
     9 F     0.000224  0.000037 -0.000139
    10 F     0.000136 -0.000133 -0.000348
    11 H    -0.000016 -0.000124  0.000187
    12 H    -0.000014 -0.000173  0.000219
    13 H    -0.000081 -0.000078  0.000107
    14 H     0.000014  0.000025  0.000279
 ----------------------------------------

 dE(predicted):    -0.29369E-05, dE(actual):    -0.42874E-05, Trust radius:    0.160000, all in a.u.
 
----------------------------------------------------------------------
Geometry Convergence after Step  27       (Hartree/Angstrom,Angstrom)
----------------------------------------------------------------------
current energy                               -3.00079023 Hartree
energy change                      -0.00000429     0.00014000    T
constrained gradient max            0.00129386     0.00010000    F
constrained gradient rms            0.00041362     0.00006667    F
gradient max                        0.00129386
gradient rms                        0.00041362
cart. step max                      0.00570598     0.01000000    T
cart. step rms                      0.00169298     0.00666667    T
 

--------
Geometry
--------
Formula: C5H4F3NO
Atoms
  Index Symbol   x (angstrom)   y (angstrom)   z (angstrom)
      1      C     3.74233709    -0.03945941     0.77094173
      2      N     3.52222128     0.62405542    -0.51678695
      3      C     2.58973685     0.31863707    -1.47218513
      4      O     2.48791641     0.91205013    -2.54876242
      5      C     1.67334331    -0.78141592    -1.15647051
      6      C     0.86798358    -1.67187654    -1.00987965
      7      C    -0.12927481    -2.72657841    -0.85137036
      8      F    -0.81445128    -2.58993013     0.33171127
      9      F    -1.05279599    -2.71310662    -1.86160247
     10      F     0.45396195    -3.96978148    -0.84570251
     11      H     3.67193264     0.68419530     1.59212338
     12      H     4.72951912    -0.51805481     0.80004625
     13      H     2.97815109    -0.80665855     0.91591075
     14      H     4.14025877     1.38779395    -0.78070337

Total System Charge              0.00000

 *** GO1_GOStep28 ***

 Energy gradients wrt nuclear displacements
 ==========================================

     Atom      Cartesian (a.u./angstrom)
                 X         Y         Z
 ----------------------------------------
     1 C    -0.000052 -0.000120  0.000086
     2 N    -0.000020  0.000047  0.000257
     3 C     0.000204 -0.000190  0.000131
     4 O     0.000148  0.000114  0.000106
     5 C    -0.000724  0.000641 -0.000777
     6 C     0.001071 -0.000533  0.001042
     7 C    -0.000585  0.000399 -0.000816
     8 F    -0.000100 -0.000026 -0.000193
     9 F     0.000206  0.000073 -0.000153
    10 F     0.000038 -0.000072 -0.000348
    11 H    -0.000044 -0.000133  0.000148
    12 H    -0.000052 -0.000162  0.000184
    13 H    -0.000099 -0.000063  0.000076
    14 H     0.000009  0.000024  0.000256
 ----------------------------------------

 dE(predicted):    -0.92301E-06, dE(actual):    -0.33461E-05, Trust radius:    0.160000, all in a.u.
 
----------------------------------------------------------------------
Geometry Convergence after Step  28       (Hartree/Angstrom,Angstrom)
----------------------------------------------------------------------
current energy                               -3.00079358 Hartree
energy change                      -0.00000335     0.00014000    T
constrained gradient max            0.00115548     0.00010000    F
constrained gradient rms            0.00035440     0.00006667    F
gradient max                        0.00115548
gradient rms                        0.00035440
cart. step max                      0.00561832     0.01000000    T
cart. step rms                      0.00218303     0.00666667    T
 

--------
Geometry
--------
Formula: C5H4F3NO
Atoms
  Index Symbol   x (angstrom)   y (angstrom)   z (angstrom)
      1      C     3.74284727    -0.04072324     0.77023968
      2      N     3.52233001     0.62401945    -0.51690178
      3      C     2.58974137     0.31909827    -1.47234132
      4      O     2.48634701     0.91413889    -2.54777420
      5      C     1.67497637    -0.78293302    -1.15736249
      6      C     0.86838038    -1.67220671    -1.01039177
[...]
                                   -2.30%     1 P:z            -5.239  0.67     5 C
                                    2.26%     2 P:x             4.589  0.00     1 C
                                    2.00%     2 P:x             4.589  0.00     2 C
                                   -1.77%     2 S               2.394  0.00    11 H
                                    1.56%     2 P:z             4.589  0.00     4 C
                                    1.43%     3 P:y            54.789  0.00     5 C
                                   -1.41%     2 P:x            11.654  0.00    10 F
                                    1.37%     2 P:x             4.589  0.00     4 C
                                    1.36%     2 P:y             4.589  0.00     1 C
                                   -1.29%     2 P:x            11.654  0.00     8 F
                                    1.28%     3 P:x            54.789  0.00     5 C
                                    1.28%     2 P:y             4.589  0.00     2 C
       1.944  0.00    49 A         66.17%     3 S               0.624  0.00     9 F
                                   29.37%     3 S               0.624  0.00     8 F
                                  -24.66%     2 P:z             4.589  0.00     5 C
                                   20.78%     3 S               0.624  0.00    10 F
                                  -12.41%     1 P:z            -5.239  0.67     5 C
                                   -5.43%     2 P:z            11.654  0.00     9 F
                                    5.13%     2 P:z             4.589  0.00     4 C
                                    4.65%     1 P:z            -5.239  0.67     1 C
                                    3.57%     2 S             -13.620  2.00     5 C
                                    3.39%     1 S              -6.532  1.00    13 H
                                   -3.23%     2 P:y             4.589  0.00     5 C
                                    3.01%     2 P:x             4.589  0.00     3 C
                                    2.70%     2 P:z             4.589  0.00     2 C
                                    2.48%     2 P:z             4.589  0.00     1 C
                                   -2.42%     2 P:x            11.654  0.00     9 F
                                    2.32%     1 P:x            -5.239  0.67     1 C
                                    2.30%     3 P:z            54.789  0.00     5 C
                                    1.70%     2 P:x             4.589  0.00     4 C
                                   -1.64%     1 P:y            -5.239  0.67     5 C
                                    1.52%     2 P:x             4.589  0.00     2 C
                                   -1.45%     1 P:x            -5.239  0.67     5 C
                                    1.45%     1 P:x            -5.239  0.67     2 C
                                   -1.34%     2 P:z             4.589  0.00     3 C
                                   -1.31%     2 P:y             7.649  0.00     6 N
                                    1.31%     2 P:y             4.589  0.00     3 C
                                   -1.29%     2 P:y            11.654  0.00    10 F
                                    1.29%     1 S              -6.532  1.00    12 H
                                    1.22%     1 P:x            -5.239  0.67     3 C
                                   -1.18%     3 S              14.073  0.00     6 N
                                   -1.08%     2 P:z            11.654  0.00     8 F
                                    1.03%     4 S              42.880  0.00     8 F
                                    1.01%     2 P:z            11.654  0.00    10 F
       2.632  0.00    50 A         16.94%     2 P:y             4.589  0.00     3 C
                                   15.27%     1 P:y            -5.239  0.67     1 C
                                  -14.27%     2 P:z             7.649  0.00     6 N
                                   12.46%     1 P:z            -5.239  0.67     1 C
                                   12.08%     2 P:y             4.589  0.00     1 C
                                   10.72%     2 P:y             4.589  0.00     4 C
                                    8.76%     1 S              -6.532  1.00    13 H
                                    8.58%     2 P:x             4.589  0.00     1 C
                                    7.59%     1 P:y            -5.239  0.67     5 C
                                    7.51%     2 P:y             4.589  0.00     2 C
                                    6.98%     2 P:x             4.589  0.00     4 C
                                   -6.76%     2 S               2.394  0.00    13 H
                                   -6.19%     3 S              10.158  0.00     2 C
                                    5.18%     2 P:x             4.589  0.00     3 C
                                    4.99%     2 P:z             4.589  0.00     3 C
                                    4.85%     1 P:z            -5.239  0.67     5 C
                                    4.22%     2 S               2.394  0.00    14 H
                                    3.99%     3 S               0.624  0.00     9 F
                                    3.84%     1 P:y            -5.239  0.67     4 C
                                   -3.81%     2 P:z             4.589  0.00     1 C
                                    3.48%     1 P:x            -5.239  0.67     4 C
                                   -3.41%     3 S               0.624  0.00    10 F
                                    3.38%     1 P:x            -5.239  0.67     3 C
                                   -3.28%     3 S               0.624  0.00     8 F
                                   -3.26%     2 P:z             4.589  0.00     5 C
                                   -3.05%     2 S             -13.620  2.00     5 C
                                    3.02%     2 S             -18.450  2.00     6 N
                                    2.92%     1 P:y            -5.239  0.67     2 C
                                   -2.59%     2 P:x             7.649  0.00     6 N
                                    2.50%     1 P:y            -5.239  0.67     3 C
                                    2.42%     1 P:x            -5.239  0.67     1 C
                                   -2.39%     3 S              21.524  0.00     7 O
                                    2.31%     2 P:x             4.589  0.00     2 C
                                   -2.14%     2 S             -13.620  2.00     4 C
                                   -2.10%     3 S              40.869  0.00    13 H
                                    2.06%     1 P:z            -5.239  0.67     2 C
                                    2.00%     1 P:x            -5.239  0.67     5 C
                                   -1.87%     2 S             -13.620  2.00     3 C
                                    1.78%     1 P:z            11.051  0.00    14 H
                                   -1.75%     2 P:y             4.589  0.00     5 C
                                   -1.70%     2 S             -13.620  2.00     2 C
                                   -1.56%     3 S              10.158  0.00     5 C
                                    1.42%     1 P:y            -7.062  1.00     6 N
                                   -1.27%     1 P:x            -5.239  0.67     2 C
                                   -1.17%     3 S              10.158  0.00     3 C
                                   -1.07%     1 P:x            -7.062  1.00     6 N
                                    1.00%     1 S              -6.532  1.00    14 H

 Energy gradients wrt nuclear displacements
 ==========================================

     Atom      Cartesian (a.u./angstrom)
                 X         Y         Z
 ----------------------------------------
     1 C    -0.000062 -0.000093  0.000149
     2 N     0.000045 -0.000038  0.000163
     3 C     0.000054  0.000055  0.000083
     4 O     0.000152  0.000112  0.000125
     5 C     0.000028  0.000048 -0.000056
     6 C     0.000065  0.000039 -0.000018
     7 C    -0.000034  0.000073 -0.000306
     8 F    -0.000090  0.000010 -0.000243
     9 F     0.000060  0.000129 -0.000275
    10 F    -0.000032  0.000041 -0.000281
    11 H    -0.000098 -0.000144  0.000179
    12 H    -0.000069 -0.000117  0.000178
    13 H    -0.000075 -0.000095  0.000053
    14 H     0.000055 -0.000019  0.000248
 ----------------------------------------



 =======================================================================
 Electrostatic potential at the Nuclei due to electrons and other nuclei
 =======================================================================
  
         Atom                  Potential
         ----                  ---------
     1)   C                  14.72217976
     2)   N                  18.35372605
     3)   C                  14.64601855
     4)   O                  22.40838477
     5)   C                  14.74288790
     6)   C                  14.74511751
     7)   C                  14.49365108
     8)   F                  26.60140754
     9)   F                  26.60212928
    10)   F                  26.60126340
    11)   H                   1.07925374
    12)   H                   1.07854280
    13)   H                   1.07079509
    14)   H                   0.98983864
 Mulliken charges used for AMS results%charges...


    =====================
     CALCULATION RESULTS
    =====================

Energy (hartree)            -3.00082294

Gradients (hartree/bohr)
  Index   Atom            d/dx            d/dy            d/dz
      1      C   -0.0000325461   -0.0000494676    0.0000788708
      2      N    0.0000237973   -0.0000202065    0.0000863873
      3      C    0.0000287279    0.0000291586    0.0000438357
      4      O    0.0000804741    0.0000593816    0.0000659948
      5      C    0.0000146835    0.0000252786   -0.0000298171
      6      C    0.0000346371    0.0000204156   -0.0000093274
      7      C   -0.0000182322    0.0000387150   -0.0001620446
      8      F   -0.0000474479    0.0000055080   -0.0001284770
      9      F    0.0000318526    0.0000681401   -0.0001455339
     10      F   -0.0000170275    0.0000218975   -0.0001485216
     11      H   -0.0000520154   -0.0000762532    0.0000949157
     12      H   -0.0000366424   -0.0000621294    0.0000939575
     13      H   -0.0000394579   -0.0000502023    0.0000282608
     14      H    0.0000291968   -0.0000102358    0.0001314991


--------------
Atomic charges
--------------
  Index   Atom    Charge
      1      C    0.7512
      2      N   -0.1283
      3      C    0.5506
      4      O   -0.5318
      5      C   -0.0687
      6      C   -0.0489
      7      C    1.1578
      8      F   -0.3847
      9      F   -0.3783
     10      F   -0.3834
     11      H   -0.1762
     12      H   -0.1767
     13      H   -0.1734
     14      H   -0.0092


Dipole moment vector    (Debye):     3.24348822    0.80468449    3.49691542
              magnitude (Debye):     4.83695673


-----------------------
Molecular orbitals info
-----------------------
n orbitals:              304
n spin:                    1

Note: only printing virtual orbitals with
      energy smaller than HOMO + 100. eV

HOMO (eV):              -6.6373
LUMO (eV):              -2.7903
HOMO-LUMO gap (eV):      3.8470

   Index   Energy (eV)    Occupation
     191       93.1809         0.000       
     190       92.7754         0.000       
     189       92.0888         0.000       
     188       91.9367         0.000       
     187       91.1739         0.000       
     186       90.5491         0.000       
     185       90.2880         0.000       
     184       89.8863         0.000       
     183       89.4969         0.000       
     182       89.2875         0.000       
     181       89.1614         0.000       
     180       87.4696         0.000       
     179       85.7140         0.000       
     178       85.4596         0.000       
     177       84.4932         0.000       
     176       83.6817         0.000       
     175       82.1020         0.000       
     174       81.6706         0.000       
     173       80.2527         0.000       
     172       79.1532         0.000       
     171       78.2346         0.000       
     170       77.0231         0.000       
     169       76.8895         0.000       
     168       76.4906         0.000       
     167       75.8057         0.000       
     166       74.6855         0.000       
     165       73.8530         0.000       
     164       72.7633         0.000       
     163       71.5813         0.000       
     162       70.5671         0.000       
     161       69.4492         0.000       
     160       66.1317         0.000       
     159       66.1001         0.000       
     158       64.6400         0.000       
     157       63.6184         0.000       
     156       63.1051         0.000       
     155       62.0962         0.000       
     154       61.1311         0.000       
     153       59.7680         0.000       
     152       59.3896         0.000       
     151       58.1137         0.000       
     150       57.9835         0.000       
     149       56.8459         0.000       
     148       56.3705         0.000       
     147       55.4327         0.000       
     146       54.8051         0.000       
     145       54.2830         0.000       
     144       52.4978         0.000       
     143       51.4230         0.000       
     142       51.0053         0.000       
     141       49.7990         0.000       
     140       49.5527         0.000       
     139       47.9979         0.000       
     138       47.7172         0.000       
     137       47.1342         0.000       
     136       46.6323         0.000       
     135       46.3684         0.000       
     134       45.6471         0.000       
     133       45.3351         0.000       
     132       44.0260         0.000       
     131       43.9008         0.000       
     130       42.7920         0.000       
     129       42.5485         0.000       
     128       42.4921         0.000       
     127       41.7527         0.000       
     126       41.5749         0.000       
     125       40.2895         0.000       
     124       39.0763         0.000       
     123       38.3270         0.000       
     122       37.0196         0.000       
     121       36.4730         0.000       
     120       35.8128         0.000       
     119       35.5145         0.000       
     118       35.4822         0.000       
     117       34.9018         0.000       
     116       34.0800         0.000       
     115       33.9337         0.000       
     114       33.2521         0.000       
     113       32.3968         0.000       
     112       31.7091         0.000       
     111       31.5919         0.000       
     110       31.2037         0.000       
     109       30.7674         0.000       
     108       29.0038         0.000       
     107       28.5240         0.000       
     106       28.2555         0.000       
     105       27.4555         0.000       
     104       27.0978         0.000       
     103       26.6517         0.000       
     102       26.6043         0.000       
     101       26.1920         0.000       
     100       25.2845         0.000       
      99       24.7520         0.000       
      98       24.0569         0.000       
      97       23.6046         0.000       
      96       23.5981         0.000       
      95       23.1135         0.000       
      94       22.9201         0.000       
      93       22.2862         0.000       
      92       21.6845         0.000       
      91       21.5719         0.000       
      90       21.2198         0.000       
      89       20.5343         0.000       
      88       19.5219         0.000       
      87       19.2034         0.000       
      86       18.5606         0.000       
      85       18.4544         0.000       
      84       18.0992         0.000       
      83       17.7671         0.000       
      82       17.2518         0.000       
      81       16.1091         0.000       
      80       16.0406         0.000       
      79       15.4804         0.000       
      78       14.8912         0.000       
      77       14.2544         0.000       
      76       12.7020         0.000       
      75       12.4150         0.000       
      74       12.2177         0.000       
      73       11.3322         0.000       
      72       10.5293         0.000       
      71       10.2843         0.000       
      70        9.9238         0.000       
      69        9.5385         0.000       
      68        9.0561         0.000       
      67        9.0397         0.000       
      66        8.6483         0.000       
      65        7.8288         0.000       
      64        6.9645         0.000       
      63        6.8143         0.000       
      62        6.4800         0.000       
      61        6.4609         0.000       
      60        5.8609         0.000       
      59        5.3850         0.000       
      58        4.9844         0.000       
      57        4.0099         0.000       
      56        3.9525         0.000       
      55        3.6914         0.000       
      54        3.5306         0.000       
      53        3.3311         0.000       
      52        3.2824         0.000       
      51        2.6843         0.000       
      50        2.6317         0.000       
      49        1.9444         0.000       
      48        1.6999         0.000       
      47        1.6017         0.000       
      46        1.4057         0.000       
      45        0.8771         0.000       
      44        0.4475         0.000       
      43        0.2646         0.000       
      42       -0.1709         0.000       
      41       -0.6869         0.000       
      40       -1.6787         0.000       
      39       -2.7903         0.000 < LUMO
      38       -6.6373         2.000 < HOMO
      37       -6.7605         2.000       
      36       -7.9757         2.000       
      35       -8.1722         2.000       
      34       -9.9614         2.000       
      33      -10.3299         2.000       
      32      -10.4261         2.000       
      31      -10.4739         2.000       
      30      -10.5698         2.000       
      29      -10.6280         2.000       
      28      -10.7476         2.000       
      27      -11.4236         2.000       
      26      -11.4282         2.000       
      25      -11.7867         2.000       
      24      -12.7235         2.000       
      23      -13.6286         2.000       
      22      -14.8249         2.000       
      21      -14.8390         2.000       
      20      -15.4052         2.000       
      19      -16.6667         2.000       
      18      -18.1781         2.000       
      17      -18.6647         2.000       
      16      -20.4443         2.000       
      15      -23.6635         2.000       
      14      -26.4204         2.000       
      13      -30.8451         2.000       
      12      -30.8505         2.000       
      11      -32.9974         2.000       
      10     -271.3722         2.000       
       9     -271.4919         2.000       
       8     -271.6927         2.000       
       7     -273.8296         2.000       
       6     -277.7378         2.000       
       5     -383.1651         2.000       
       4     -511.2927         2.000       
       3     -662.7472         2.000       
       2     -662.7658         2.000       
       1     -662.7693         2.000       

AMS application finished. Exiting.
NORMAL TERMINATION
     Total cpu time:    1388.69
  Total system time:      10.12
 Total elapsed time:    1406.26
NORMAL TERMINATION
