
 *******************************************************************************
 *                                                                             *
 *  --------------------------------                                           *
 *   Amsterdam Modeling Suite (AMS)              2026.103                      *
 *  --------------------------------                                           *
 *                                               r260501 2026-05-01 873454b5   *
 *                                                                             *
 *                                                                             *
 *                              =================                              *
 *                              |               |                              *
 *                              |     A M S     |                              *
 *                              |               |                              *
 *                              =================                              *
 *                                                                             *
 *                                                                             *
 *   Online information and documentation:  https://www.scm.com/support/       *
 *   E-mail:  support@scm.com   info@scm.com                                   *
 *                                                                             *
 *   Scientific publications using AMS results must be properly referenced     *
 *   See the User Manuals (or the web site) for recommended citations          *
 *   The terms and conditions of the End User License Agreement apply to       *
 *   the use of AMS, https://www.scm.com/license-terms/                        *
 *                                                                             *
 **********************  x86_64_linux_intel / intelmpi  ************************
 
 Licensed to: Jong-June Jeon / University of Seoul 2026-06-02 13:44:15
 SCM User ID: u30731
  
 AMS 2026.103  RunTime: Jun03-2026 00:12:45  ShM Nodes: 1  Procs: 1

 AMS jobname: c4_fragA_opt
 AMS jobid  : 1474941929

 Start   directory: /gpfs/home1/yeseo1ee/projects/eda-asm-prediction/ADF_800/adf_outputs/batch_000/dipolar_000945/
 Results directory: /gpfs/home1/yeseo1ee/projects/eda-asm-prediction/ADF_800/adf_outputs/batch_000/dipolar_000945/c4_fragA_opt.results/
 Scratch directory: /tmp/amstmp_c4_fragA_opt_kid0.1474941929/

 RNG seed: 1176467113 1371212982 1185209742 -447773138 -1674592032 831821162 -655713474 -811899478



                      ************************************************************************
                      *  ADF 2026.103  RunTime: Jun03-2026 00:12:45  ShM Nodes: 1  Procs: 1  *
                      ************************************************************************
  

       ***************************
       *  GEOMETRY OPTIMIZATION  *
       ***************************

Optimization Method                    Quasi Newton
Optimization Coordinates               Delocalized Coordinates
Optimize lattice                       F
 
 ------------------------------------------------------
 Convergence criteria (Hartree,Angstrom)
 ------------------------------------------------------
 Maximum gradient               0.000100000000
 Maximum rms gradient           0.000066666667
 Maximum step allowed           0.010000000000
 Maximum rms step allowed       0.006666666667
 Maximum energy change allowe   0.000200000000
 Maximum stress energy allowe   0.000500000000
 
Initial model Hessian                  Automatic Hessian
 
------------------------------------
Quasi-Newton Optimizer Parameters
------------------------------------
Hessian Update Method                  BFGS
Maximum number of steps                  200
First GDIIS cycle                          0
Maximum GDIIS vectors                      0
Trust radius (bohr)                        0.200000
Trust radius varies                        T
Constraints converged at all steps         T
Use projector                              T
 
 Rigid motions settings for: old optimizer
 Atomic rotations (x,y,z):     T T T
 Atomic translations (x,y,z):  T T T
 Tolerance:                  1.000000000000000E-006

--------
Geometry
--------
Formula: C8H9F3
Atoms
  Index Symbol   x (angstrom)   y (angstrom)   z (angstrom)
      1      C    -0.17038000    -0.30650000    -0.95145000
      2      C    -0.04069000     0.92397000    -1.84617000
      3      C    -1.19094000     0.80556000    -2.89238000
      4      C    -2.46545000     1.09778000    -2.04827000
      5      C    -1.89737000     1.26511000    -0.59935000
      6      C    -0.59896000     2.03137000    -0.93240000
      7      C    -1.33981000    -0.09287000    -0.19421000
      8      C    -2.23707000    -1.21118000     0.21663000
      9      F    -1.55497000    -2.33633000     0.50449000
     10      F    -2.99654000    -0.90659000     1.29123000
     11      F    -3.11722000    -1.55571000    -0.76162000
     12      H     0.06784000    -1.29884000    -1.34251000
     13      H     0.95445000     1.08395000    -2.27803000
     14      H    -1.20994000    -0.18914000    -3.36122000
     15      H    -1.05670000     1.55102000    -3.69023000
     16      H    -2.93290000     2.04740000    -2.34831000
     17      H    -3.22491000     0.31147000    -2.12010000
     18      H    -2.59207000     1.72643000     0.11260000
     19      H     0.03052000     2.27063000    -0.07007000
     20      H    -0.80407000     2.96600000    -1.47411000

Total System Charge              0.00000


----------------
ADF Engine Input
----------------
 
   Basis
     Type TZ2P
     Core None
   End
   XC
     GGA BLYP
     Dispersion GRIMME3 BJDAMP
   End
   Symmetry NOSYM
   NumericalQuality Normal
   Unrestricted No
   SCF
     Iterations 200
     Converge 1.0e-6
   End
   Save TAPE21
 

 Title: *** (NO TITLE) ***

 Using automatic Hessian for delocalized coordinates.
 *** GO1_GOStep1 ***

 Energy gradients wrt nuclear displacements
 ==========================================

     Atom      Cartesian (a.u./angstrom)
                 X         Y         Z
 ----------------------------------------
     1 C     0.106219 -0.008544 -0.004754
     2 C    -0.036631 -0.002513 -0.014670
     3 C     0.006424  0.008662  0.017770
     4 C     0.017730  0.000906  0.009178
     5 C     0.001279 -0.008796 -0.024870
     6 C    -0.004449 -0.020586 -0.004458
     7 C    -0.060988  0.013953  0.071881
     8 C    -0.024213 -0.014161 -0.007009
     9 F    -0.024964  0.033569 -0.013155
    10 F     0.020918 -0.012260 -0.036743
    11 F     0.026343  0.007258  0.032623
    12 H    -0.020493 -0.001448 -0.021485
    13 H     0.003996 -0.001675  0.000286
    14 H     0.000664 -0.005537 -0.000912
    15 H    -0.001068  0.002971 -0.003443
    16 H    -0.002262  0.003529 -0.000429
    17 H    -0.004345 -0.004962  0.000091
    18 H    -0.002805  0.000162  0.003985
    19 H    -0.000662  0.006463 -0.003283
    20 H    -0.000694  0.003010 -0.000603
 ----------------------------------------
 
----------------------------------------------------------------------
Geometry Convergence after Step   1       (Hartree/Angstrom,Angstrom)
----------------------------------------------------------------------
current energy                               -4.10020901 Hartree
energy change                      -4.10020901     0.00020000    F
constrained gradient max            0.10622670     0.00010000    F
constrained gradient rms            0.02295901     0.00006667    F
gradient max                        0.10622670
gradient rms                        0.02295901
cart. step max                      0.06115085     0.01000000    F
cart. step rms                      0.02355305     0.00666667    F
 

--------
Geometry
--------
Formula: C8H9F3
Atoms
  Index Symbol   x (angstrom)   y (angstrom)   z (angstrom)
      1      C    -0.22000905    -0.30869167    -0.96538527
      2      C    -0.04507760     0.92376878    -1.84704324
      3      C    -1.18781765     0.82091575    -2.91422217
      4      C    -2.47223319     1.11958097    -2.07782212
      5      C    -1.90964116     1.26870598    -0.61717817
      6      C    -0.59931033     2.02947872    -0.92649025
      7      C    -1.35855490    -0.09983932    -0.21962721
      8      C    -2.22436210    -1.23431389     0.23818839
      9      F    -1.49381915    -2.34741592     0.54083063
     10      F    -2.96132901    -0.90926801     1.34566203
     11      F    -3.13454431    -1.61578408    -0.72412691
     12      H     0.04196581    -1.30787726    -1.31584813
     13      H     0.95781618     1.07774739    -2.25884246
     14      H    -1.21287945    -0.16750845    -3.39023034
     15      H    -1.03393145     1.56854745    -3.70361018
     16      H    -2.92684389     2.07439305    -2.37403200
     17      H    -3.23638386     0.34350226    -2.16363778
     18      H    -2.59824402     1.73261166     0.09583982
     19      H     0.02182290     2.24210311    -0.05035934
     20      H    -0.78380377     2.97287347    -1.45754533

Total System Charge              0.00000

 *** GO1_GOStep2 ***

 Energy gradients wrt nuclear displacements
 ==========================================

     Atom      Cartesian (a.u./angstrom)
                 X         Y         Z
 ----------------------------------------
     1 C     0.063051  0.001389  0.010101
     2 C    -0.028191  0.000632 -0.011637
     3 C     0.005058  0.003330  0.010447
     4 C     0.007763 -0.000776  0.004196
     5 C     0.005275 -0.007814 -0.021783
     6 C    -0.001878 -0.013968 -0.003284
     7 C    -0.025303  0.012311  0.048244
     8 C    -0.014708 -0.012277 -0.010505
     9 F    -0.004152  0.009552 -0.003955
    10 F     0.007521 -0.000686 -0.010996
    11 F     0.007917  0.003137  0.006932
    12 H    -0.021263 -0.002237 -0.016568
    13 H     0.002629  0.000169  0.001442
    14 H    -0.000176 -0.002975 -0.000825
    15 H    -0.000130  0.000997 -0.002016
    16 H    -0.001491  0.001786  0.000050
    17 H    -0.001790 -0.000571 -0.000743
    18 H    -0.000128  0.000286  0.002969
    19 H    -0.000261  0.005800 -0.001900
    20 H     0.000258  0.001913 -0.000167
 ----------------------------------------

 dE(predicted):    -0.70911E-02, dE(actual):    -0.70425E-02, Trust radius:    0.400000, all in a.u.
 
----------------------------------------------------------------------
Geometry Convergence after Step   2       (Hartree/Angstrom,Angstrom)
----------------------------------------------------------------------
current energy                               -4.10725149 Hartree
energy change                      -0.00704247     0.00020000    F
constrained gradient max            0.06305799     0.00010000    F
constrained gradient rms            0.01344173     0.00006667    F
gradient max                        0.06305799
gradient rms                        0.01344173
cart. step max                      0.10498805     0.01000000    F
cart. step rms                      0.03339440     0.00666667    F
 

--------
Geometry
--------
Formula: C8H9F3
Atoms
  Index Symbol   x (angstrom)   y (angstrom)   z (angstrom)
      1      C    -0.26624924    -0.32380988    -1.01067446
      2      C    -0.04268555     0.92334467    -1.85644402
      3      C    -1.17884186     0.85192556    -2.94600287
      4      C    -2.47821337     1.13899312    -2.11662905
      5      C    -1.93330773     1.26164665    -0.64079365
      6      C    -0.60775842     2.01374601    -0.91716103
      7      C    -1.38260935    -0.12015245    -0.27488661
      8      C    -2.21480160    -1.24154869     0.27574443
      9      F    -1.47042735    -2.35357715     0.58301716
     10      F    -2.90101127    -0.88931776     1.41883439
     11      F    -3.18485601    -1.66516175    -0.61913885
     12      H     0.08255660    -1.31862559    -1.28342803
     13      H     0.96891075     1.07890435    -2.24127589
     14      H    -1.20224280    -0.12391684    -3.44195417
     15      H    -1.01042049     1.61422221    -3.71565194
     16      H    -2.92460230     2.09842790    -2.40350924
     17      H    -3.24066174     0.36571428    -2.22393082
     18      H    -2.62001059     1.71885074     0.07564482
     19      H     0.00063247     2.18172305    -0.02212735
     20      H    -0.77058015     2.97214156    -1.42511281

Total System Charge              0.00000

 *** GO1_GOStep3 ***

 Energy gradients wrt nuclear displacements
 ==========================================

     Atom      Cartesian (a.u./angstrom)
                 X         Y         Z
 ----------------------------------------
     1 C     0.019870  0.006513  0.013716
     2 C    -0.010195  0.002908 -0.008603
     3 C     0.003378 -0.000950  0.004616
     4 C     0.000337 -0.002594  0.000869
     5 C    -0.000672 -0.001533 -0.010234
     6 C    -0.002158 -0.009797 -0.003650
     7 C     0.007127  0.010369  0.017577
     8 C    -0.002082 -0.002096 -0.010110
     9 F    -0.002016 -0.001330  0.000342
    10 F    -0.001683 -0.002453 -0.001000
    11 F     0.000612 -0.002270  0.003660
    12 H    -0.015492 -0.004199 -0.010117
    13 H     0.001820  0.001577  0.002387
    14 H    -0.000083 -0.000613 -0.000016
    15 H     0.000489 -0.000627 -0.000801
    16 H    -0.000104  0.000448  0.000952
    17 H    -0.000353  0.001748 -0.000846
    18 H     0.001321  0.001309  0.001959
    19 H    -0.000016  0.003219 -0.000859
    20 H    -0.000101  0.000372  0.000158
 ----------------------------------------

 dE(predicted):    -0.59832E-02, dE(actual):    -0.58966E-02, Trust radius:    0.800000, all in a.u.
 
----------------------------------------------------------------------
Geometry Convergence after Step   3       (Hartree/Angstrom,Angstrom)
----------------------------------------------------------------------
current energy                               -4.11314804 Hartree
energy change                      -0.00589656     0.00020000    F
constrained gradient max            0.01987277     0.00010000    F
constrained gradient rms            0.00589297     0.00006667    F
gradient max                        0.01987277
gradient rms                        0.00589297
cart. step max                      0.14600644     0.01000000    F
cart. step rms                      0.04840198     0.00666667    F
 

--------
Geometry
--------
Formula: C8H9F3
Atoms
  Index Symbol   x (angstrom)   y (angstrom)   z (angstrom)
      1      C    -0.29121210    -0.35226553    -1.05892805
      2      C    -0.04871582     0.91193978    -1.87092435
      3      C    -1.17708514     0.89307556    -2.98397550
      4      C    -2.48796752     1.15313963    -2.15903336
      5      C    -1.95856125     1.23293431    -0.67158390
      6      C    -0.61768131     1.98055588    -0.89976323
      7      C    -1.42329443    -0.16884012    -0.35715899
      8      C    -2.22320799    -1.24115835     0.30966133
      9      F    -1.46958732    -2.35181027     0.60797654
     10      F    -2.79787073    -0.80649621     1.48970306
     11      F    -3.27167453    -1.66496706    -0.49874475
     12      H     0.22856304    -1.29790008    -1.18765681
     13      H     0.96697366     1.07043108    -2.23849302
     14      H    -1.19764643    -0.06164342    -3.51680857
     15      H    -1.00053547     1.68563717    -3.71913997
     16      H    -2.93616610     2.11508248    -2.43092363
     17      H    -3.24072611     0.37305361    -2.29002148
     18      H    -2.65368040     1.66663902     0.04870542
     19      H    -0.02286955     2.08605169     0.01404712
     20      H    -0.75423449     2.96007085    -1.37241784

Total System Charge              0.00000

 *** GO1_GOStep4 ***

 Energy gradients wrt nuclear displacements
 ==========================================

     Atom      Cartesian (a.u./angstrom)
                 X         Y         Z
 ----------------------------------------
     1 C    -0.000130  0.004515  0.004512
     2 C     0.000515  0.000587 -0.003708
     3 C     0.000556 -0.001649 -0.002001
     4 C    -0.002987 -0.003647 -0.000464
     5 C    -0.001753  0.004973  0.004556
     6 C    -0.000751 -0.003873 -0.001543
     7 C     0.008370  0.002325 -0.000942
     8 C    -0.005672 -0.006085 -0.002500
     9 F     0.005825 -0.002013  0.001296
    10 F    -0.001153  0.003589  0.004418
    11 F    -0.002250  0.000678 -0.005581
    12 H    -0.002493 -0.002211 -0.000903
    13 H    -0.000039  0.001536  0.002381
    14 H    -0.000211  0.000480  0.000461
    15 H    -0.000685 -0.001167 -0.000421
    16 H     0.001005 -0.000025  0.001091
    17 H     0.000008  0.000574 -0.000466
    18 H     0.001739  0.001798  0.000055
    19 H     0.000321  0.000446  0.000004
    20 H    -0.000213 -0.000834 -0.000244
 ----------------------------------------

 dE(predicted):    -0.37016E-02, dE(actual):    -0.43257E-02, Trust radius:    1.000000, all in a.u.
 
----------------------------------------------------------------------
Geometry Convergence after Step   4       (Hartree/Angstrom,Angstrom)
----------------------------------------------------------------------
current energy                               -4.11747370 Hartree
energy change                      -0.00432566     0.00020000    F
constrained gradient max            0.00833163     0.00010000    F
constrained gradient rms            0.00272399     0.00006667    F
gradient max                        0.00833163
gradient rms                        0.00272399
cart. step max                      0.19678275     0.01000000    F
cart. step rms                      0.05349163     0.00666667    F
 

--------
Geometry
--------
Formula: C8H9F3
Atoms
  Index Symbol   x (angstrom)   y (angstrom)   z (angstrom)
      1      C    -0.32322711    -0.39131811    -1.11630556
      2      C    -0.05552741     0.90242842    -1.87256740
      3      C    -1.15217290     0.94697726    -3.01710305
      4      C    -2.48332214     1.16505527    -2.21736893
      5      C    -1.99028537     1.19094373    -0.71649849
      6      C    -0.64204759     1.94629472    -0.88013288
      7      C    -1.45548203    -0.21106802    -0.40564970
      8      C    -2.20997577    -1.23062849     0.37519197
      9      F    -1.46957491    -2.34902738     0.65741461
     10      F    -2.66346764    -0.73335372     1.57839640
     11      F    -3.33957042    -1.66455132    -0.30196200
     12      H     0.25220896    -1.30656354    -1.21476462
     13      H     0.96780461     1.05963608    -2.21898924
     14      H    -1.15760579     0.02035583    -3.59846638
     15      H    -0.95387223     1.77812050    -3.70301775
     16      H    -2.93707149     2.12989440    -2.47082269
     17      H    -3.22274002     0.37955919    -2.39175921
     18      H    -2.70870286     1.59774783    -0.00357954
     19      H    -0.07304034     2.00961425     0.05354115
     20      H    -0.75950757     2.94341309    -1.32103668

Total System Charge              0.00000

 *** GO1_GOStep5 ***

 Energy gradients wrt nuclear displacements
 ==========================================

     Atom      Cartesian (a.u./angstrom)
                 X         Y         Z
 ----------------------------------------
     1 C     0.000955 -0.003971 -0.009297
     2 C     0.004128  0.000106  0.004891
     3 C    -0.000253  0.001189 -0.001120
     4 C    -0.003043 -0.000278 -0.001950
     5 C    -0.001004 -0.000268  0.000301
     6 C    -0.001334 -0.000894 -0.001007
     7 C    -0.000099  0.001950  0.006401
     8 C     0.000429  0.001834  0.001865
     9 F    -0.001882  0.000982  0.000778
    10 F    -0.000565 -0.001331 -0.001556
    11 F     0.002271 -0.000156  0.000673
    12 H     0.000707  0.000350 -0.000429
    13 H    -0.000706  0.001119  0.000801
    14 H    -0.000181 -0.000325  0.001001
    15 H    -0.000785 -0.000371 -0.000417
    16 H     0.000842  0.000455 -0.000553
    17 H    -0.000033  0.000196 -0.000175
    18 H     0.000950  0.000273 -0.000239
    19 H     0.000192 -0.000455  0.000200
    20 H    -0.000591 -0.000407 -0.000167
 ----------------------------------------

 dE(predicted):    -0.10139E-02, dE(actual):    -0.90603E-03, Trust radius:    1.000000, all in a.u.
 
----------------------------------------------------------------------
Geometry Convergence after Step   5       (Hartree/Angstrom,Angstrom)
----------------------------------------------------------------------
current energy                               -4.11837973 Hartree
energy change                      -0.00090603     0.00020000    F
constrained gradient max            0.00930630     0.00010000    F
constrained gradient rms            0.00200019     0.00006667    F
gradient max                        0.00930630
gradient rms                        0.00200019
cart. step max                      0.04660631     0.01000000    F
cart. step rms                      0.01269342     0.00666667    F
 

--------
Geometry
--------
Formula: C8H9F3
Atoms
  Index Symbol   x (angstrom)   y (angstrom)   z (angstrom)
      1      C    -0.32007828    -0.38381261    -1.10033373
      2      C    -0.05781186     0.90140888    -1.87265718
      3      C    -1.15190288     0.94475533    -3.01876750
      4      C    -2.48242424     1.16399932    -2.21898516
      5      C    -1.99119204     1.19355318    -0.71880461
      6      C    -0.64210915     1.95061333    -0.88284093
      7      C    -1.46380879    -0.21252639    -0.41321518
      8      C    -2.21420549    -1.23434709     0.36770144
      9      F    -1.48151570    -2.36767091     0.61080830
     10      F    -2.62446611    -0.74950907     1.59213895
     11      F    -3.37112591    -1.64128922    -0.28121806
     12      H     0.27013801    -1.29146598    -1.17489685
     13      H     0.96549641     1.05337076    -2.22257494
     14      H    -1.15637162     0.01968815    -3.60282207
     15      H    -0.94992040     1.77745036    -3.70178677
     16      H    -2.94192455     2.12541215    -2.47456148
     17      H    -3.21892709     0.37480016    -2.38943078
     18      H    -2.71418167     1.59674289    -0.00805948
     19      H    -0.07388445     2.01521998     0.05101600
     20      H    -0.75696417     2.94713679    -1.32618998

Total System Charge              0.00000

 *** GO1_GOStep6 ***

 Energy gradients wrt nuclear displacements
 ==========================================

     Atom      Cartesian (a.u./angstrom)
                 X         Y         Z
 ----------------------------------------
     1 C    -0.002103 -0.000498 -0.001981
     2 C     0.000745 -0.001173  0.002851
     3 C    -0.000617  0.001073 -0.002826
     4 C    -0.001083 -0.000198 -0.000688
     5 C     0.001745  0.000701  0.002161
     6 C    -0.000538  0.000510 -0.000772
     7 C     0.001168 -0.001133  0.000951
     8 C     0.000795  0.001597 -0.000060
     9 F    -0.000880  0.000384  0.000718
    10 F    -0.000120 -0.000657 -0.001696
    11 F    -0.000157 -0.001437  0.000687
    12 H     0.001108  0.001177  0.000820
    13 H    -0.000590  0.000410  0.000042
    14 H    -0.000054 -0.000212  0.000488
    15 H    -0.000566 -0.000284 -0.000388
    16 H     0.000489  0.000243 -0.000011
    17 H     0.000200  0.000021  0.000054
    18 H     0.000393 -0.000113 -0.000164
    19 H     0.000023 -0.000345  0.000129
    20 H     0.000044 -0.000068 -0.000314
 ----------------------------------------

 dE(predicted):    -0.20472E-03, dE(actual):    -0.21945E-03, Trust radius:    1.000000, all in a.u.
 
----------------------------------------------------------------------
Geometry Convergence after Step   6       (Hartree/Angstrom,Angstrom)
----------------------------------------------------------------------
current energy                               -4.11859918 Hartree
energy change                      -0.00021945     0.00020000    F
constrained gradient max            0.00289016     0.00010000    F
constrained gradient rms            0.00098778     0.00006667    F
gradient max                        0.00289016
gradient rms                        0.00098778
cart. step max                      0.05526417     0.01000000    F
cart. step rms                      0.01452704     0.00666667    F
 

--------
Geometry
--------
Formula: C8H9F3
Atoms
  Index Symbol   x (angstrom)   y (angstrom)   z (angstrom)
      1      C    -0.32130203    -0.38046878    -1.09386330
      2      C    -0.05689110     0.90281221    -1.86915563
      3      C    -1.14554548     0.94378010    -3.01775749
      4      C    -2.48095165     1.15701702    -2.22511274
      5      C    -1.99737581     1.19475626    -0.72396672
      6      C    -0.64685877     1.95287247    -0.88208992
      7      C    -1.46889742    -0.20964909    -0.41492865
      8      C    -2.21350786    -1.23227118     0.36997333
      9      F    -1.49324258    -2.38419852     0.55991147
     10      F    -2.56920194    -0.76542238     1.61953388
     11      F    -3.40014019    -1.59723304    -0.24952866
     12      H     0.26268314    -1.29240992    -1.16796753
     13      H     0.96804187     1.05200723    -2.21705975
     14      H    -1.14346883     0.02174240    -3.60688680
     15      H    -0.94015036     1.78008884    -3.69543969
     16      H    -2.94902089     2.11295293    -2.48540691
     17      H    -3.21088533     0.36147914    -2.39556187
     18      H    -2.72669124     1.59614170    -0.01805549
     19      H    -0.08329882     2.02029446     0.05417845
     20      H    -0.76047471     2.94923816    -1.32629597

Total System Charge              0.00000

 *** GO1_GOStep7 ***

 Energy gradients wrt nuclear displacements
 ==========================================

     Atom      Cartesian (a.u./angstrom)
                 X         Y         Z
 ----------------------------------------
     1 C    -0.002296  0.000535  0.000045
     2 C     0.000423 -0.000529  0.001298
     3 C    -0.000641  0.000376 -0.001421
     4 C    -0.000432 -0.000497 -0.000099
     5 C     0.000908  0.001447  0.001131
     6 C    -0.000064 -0.000204  0.000009
     7 C     0.001185 -0.000939 -0.001065
     8 C    -0.000044 -0.000170  0.001200
     9 F     0.001068  0.000127 -0.000656
    10 F     0.000178  0.000974 -0.000378
    11 F    -0.000713 -0.000777 -0.000801
    12 H     0.000461  0.000467  0.000658
    13 H    -0.000022 -0.000132 -0.000460
    14 H     0.000047 -0.000175  0.000210
    15 H     0.000020 -0.000239 -0.000032
    16 H     0.000046  0.000003  0.000384
    17 H     0.000022  0.000015  0.000016
    18 H    -0.000269 -0.000330  0.000035
    19 H     0.000027  0.000025 -0.000013
    20 H     0.000097  0.000023 -0.000063
 ----------------------------------------

 dE(predicted):    -0.88065E-04, dE(actual):    -0.10784E-03, Trust radius:    1.000000, all in a.u.
 
----------------------------------------------------------------------
Geometry Convergence after Step   7       (Hartree/Angstrom,Angstrom)
----------------------------------------------------------------------
current energy                               -4.11870702 Hartree
energy change                      -0.00010784     0.00020000    T
constrained gradient max            0.00232151     0.00010000    F
constrained gradient rms            0.00065555     0.00006667    F
gradient max                        0.00232151
gradient rms                        0.00065555
cart. step max                      0.04524000     0.01000000    F
cart. step rms                      0.01275481     0.00666667    F
 

--------
Geometry
--------
Formula: C8H9F3
Atoms
  Index Symbol   x (angstrom)   y (angstrom)   z (angstrom)
      1      C    -0.31913888    -0.37870010    -1.09126352
      2      C    -0.05560761     0.90535204    -1.86716358
      3      C    -1.13908087     0.94482446    -3.01812002
      4      C    -2.47820672     1.14961663    -2.23065816
      5      C    -2.00087299     1.19184064    -0.72843892
      6      C    -0.65194188     1.95470165    -0.88232689
      7      C    -1.46912837    -0.20977868    -0.41454720
      8      C    -2.21332564    -1.23041048     0.37419360
      9      F    -1.51628587    -2.40219858     0.52690297
     10      F    -2.52396195    -0.78047148     1.64247618
     11      F    -3.42521661    -1.55440919    -0.21712176
     12      H     0.25954007    -1.29391430    -1.16950952
     13      H     0.97048712     1.05642621    -2.21132738
     14      H    -1.13080689     0.02668028    -3.61341717
     15      H    -0.93410210     1.78600189    -3.69015644
     16      H    -2.95360608     2.10100405    -2.49450064
     17      H    -3.20178589     0.34844910    -2.40262715
     18      H    -2.73436299     1.59240008    -0.02614627
     19      H    -0.09204741     2.02563160     0.05573185
     20      H    -0.76772844     2.95048416    -1.32745999

Total System Charge              0.00000

 *** GO1_GOStep8 ***

 Energy gradients wrt nuclear displacements
 ==========================================

     Atom      Cartesian (a.u./angstrom)
                 X         Y         Z
 ----------------------------------------
     1 C    -0.000483  0.000998  0.000106
     2 C    -0.000176 -0.000062  0.000120
     3 C    -0.000447  0.000064 -0.000218
     4 C     0.000439 -0.000239  0.000248
     5 C     0.000504  0.000512 -0.000130
     6 C     0.000134 -0.000004  0.000128
     7 C     0.000042 -0.000343 -0.000749
     8 C     0.000550 -0.000008  0.000530
     9 F     0.000590 -0.000199  0.000082
    10 F     0.000058 -0.000074 -0.000136
    11 F    -0.000817 -0.000077 -0.000187
    12 H    -0.000169 -0.000172  0.000311
    13 H     0.000158 -0.000192 -0.000520
    14 H     0.000031 -0.000082 -0.000036
    15 H     0.000151 -0.000084  0.000079
    16 H    -0.000184 -0.000096  0.000253
    17 H    -0.000051  0.000015 -0.000007
    18 H    -0.000365 -0.000336  0.000138
    19 H    -0.000035  0.000212 -0.000094
    20 H     0.000070  0.000167  0.000081
 ----------------------------------------

 dE(predicted):    -0.40536E-04, dE(actual):    -0.51884E-04, Trust radius:    1.000000, all in a.u.
 
----------------------------------------------------------------------
Geometry Convergence after Step   8       (Hartree/Angstrom,Angstrom)
----------------------------------------------------------------------
current energy                               -4.11875890 Hartree
energy change                      -0.00005188     0.00020000    T
constrained gradient max            0.00098080     0.00010000    F
constrained gradient rms            0.00030898     0.00006667    F
gradient max                        0.00098080
gradient rms                        0.00030898
cart. step max                      0.00300117     0.01000000    T
cart. step rms                      0.00091967     0.00666667    T
 

--------
Geometry
--------
Formula: C8H9F3
Atoms
  Index Symbol   x (angstrom)   y (angstrom)   z (angstrom)
      1      C    -0.31788874    -0.37918455    -1.09127659
      2      C    -0.05533299     0.90546341    -1.86688225
      3      C    -1.13896886     0.94442048    -3.01759910
      4      C    -2.47837705     1.14893296    -2.23047879
      5      C    -2.00082536     1.19111904    -0.72818906
      6      C    -0.65242777     1.95438390    -0.88245667
      7      C    -1.46754342    -0.20969893    -0.41331058
      8      C    -2.21342058    -1.22984362     0.37442263
      9      F    -1.51905939    -2.40313128     0.52660884
     10      F    -2.52396880    -0.78011880     1.64297999
     11      F    -3.42472206    -1.55168480    -0.21832152
     12      H     0.26058873    -1.29427797    -1.17251069
     13      H     0.97078229     1.05825853    -2.20972490
     14      H    -1.13074409     0.02642630    -3.61305291
     15      H    -0.93528751     1.78578071    -3.68988616
     16      H    -2.95334893     2.10038305    -2.49500305
     17      H    -3.20188256     0.34771008    -2.40244656
     18      H    -2.73323251     1.59309306    -0.02573535
     19      H    -0.09240563     2.02574169     0.05553075
     20      H    -0.76911475     2.94975673    -1.32814806

Total System Charge              0.00000

 *** GO1_GOStep9 ***

 Energy gradients wrt nuclear displacements
 ==========================================

     Atom      Cartesian (a.u./angstrom)
                 X         Y         Z
 ----------------------------------------
     1 C     0.000167  0.000341 -0.000094
     2 C    -0.000007 -0.000102  0.000040
     3 C    -0.000353  0.000049  0.000130
     4 C     0.000212 -0.000031  0.000040
     5 C     0.000020  0.000122 -0.000198
     6 C     0.000026 -0.000082  0.000050
     7 C    -0.000021  0.000073 -0.000209
     8 C     0.000284  0.000109  0.000519
     9 F     0.000219 -0.000155 -0.000042
    10 F     0.000111  0.000012  0.000039
    11 F    -0.000258 -0.000155 -0.000173
    12 H    -0.000061 -0.000135  0.000011
    13 H     0.000041 -0.000058 -0.000224
    14 H    -0.000029 -0.000021 -0.000023
    15 H    -0.000007 -0.000019  0.000033
    16 H    -0.000134 -0.000044  0.000070
    17 H    -0.000060  0.000012  0.000018
    18 H    -0.000137 -0.000111  0.000055
    19 H     0.000005  0.000120 -0.000072
    20 H    -0.000018  0.000074  0.000031
 ----------------------------------------

 dE(predicted):    -0.38230E-05, dE(actual):    -0.63027E-05, Trust radius:    1.000000, all in a.u.
 
----------------------------------------------------------------------
Geometry Convergence after Step   9       (Hartree/Angstrom,Angstrom)
----------------------------------------------------------------------
current energy                               -4.11876521 Hartree
energy change                      -0.00000630     0.00020000    T
constrained gradient max            0.00049058     0.00010000    F
constrained gradient rms            0.00013664     0.00006667    F
gradient max                        0.00049058
gradient rms                        0.00013664
cart. step max                      0.00235545     0.01000000    T
cart. step rms                      0.00068755     0.00666667    T
 

--------
Geometry
--------
Formula: C8H9F3
Atoms
  Index Symbol   x (angstrom)   y (angstrom)   z (angstrom)
      1      C    -0.31735959    -0.37915851    -1.09129693
      2      C    -0.05522021     0.90582691    -1.86680970
      3      C    -1.13890893     0.94398487    -3.01747785
      4      C    -2.47832218     1.14816453    -2.22998392
      5      C    -2.00040825     1.19085643    -0.72770232
      6      C    -0.65250056     1.95458901    -0.88256917
      7      C    -1.46673586    -0.20974344    -0.41278217
      8      C    -2.21385239    -1.22968654     0.37383365
      9      F    -1.52116294    -2.40389953     0.52567105
     10      F    -2.52411293    -0.78038083     1.64268700
     11      F    -3.42530069    -1.54932935    -0.21913498
     12      H     0.26175794    -1.29371246    -1.17333217
     13      H     0.97088257     1.05955028    -2.20897182
     14      H    -1.13060770     0.02583704    -3.61264737
     15      H    -0.93625496     1.78527035    -3.69020972
     16      H    -2.95335623     2.09947945    -2.49485975
     17      H    -3.20157292     0.34662091    -2.40149567
     18      H    -2.73213843     1.59348253    -0.02502805
     19      H    -0.09222215     2.02609835     0.05527981
     20      H    -0.76978358     2.94968000    -1.32864991

Total System Charge              0.00000

 *** GO1_GOStep10 ***

 Energy gradients wrt nuclear displacements
 ==========================================

     Atom      Cartesian (a.u./angstrom)
                 X         Y         Z
 ----------------------------------------
     1 C     0.000079  0.000056 -0.000126
     2 C     0.000005 -0.000058 -0.000006
     3 C    -0.000231 -0.000001  0.000058
     4 C     0.000157 -0.000043  0.000012
     5 C    -0.000052 -0.000067 -0.000054
     6 C     0.000006  0.000072  0.000010
     7 C     0.000021  0.000084  0.000008
     8 C     0.000149  0.000044  0.000206
     9 F     0.000111 -0.000065  0.000037
    10 F     0.000111 -0.000029 -0.000038
    11 F    -0.000056 -0.000054  0.000005
    12 H     0.000014 -0.000009 -0.000047
    13 H    -0.000047  0.000044 -0.000071
    14 H    -0.000060  0.000005 -0.000019
    15 H    -0.000078  0.000005 -0.000013
    16 H    -0.000075 -0.000025  0.000026
    17 H    -0.000050 -0.000020  0.000045
    18 H     0.000025 -0.000008  0.000032
    19 H     0.000011  0.000042 -0.000046
    20 H    -0.000040  0.000025 -0.000020
 ----------------------------------------

 dE(predicted):    -0.72807E-06, dE(actual):    -0.32120E-05, Trust radius:    1.000000, all in a.u.
 
----------------------------------------------------------------------
Geometry Convergence after Step  10       (Hartree/Angstrom,Angstrom)
----------------------------------------------------------------------
current energy                               -4.11876842 Hartree
energy change                      -0.00000321     0.00020000    T
constrained gradient max            0.00019571     0.00010000    F
constrained gradient rms            0.00005674     0.00006667    T
gradient max                        0.00019571
gradient rms                        0.00005674
cart. step max                      0.00083147     0.01000000    T
cart. step rms                      0.00020296     0.00666667    T
 

--------
Geometry
--------
Formula: C8H9F3
Atoms
  Index Symbol   x (angstrom)   y (angstrom)   z (angstrom)
      1      C    -0.31725050    -0.37902607    -1.09106547
      2      C    -0.05519182     0.90589129    -1.86679583
      3      C    -1.13890491     0.94382550    -3.01742160
      4      C    -2.47841176     1.14809984    -2.22988941
      5      C    -2.00037225     1.19094117    -0.72761550
      6      C    -0.65249364     1.95463522    -0.88263460
      7      C    -1.46669342    -0.20965454    -0.41270534
      8      C    -2.21396339    -1.22965023     0.37358884
      9      F    -1.52150352    -2.40402569     0.52483958
     10      F    -2.52390329    -0.78079751     1.64274537
     11      F    -3.42548097    -1.54878383    -0.21927604
     12      H     0.26211020    -1.29341731    -1.17298411
     13      H     0.97092228     1.05965037    -2.20889797
     14      H    -1.13062009     0.02554835    -3.61238749
     15      H    -0.93639233     1.78498326    -3.69035596
     16      H    -2.95344648     2.09938004    -2.49486091
     17      H    -3.20159496     0.34646791    -2.40123861
     18      H    -2.73201763     1.59364244    -0.02490395
     19      H    -0.09215600     2.02614940     0.05518248
     20      H    -0.76981553     2.94967039    -1.32880346

Total System Charge              0.00000

 *** GO1_GOStep11 ***

 Energy gradients wrt nuclear displacements
 ==========================================

     Atom      Cartesian (a.u./angstrom)
                 X         Y         Z
 ----------------------------------------
     1 C     0.000030  0.000029 -0.000049
     2 C     0.000022 -0.000031 -0.000055
     3 C    -0.000162 -0.000001  0.000040
     4 C     0.000064 -0.000027  0.000006
     5 C    -0.000048 -0.000052  0.000004
     6 C    -0.000003  0.000037 -0.000007
     7 C     0.000043  0.000032  0.000001
     8 C     0.000097  0.000035  0.000111
     9 F     0.000080  0.000005  0.000011
    10 F     0.000115 -0.000030 -0.000005
    11 F     0.000024 -0.000049  0.000041
    12 H     0.000033  0.000026 -0.000048
    13 H    -0.000046  0.000044 -0.000058
    14 H    -0.000059  0.000004 -0.000013
    15 H    -0.000088  0.000005 -0.000020
    16 H    -0.000070 -0.000024  0.000031
    17 H    -0.000043 -0.000029  0.000056
    18 H     0.000034 -0.000002  0.000030
    19 H     0.000016  0.000021 -0.000044
    20 H    -0.000041  0.000006 -0.000031
 ----------------------------------------
 
----------------------------------------------------------------------
Geometry Convergence after Step  11       (Hartree/Angstrom,Angstrom)
----------------------------------------------------------------------
current energy                               -4.11876941 Hartree
energy change                      -0.00000099     0.00020000    T
constrained gradient max            0.00010304     0.00010000    F
constrained gradient rms            0.00002943     0.00006667    T
gradient max                        0.00010304
gradient rms                        0.00002943
cart. step max                      0.00024097     0.01000000    T
cart. step rms                      0.00005726     0.00666667    T
 

--------
Geometry
--------
Formula: C8H9F3
Atoms
  Index Symbol   x (angstrom)   y (angstrom)   z (angstrom)
      1      C    -0.31726554    -0.37900160    -1.09102005
      2      C    -0.05521027     0.90593036    -1.86676915
      3      C    -1.13886255     0.94379363    -3.01743155
      4      C    -2.47844330     1.14811277    -2.22987892
      5      C    -2.00036363     1.19097865    -0.72759592
      6      C    -0.65250865     1.95467612    -0.88264407
      7      C    -1.46672068    -0.20964942    -0.41271396
      8      C    -2.21397203    -1.22967704     0.37351416
      9      F    -1.52153404    -2.40408280     0.52459861
     10      F    -2.52376531    -0.78088922     1.64277345
     11      F    -3.42554393    -1.54863166    -0.21921878
     12      H     0.26212474    -1.29337265    -1.17289620
     13      H     0.97091584     1.05963451    -2.20887945
     14      H    -1.13058843     0.02544634    -3.61229079
     15      H    -0.93636483     1.78488908    -3.69044180
     16      H    -2.95345636     2.09939469    -2.49485389
     17      H    -3.20158831     0.34644951    -2.40121064
     18      H    -2.73203304     1.59362919    -0.02487407
     19      H    -0.09216623     2.02619199     0.05517104
     20      H    -0.76983346     2.94970755    -1.32881801

Total System Charge              0.00000

 *** GO1_GOStep12 ***

 Energy gradients wrt nuclear displacements
 ==========================================

     Atom      Cartesian (a.u./angstrom)
                 X         Y         Z
 ----------------------------------------
     1 C     0.000007  0.000014 -0.000026
     2 C    -0.000007 -0.000005 -0.000041
     3 C    -0.000105 -0.000001  0.000004
     4 C     0.000002 -0.000019  0.000014
     5 C    -0.000010 -0.000029  0.000021
     6 C    -0.000007  0.000040 -0.000022
     7 C     0.000038  0.000005 -0.000000
     8 C     0.000086 -0.000001  0.000057
     9 F     0.000091  0.000012  0.000007
    10 F     0.000107 -0.000014  0.000009
    11 F     0.000053 -0.000025  0.000061
    12 H     0.000032  0.000031 -0.000043
    13 H    -0.000042  0.000036 -0.000065
    14 H    -0.000059 -0.000001 -0.000010
    15 H    -0.000089  0.000001 -0.000021
    16 H    -0.000066 -0.000026  0.000038
    17 H    -0.000035 -0.000033  0.000057
    18 H     0.000028 -0.000009  0.000033
    19 H     0.000015  0.000018 -0.000044
    20 H    -0.000039  0.000006 -0.000030
 ----------------------------------------
 
---------------------------------------------------------
Geometry Convergence after Step  12       ** CONVERGED **
---------------------------------------------------------
current energy                               -4.11876964 Hartree
energy change                      -0.00000024     0.00020000    T
constrained gradient max            0.00004598     0.00010000    T
constrained gradient rms            0.00001236     0.00006667    T
gradient max                        0.00004598
gradient rms                        0.00001236
cart. step max                      0.00008689     0.01000000    T
cart. step rms                      0.00003062     0.00666667    T
 
Geometry optimization converged

Optimized geometry:

--------
Geometry
--------
Formula: C8H9F3
Atoms
  Index Symbol   x (angstrom)   y (angstrom)   z (angstrom)
      1      C    -0.31726554    -0.37900160    -1.09102005
      2      C    -0.05521027     0.90593036    -1.86676915
      3      C    -1.13886255     0.94379363    -3.01743155
      4      C    -2.47844330     1.14811277    -2.22987892
      5      C    -2.00036363     1.19097865    -0.72759592
      6      C    -0.65250865     1.95467612    -0.88264407
      7      C    -1.46672068    -0.20964942    -0.41271396
      8      C    -2.21397203    -1.22967704     0.37351416
      9      F    -1.52153404    -2.40408280     0.52459861
     10      F    -2.52376531    -0.78088922     1.64277345
     11      F    -3.42554393    -1.54863166    -0.21921878
     12      H     0.26212474    -1.29337265    -1.17289620
     13      H     0.97091584     1.05963451    -2.20887945
     14      H    -1.13058843     0.02544634    -3.61229079
     15      H    -0.93636483     1.78488908    -3.69044180
     16      H    -2.95345636     2.09939469    -2.49485389
     17      H    -3.20158831     0.34644951    -2.40121064
     18      H    -2.73203304     1.59362919    -0.02487407
     19      H    -0.09216623     2.02619199     0.05517104
     20      H    -0.76983346     2.94970755    -1.32881801

Total System Charge              0.00000

Performing a single point calculation on the final geometry ...

 *** adf ***



 ===========================
 A T T A C H E D   F I L E S
 ===========================
  
 Restart/tmp/amstmp_c4_fragA_opt_kid0.1474941929/GO1_GOStep12.rkf*** GO1_GOStep12 ***



 ===============================
 M O D E L   P A R A M E T E R S
 ===============================
  
 DENSITY FUNCTIONAL POTENTIAL (scf)
    LDA:                               Exchange only                           == Not Default ==
    Gradient Corrections:              Becke88 LYP                             == Not Default ==

 SPIN  (restricted / unrestr.)
    Molecule:                          Restricted                               
    Fragments:                         Restricted                               

 OTHER ASPECTS
    Relativistic Corrections:          scalar (ZORA,MAPA)                       

    Nuclear Charge Density Model:      Point Charge Nuclei                      
    Core Treatment:                    Frozen Orbital(s)                        

    Hyperfine or Zeeman Interaction:   ---                                      

 Settings for Grimme D3 dispersion correction

      damping                        BJ
      s6                          1.000
      s8                          2.700
      a1                          0.430
      a2                          4.236

 Other (technical) parameters

      alpha                      14.000
      version                         4
 



 ===============
 G E O M E T R Y  ***  3D  Molecule  ***
 ===============
  

 ATOMS
 =====                            X Y Z                    CHARGE
                                (Angstrom)             Nucl     +Core       At.Mass
                       --------------------------    ----------------       -------
    1  C              -0.3173   -0.3790   -1.0910      6.00      6.00       12.0000
    2  C              -0.0552    0.9059   -1.8668      6.00      6.00       12.0000
    3  C              -1.1389    0.9438   -3.0174      6.00      6.00       12.0000
    4  C              -2.4784    1.1481   -2.2299      6.00      6.00       12.0000
    5  C              -2.0004    1.1910   -0.7276      6.00      6.00       12.0000
    6  C              -0.6525    1.9547   -0.8826      6.00      6.00       12.0000
    7  C              -1.4667   -0.2096   -0.4127      6.00      6.00       12.0000
    8  C              -2.2140   -1.2297    0.3735      6.00      6.00       12.0000
    9  F              -1.5215   -2.4041    0.5246      9.00      9.00       18.9984
   10  F              -2.5238   -0.7809    1.6428      9.00      9.00       18.9984
   11  F              -3.4255   -1.5486   -0.2192      9.00      9.00       18.9984
   12  H               0.2621   -1.2934   -1.1729      1.00      1.00        1.0078
   13  H               0.9709    1.0596   -2.2089      1.00      1.00        1.0078
   14  H              -1.1306    0.0254   -3.6123      1.00      1.00        1.0078
   15  H              -0.9364    1.7849   -3.6904      1.00      1.00        1.0078
   16  H              -2.9535    2.0994   -2.4949      1.00      1.00        1.0078
   17  H              -3.2016    0.3464   -2.4012      1.00      1.00        1.0078
   18  H              -2.7320    1.5936   -0.0249      1.00      1.00        1.0078
   19  H              -0.0922    2.0262    0.0552      1.00      1.00        1.0078
   20  H              -0.7698    2.9497   -1.3288      1.00      1.00        1.0078


 FRAGMENTS
 =========                                     Atoms in this Fragment     Cart. coord.s (Angstrom)
                                               -------------------------------------------------------
    1  C                                                 1  C           -0.3173   -0.3790   -1.0910
    2  C                                                 2  C           -0.0552    0.9059   -1.8668
    3  C                                                 3  C           -1.1389    0.9438   -3.0174
    4  C                                                 4  C           -2.4784    1.1481   -2.2299
    5  C                                                 5  C           -2.0004    1.1910   -0.7276
    6  C                                                 6  C           -0.6525    1.9547   -0.8826
    7  C                                                 7  C           -1.4667   -0.2096   -0.4127
    8  C                                                 8  C           -2.2140   -1.2297    0.3735
    9  F                                                 9  F           -1.5215   -2.4041    0.5246
   10  F                                                10  F           -2.5238   -0.7809    1.6428
   11  F                                                11  F           -3.4255   -1.5486   -0.2192
   12  H                                                12  H            0.2621   -1.2934   -1.1729
   13  H                                                13  H            0.9709    1.0596   -2.2089
   14  H                                                14  H           -1.1306    0.0254   -3.6123
   15  H                                                15  H           -0.9364    1.7849   -3.6904
   16  H                                                16  H           -2.9535    2.0994   -2.4949
   17  H                                                17  H           -3.2016    0.3464   -2.4012
   18  H                                                18  H           -2.7320    1.5936   -0.0249
   19  H                                                19  H           -0.0922    2.0262    0.0552
   20  H                                                20  H           -0.7698    2.9497   -1.3288



 =====================================
 S Y M M E T R Y ,   E L E C T R O N S
 =====================================
  
 Symmetry: NOSYM

 Irreducible Representations, including subspecies
 -------------------------------------------------
 A


 Configuration of Valence Electrons
 ==================================
 ( determined in the SCF procedure )

 Total:   84

 Net Charge: 0 (Nuclei minus Electrons)

 Aufbau principle for MO occupations will be applied through SCF cycle no.     100
 Thereafter, the program will assign electrons to MOs that are spatially
 similar to the occupied MOs in a "reference" cycle ("KeepOrbitals").
 The reference cycle is always the PREVIOUS cycle: it will evolve with
 the SCF procedure.
 ***************************************************************************************************



                                      ****************************************
                                      *  B U I L D : (Fragments, Functions)  *
                                      ****************************************
  



 =======
 S F O s  ***  (Symmetrized Fragment Orbitals)  ***
 =======
  
 SFOs are linear combinations of (valence) Fragment Orbitals (FOs), such that the SFOs transform as the
 irreducible representations of the (molecular) symmetry group. Each SFO is therefore characterized by
 an irrep of the molecule and by a few (or only one) generating FOs.
 The SFOs constitute a symmetry-adapted basis for the Fock matrix. The MO eigenvector coefficients in
 this basis provide a direct interpretation of the MOs in terms of Frontier Orbital Theory.

 The SFOs are combined with auxiliary Core Functions (CFs) to ensure orthogonalization on the (frozen)
 Core Orbitals (COs). The Core-orthogonalized SFOs (CSFOs) constitute the true Fock basis.

 The FOs, and hence also the (C)SFOs are combinations of the elementary basis functions (BAS). The basis
 functions that participate in the description of the SFOs depend on the irrep. The indices of the
 involved functions are printed below for each irrep.
 (The complete list of primitive basis functions is printed in another section)

 Total nr. of (C)SFOs (summation over all irreps) :   385

 NOTE: a (C)SFO that is defined as a combination of more than one FO is usually NOT normalized.



                                       === A ===
 Nr. of SFOs :  385
 Cartesian basis functions that participate in this irrep (total number =   438) :
      1     2     3     4     5     6     9    12     7    10
     13     8    11    14    15    16    17    18    19    20
     21    22    23    24    25    26    27    28    29    30
     31    32    33    34    35    36    39    42    37    40
     43    38    41    44    45    46    47    48    49    50
     51    52    53    54    55    56    57    58    59    60
     61    62    63    64    65    66    69    72    67    70
     73    68    71    74    75    76    77    78    79    80
     81    82    83    84    85    86    87    88    89    90
     91    92    93    94    95    96    99   102    97   100
    103    98   101   104   105   106   107   108   109   110
    111   112   113   114   115   116   117   118   119   120
    121   122   123   124   125   126   129   132   127   130
    133   128   131   134   135   136   137   138   139   140
    141   142   143   144   145   146   147   148   149   150
    151   152   153   154   155   156   159   162   157   160
    163   158   161   164   165   166   167   168   169   170
    171   172   173   174   175   176   177   178   179   180
    181   182   183   184   185   186   189   192   187   190
    193   188   191   194   195   196   197   198   199   200
    201   202   203   204   205   206   207   208   209   210
    211   212   213   214   215   216   219   222   217   220
    223   218   221   224   225   226   227   228   229   230
    231   232   233   234   235   236   237   238   239   240
    241   242   243   244   245   246   249   252   247   250
    253   248   251   254   255   256   257   258   259   260
    261   262   263   264   265   266   267   268   269   270
    271   272   273   274   275   276   279   282   277   280
    283   278   281   284   285   286   287   288   289   290
    291   292   293   294   295   296   297   298   299   300
    301   302   303   304   305   306   309   312   307   310
    313   308   311   314   315   316   317   318   319   320
    321   322   323   324   325   326   327   328   329   330
    331   332   333   334   335   336   337   338   339   340
    341   342   343   344   345   346   347   348   349   350
    351   352   353   354   355   356   357   358   359   360
    361   362   363   364   365   366   367   368   369   370
    371   372   373   374   375   376   377   378   379   380
    381   382   383   384   385   386   387   388   389   390
    391   392   393   394   395   396   397   398   399   400
    401   402   403   404   405   406   407   408   409   410
    411   412   413   414   415   416   417   418   419   420
    421   422   423   424   425   426   427   428   429   430
    431   432   433   434   435   436   437   438

    SFO  (index         Fragment          Generating    Expansion in Fragment Orbitals
  indx  incl.CFs)   Occup   Orb.Energy   FragmentType  Coeff.   Orbital     on Fragment
 --------------------------------------------------------------------------------------
     1       1      2.000     -10.066 au  C             1.00      1 S               1
                        (    -273.921 eV)
     2       2      2.000      -0.501 au  C             1.00      2 S               1
                        (     -13.620 eV)
     3       3       --         0.373 au  C             1.00      3 S               1
                        (      10.158 eV)
     4       4       --         5.405 au  C             1.00      4 S               1
                        (     147.073 eV)
     5       5       --        49.848 au  C             1.00      5 S               1
                        (    1356.422 eV)
     6       6      0.667      -0.193 au  C             1.00      1 P:x             1
                        (      -5.239 eV)
     7       7       --         0.169 au  C             1.00      2 P:x             1
                        (       4.589 eV)
     8       8       --         2.013 au  C             1.00      3 P:x             1
                        (      54.789 eV)
     9       9      0.667      -0.193 au  C             1.00      1 P:y             1
                        (      -5.239 eV)
    10      10       --         0.169 au  C             1.00      2 P:y             1
                        (       4.589 eV)
    11      11       --         2.013 au  C             1.00      3 P:y             1
                        (      54.789 eV)
    12      12      0.667      -0.193 au  C             1.00      1 P:z             1
                        (      -5.239 eV)
    13      13       --         0.169 au  C             1.00      2 P:z             1
                        (       4.589 eV)
    14      14       --         2.013 au  C             1.00      3 P:z             1
                        (      54.789 eV)
    15      15       --         1.243 au  C             1.00      1 D:z2            1
                        (      33.824 eV)
    16      16       --         1.243 au  C             1.00      1 D:x2-y2         1
                        (      33.824 eV)
    17      17       --         1.243 au  C             1.00      1 D:xy            1
                        (      33.824 eV)
    18      18       --         1.243 au  C             1.00      1 D:xz            1
                        (      33.824 eV)
    19      19       --         1.243 au  C             1.00      1 D:yz            1
                        (      33.824 eV)
    20      20       --         4.016 au  C             1.00      1 F:z3            1
                        (     109.271 eV)
    21      21       --         4.016 au  C             1.00      1 F:z             1
                        (     109.271 eV)
    22      22       --         4.016 au  C             1.00      1 F:xyz           1
                        (     109.271 eV)
    23      23       --         4.016 au  C             1.00      1 F:z2x           1
                        (     109.271 eV)
    24      24       --         4.016 au  C             1.00      1 F:z2y           1
                        (     109.271 eV)
    25      25       --         4.016 au  C             1.00      1 F:x             1
                        (     109.271 eV)
    26      26       --         4.016 au  C             1.00      1 F:y             1
                        (     109.271 eV)
    27      27      2.000     -10.066 au  C             1.00      1 S               2
                        (    -273.921 eV)
    28      28      2.000      -0.501 au  C             1.00      2 S               2
                        (     -13.620 eV)
    29      29       --         0.373 au  C             1.00      3 S               2
                        (      10.158 eV)
    30      30       --         5.405 au  C             1.00      4 S               2
                        (     147.073 eV)
    31      31       --        49.848 au  C             1.00      5 S               2
                        (    1356.422 eV)
    32      32      0.667      -0.193 au  C             1.00      1 P:x             2
                        (      -5.239 eV)
    33      33       --         0.169 au  C             1.00      2 P:x             2
                        (       4.589 eV)
    34      34       --         2.013 au  C             1.00      3 P:x             2
                        (      54.789 eV)
    35      35      0.667      -0.193 au  C             1.00      1 P:y             2
                        (      -5.239 eV)
    36      36       --         0.169 au  C             1.00      2 P:y             2
                        (       4.589 eV)
    37      37       --         2.013 au  C             1.00      3 P:y             2
                        (      54.789 eV)
    38      38      0.667      -0.193 au  C             1.00      1 P:z             2
                        (      -5.239 eV)
    39      39       --         0.169 au  C             1.00      2 P:z             2
                        (       4.589 eV)
    40      40       --         2.013 au  C             1.00      3 P:z             2
                        (      54.789 eV)
    41      41       --         1.243 au  C             1.00      1 D:z2            2
                        (      33.824 eV)
    42      42       --         1.243 au  C             1.00      1 D:x2-y2         2
                        (      33.824 eV)
    43      43       --         1.243 au  C             1.00      1 D:xy            2
                        (      33.824 eV)
    44      44       --         1.243 au  C             1.00      1 D:xz            2
                        (      33.824 eV)
    45      45       --         1.243 au  C             1.00      1 D:yz            2
                        (      33.824 eV)
    46      46       --         4.016 au  C             1.00      1 F:z3            2
                        (     109.271 eV)
    47      47       --         4.016 au  C             1.00      1 F:z             2
                        (     109.271 eV)
    48      48       --         4.016 au  C             1.00      1 F:xyz           2
                        (     109.271 eV)
    49      49       --         4.016 au  C             1.00      1 F:z2x           2
                        (     109.271 eV)
    50      50       --         4.016 au  C             1.00      1 F:z2y           2
                        (     109.271 eV)
    51      51       --         4.016 au  C             1.00      1 F:x             2
                        (     109.271 eV)
    52      52       --         4.016 au  C             1.00      1 F:y             2
                        (     109.271 eV)
    53      53      2.000     -10.066 au  C             1.00      1 S               3
                        (    -273.921 eV)
    54      54      2.000      -0.501 au  C             1.00      2 S               3
                        (     -13.620 eV)
    55      55       --         0.373 au  C             1.00      3 S               3
                        (      10.158 eV)
    56      56       --         5.405 au  C             1.00      4 S               3
                        (     147.073 eV)
    57      57       --        49.848 au  C             1.00      5 S               3
                        (    1356.422 eV)
    58      58      0.667      -0.193 au  C             1.00      1 P:x             3
                        (      -5.239 eV)
    59      59       --         0.169 au  C             1.00      2 P:x             3
                        (       4.589 eV)
    60      60       --         2.013 au  C             1.00      3 P:x             3
                        (      54.789 eV)
    61      61      0.667      -0.193 au  C             1.00      1 P:y             3
                        (      -5.239 eV)
    62      62       --         0.169 au  C             1.00      2 P:y             3
                        (       4.589 eV)
    63      63       --         2.013 au  C             1.00      3 P:y             3
                        (      54.789 eV)
    64      64      0.667      -0.193 au  C             1.00      1 P:z             3
                        (      -5.239 eV)
    65      65       --         0.169 au  C             1.00      2 P:z             3
                        (       4.589 eV)
    66      66       --         2.013 au  C             1.00      3 P:z             3
                        (      54.789 eV)
    67      67       --         1.243 au  C             1.00      1 D:z2            3
                        (      33.824 eV)
    68      68       --         1.243 au  C             1.00      1 D:x2-y2         3
                        (      33.824 eV)
    69      69       --         1.243 au  C             1.00      1 D:xy            3
                        (      33.824 eV)
    70      70       --         1.243 au  C             1.00      1 D:xz            3
                        (      33.824 eV)
    71      71       --         1.243 au  C             1.00      1 D:yz            3
                        (      33.824 eV)
    72      72       --         4.016 au  C             1.00      1 F:z3            3
                        (     109.271 eV)
    73      73       --         4.016 au  C             1.00      1 F:z             3
                        (     109.271 eV)
    74      74       --         4.016 au  C             1.00      1 F:xyz           3
                        (     109.271 eV)
    75      75       --         4.016 au  C             1.00      1 F:z2x           3
                        (     109.271 eV)
    76      76       --         4.016 au  C             1.00      1 F:z2y           3
                        (     109.271 eV)
    77      77       --         4.016 au  C             1.00      1 F:x             3
                        (     109.271 eV)
    78      78       --         4.016 au  C             1.00      1 F:y             3
                        (     109.271 eV)
    79      79      2.000     -10.066 au  C             1.00      1 S               4
                        (    -273.921 eV)
    80      80      2.000      -0.501 au  C             1.00      2 S               4
                        (     -13.620 eV)
    81      81       --         0.373 au  C             1.00      3 S               4
                        (      10.158 eV)
    82      82       --         5.405 au  C             1.00      4 S               4
                        (     147.073 eV)
    83      83       --        49.848 au  C             1.00      5 S               4
                        (    1356.422 eV)
    84      84      0.667      -0.193 au  C             1.00      1 P:x             4
                        (      -5.239 eV)
    85      85       --         0.169 au  C             1.00      2 P:x             4
                        (       4.589 eV)
    86      86       --         2.013 au  C             1.00      3 P:x             4
                        (      54.789 eV)
    87      87      0.667      -0.193 au  C             1.00      1 P:y             4
                        (      -5.239 eV)
    88      88       --         0.169 au  C             1.00      2 P:y             4
                        (       4.589 eV)
    89      89       --         2.013 au  C             1.00      3 P:y             4
                        (      54.789 eV)
    90      90      0.667      -0.193 au  C             1.00      1 P:z             4
                        (      -5.239 eV)
    91      91       --         0.169 au  C             1.00      2 P:z             4
                        (       4.589 eV)
    92      92       --         2.013 au  C             1.00      3 P:z             4
                        (      54.789 eV)
    93      93       --         1.243 au  C             1.00      1 D:z2            4
                        (      33.824 eV)
    94      94       --         1.243 au  C             1.00      1 D:x2-y2         4
                        (      33.824 eV)
    95      95       --         1.243 au  C             1.00      1 D:xy            4
                        (      33.824 eV)
    96      96       --         1.243 au  C             1.00      1 D:xz            4
                        (      33.824 eV)
    97      97       --         1.243 au  C             1.00      1 D:yz            4
                        (      33.824 eV)
    98      98       --         4.016 au  C             1.00      1 F:z3            4
                        (     109.271 eV)
    99      99       --         4.016 au  C             1.00      1 F:z             4
                        (     109.271 eV)
   100     100       --         4.016 au  C             1.00      1 F:xyz           4
                        (     109.271 eV)
   101     101       --         4.016 au  C             1.00      1 F:z2x           4
                        (     109.271 eV)
   102     102       --         4.016 au  C             1.00      1 F:z2y           4
                        (     109.271 eV)
   103     103       --         4.016 au  C             1.00      1 F:x             4
                        (     109.271 eV)
   104     104       --         4.016 au  C             1.00      1 F:y             4
                        (     109.271 eV)
   105     105      2.000     -10.066 au  C             1.00      1 S               5
                        (    -273.921 eV)
   106     106      2.000      -0.501 au  C             1.00      2 S               5
                        (     -13.620 eV)
   107     107       --         0.373 au  C             1.00      3 S               5
                        (      10.158 eV)
   108     108       --         5.405 au  C             1.00      4 S               5
                        (     147.073 eV)
   109     109       --        49.848 au  C             1.00      5 S               5
                        (    1356.422 eV)
   110     110      0.667      -0.193 au  C             1.00      1 P:x             5
                        (      -5.239 eV)
   111     111       --         0.169 au  C             1.00      2 P:x             5
                        (       4.589 eV)
   112     112       --         2.013 au  C             1.00      3 P:x             5
                        (      54.789 eV)
   113     113      0.667      -0.193 au  C             1.00      1 P:y             5
                        (      -5.239 eV)
   114     114       --         0.169 au  C             1.00      2 P:y             5
                        (       4.589 eV)
   115     115       --         2.013 au  C             1.00      3 P:y             5
                        (      54.789 eV)
   116     116      0.667      -0.193 au  C             1.00      1 P:z             5
                        (      -5.239 eV)
   117     117       --         0.169 au  C             1.00      2 P:z             5
                        (       4.589 eV)
   118     118       --         2.013 au  C             1.00      3 P:z             5
                        (      54.789 eV)
   119     119       --         1.243 au  C             1.00      1 D:z2            5
                        (      33.824 eV)
   120     120       --         1.243 au  C             1.00      1 D:x2-y2         5
                        (      33.824 eV)
   121     121       --         1.243 au  C             1.00      1 D:xy            5
                        (      33.824 eV)
   122     122       --         1.243 au  C             1.00      1 D:xz            5
                        (      33.824 eV)
   123     123       --         1.243 au  C             1.00      1 D:yz            5
                        (      33.824 eV)
   124     124       --         4.016 au  C             1.00      1 F:z3            5
                        (     109.271 eV)
   125     125       --         4.016 au  C             1.00      1 F:z             5
                        (     109.271 eV)
   126     126       --         4.016 au  C             1.00      1 F:xyz           5
                        (     109.271 eV)
   127     127       --         4.016 au  C             1.00      1 F:z2x           5
                        (     109.271 eV)
   128     128       --         4.016 au  C             1.00      1 F:z2y           5
                        (     109.271 eV)
   129     129       --         4.016 au  C             1.00      1 F:x             5
                        (     109.271 eV)
   130     130       --         4.016 au  C             1.00      1 F:y             5
                        (     109.271 eV)
   131     131      2.000     -10.066 au  C             1.00      1 S               6
                        (    -273.921 eV)
   132     132      2.000      -0.501 au  C             1.00      2 S               6
                        (     -13.620 eV)
   133     133       --         0.373 au  C             1.00      3 S               6
                        (      10.158 eV)
   134     134       --         5.405 au  C             1.00      4 S               6
                        (     147.073 eV)
   135     135       --        49.848 au  C             1.00      5 S               6
                        (    1356.422 eV)
   136     136      0.667      -0.193 au  C             1.00      1 P:x             6
                        (      -5.239 eV)
   137     137       --         0.169 au  C             1.00      2 P:x             6
                        (       4.589 eV)
   138     138       --         2.013 au  C             1.00      3 P:x             6
                        (      54.789 eV)
   139     139      0.667      -0.193 au  C             1.00      1 P:y             6
                        (      -5.239 eV)
   140     140       --         0.169 au  C             1.00      2 P:y             6
                        (       4.589 eV)
   141     141       --         2.013 au  C             1.00      3 P:y             6
                        (      54.789 eV)
   142     142      0.667      -0.193 au  C             1.00      1 P:z             6
                        (      -5.239 eV)
   143     143       --         0.169 au  C             1.00      2 P:z             6
                        (       4.589 eV)
   144     144       --         2.013 au  C             1.00      3 P:z             6
                        (      54.789 eV)
   145     145       --         1.243 au  C             1.00      1 D:z2            6
                        (      33.824 eV)
   146     146       --         1.243 au  C             1.00      1 D:x2-y2         6
                        (      33.824 eV)
   147     147       --         1.243 au  C             1.00      1 D:xy            6
                        (      33.824 eV)
   148     148       --         1.243 au  C             1.00      1 D:xz            6
                        (      33.824 eV)
   149     149       --         1.243 au  C             1.00      1 D:yz            6
                        (      33.824 eV)
   150     150       --         4.016 au  C             1.00      1 F:z3            6
                        (     109.271 eV)
   151     151       --         4.016 au  C             1.00      1 F:z             6
                        (     109.271 eV)
   152     152       --         4.016 au  C             1.00      1 F:xyz           6
                        (     109.271 eV)
   153     153       --         4.016 au  C             1.00      1 F:z2x           6
                        (     109.271 eV)
   154     154       --         4.016 au  C             1.00      1 F:z2y           6
                        (     109.271 eV)
   155     155       --         4.016 au  C             1.00      1 F:x             6
                        (     109.271 eV)
   156     156       --         4.016 au  C             1.00      1 F:y             6
                        (     109.271 eV)
   157     157      2.000     -10.066 au  C             1.00      1 S               7
                        (    -273.921 eV)
   158     158      2.000      -0.501 au  C             1.00      2 S               7
                        (     -13.620 eV)
   159     159       --         0.373 au  C             1.00      3 S               7
                        (      10.158 eV)
   160     160       --         5.405 au  C             1.00      4 S               7
                        (     147.073 eV)
   161     161       --        49.848 au  C             1.00      5 S               7
                        (    1356.422 eV)
   162     162      0.667      -0.193 au  C             1.00      1 P:x             7
                        (      -5.239 eV)
   163     163       --         0.169 au  C             1.00      2 P:x             7
                        (       4.589 eV)
   164     164       --         2.013 au  C             1.00      3 P:x             7
                        (      54.789 eV)
   165     165      0.667      -0.193 au  C             1.00      1 P:y             7
                        (      -5.239 eV)
   166     166       --         0.169 au  C             1.00      2 P:y             7
                        (       4.589 eV)
   167     167       --         2.013 au  C             1.00      3 P:y             7
                        (      54.789 eV)
   168     168      0.667      -0.193 au  C             1.00      1 P:z             7
                        (      -5.239 eV)
   169     169       --         0.169 au  C             1.00      2 P:z             7
                        (       4.589 eV)
   170     170       --         2.013 au  C             1.00      3 P:z             7
                        (      54.789 eV)
   171     171       --         1.243 au  C             1.00      1 D:z2            7
                        (      33.824 eV)
   172     172       --         1.243 au  C             1.00      1 D:x2-y2         7
                        (      33.824 eV)
   173     173       --         1.243 au  C             1.00      1 D:xy            7
                        (      33.824 eV)
   174     174       --         1.243 au  C             1.00      1 D:xz            7
                        (      33.824 eV)
   175     175       --         1.243 au  C             1.00      1 D:yz            7
                        (      33.824 eV)
   176     176       --         4.016 au  C             1.00      1 F:z3            7
                        (     109.271 eV)
   177     177       --         4.016 au  C             1.00      1 F:z             7
                        (     109.271 eV)
   178     178       --         4.016 au  C             1.00      1 F:xyz           7
                        (     109.271 eV)
   179     179       --         4.016 au  C             1.00      1 F:z2x           7
                        (     109.271 eV)
   180     180       --         4.016 au  C             1.00      1 F:z2y           7
                        (     109.271 eV)
   181     181       --         4.016 au  C             1.00      1 F:x             7
                        (     109.271 eV)
   182     182       --         4.016 au  C             1.00      1 F:y             7
                        (     109.271 eV)
   183     183      2.000     -10.066 au  C             1.00      1 S               8
                        (    -273.921 eV)
   184     184      2.000      -0.501 au  C             1.00      2 S               8
                        (     -13.620 eV)
   185     185       --         0.373 au  C             1.00      3 S               8
                        (      10.158 eV)
   186     186       --         5.405 au  C             1.00      4 S               8
[...]
                                   -4.37%     4 S              42.880  0.00    11 F
                                    4.30%     2 S             -13.620  2.00     8 C
                                    4.00%     2 S             -29.785  2.00    11 F
                                   -3.19%     2 P:y             4.589  0.00     8 C
                                    2.09%     1 P:x            -5.239  0.67     4 C
                                    1.96%     1 S              -6.532  1.00    17 H
                                    1.65%     2 P:x             4.589  0.00     4 C
                                    1.48%     1 P:z            -5.239  0.67     5 C
                                    1.45%     1 P:y            -5.239  0.67     4 C
                                    1.44%     1 S              -6.532  1.00    13 H
                                    1.32%     1 P:z           -11.127  1.67    10 F
                                    1.31%     1 P:z           -11.127  1.67    11 F
                                   -1.30%     3 S              10.158  0.00     8 C
                                    1.27%     1 P:x           -11.127  1.67    10 F
                                   -1.20%     2 S               2.394  0.00    13 H
                                   -1.15%     2 P:z            11.654  0.00    10 F
                                    1.06%     2 P:y             4.589  0.00     2 C
                                    1.04%     1 P:x            -5.239  0.67     2 C
                                    1.03%     1 P:z           -11.127  1.67     9 F
       3.714  0.00    61 A         43.58%     2 S             -13.620  2.00     8 C
                                   21.95%     1 P:z            -5.239  0.67     8 C
                                   12.28%     1 P:z           -11.127  1.67    10 F
                                   11.39%     3 S               0.624  0.00    10 F
                                   -9.72%     3 S              10.158  0.00     8 C
                                   -8.18%     2 P:z             4.589  0.00     8 C
                                   -7.24%     2 P:z            11.654  0.00    10 F
                                    6.86%     1 P:y           -11.127  1.67     9 F
                                    4.38%     1 P:y            -5.239  0.67     8 C
                                   -4.13%     4 S              42.880  0.00    10 F
                                    4.06%     1 P:y            -5.239  0.67     5 C
                                    3.75%     1 P:x           -11.127  1.67     9 F
                                    3.61%     1 P:y           -11.127  1.67    10 F
                                    3.38%     2 S             -29.785  2.00    10 F
                                    2.74%     1 P:z           -11.127  1.67    11 F
                                    2.49%     1 P:x           -11.127  1.67    11 F
                                   -2.45%     2 P:y            11.654  0.00     9 F
                                    2.02%     1 P:x            -5.239  0.67     6 C
                                    1.94%     1 S              -6.532  1.00    19 H
                                    1.92%     1 P:x            -5.239  0.67     8 C
                                    1.68%     3 S               0.624  0.00    11 F
                                   -1.43%     4 S              42.880  0.00     9 F
                                   -1.38%     2 P:x            11.654  0.00    11 F
                                    1.36%     2 S             -29.785  2.00     9 F
                                   -1.35%     2 P:x             4.589  0.00     8 C
                                    1.23%     1 P:y            -5.239  0.67     6 C
                                   -1.15%     3 S              10.158  0.00     7 C
                                    1.15%     1 P:y            -5.239  0.67     7 C
                                   -1.12%     2 P:x             4.589  0.00     2 C
                                   -1.06%     2 P:y            11.654  0.00    10 F
                                   -1.03%     2 S               2.394  0.00    19 H
                                    1.03%     2 S             -13.620  2.00     7 C
                                    1.02%     3 S               0.624  0.00     9 F

 Energy gradients wrt nuclear displacements
 ==========================================

     Atom      Cartesian (a.u./angstrom)
                 X         Y         Z
 ----------------------------------------
     1 C     0.000007  0.000014 -0.000026
     2 C    -0.000007 -0.000005 -0.000041
     3 C    -0.000105 -0.000001  0.000004
     4 C     0.000002 -0.000019  0.000014
     5 C    -0.000010 -0.000029  0.000021
     6 C    -0.000007  0.000040 -0.000022
     7 C     0.000038  0.000005 -0.000000
     8 C     0.000086 -0.000001  0.000057
     9 F     0.000092  0.000012  0.000007
    10 F     0.000107 -0.000014  0.000009
    11 F     0.000053 -0.000025  0.000061
    12 H     0.000032  0.000031 -0.000043
    13 H    -0.000042  0.000036 -0.000065
    14 H    -0.000059 -0.000001 -0.000010
    15 H    -0.000089  0.000001 -0.000021
    16 H    -0.000066 -0.000026  0.000038
    17 H    -0.000035 -0.000033  0.000057
    18 H     0.000028 -0.000009  0.000033
    19 H     0.000015  0.000018 -0.000044
    20 H    -0.000039  0.000006 -0.000030
 ----------------------------------------



 =======================================================================
 Electrostatic potential at the Nuclei due to electrons and other nuclei
 =======================================================================
  
         Atom                  Potential
         ----                  ---------
     1)   C                  14.77157866
     2)   C                  14.76181775
     3)   C                  14.77648408
     4)   C                  14.77865608
     5)   C                  14.76039674
     6)   C                  14.77717933
     7)   C                  14.76515977
     8)   C                  14.53580372
     9)   F                  26.62076566
    10)   F                  26.62556395
    11)   F                  26.62563454
    12)   H                   1.08219408
    13)   H                   1.10661727
    14)   H                   1.11694879
    15)   H                   1.11448950
    16)   H                   1.11605784
    17)   H                   1.11938515
    18)   H                   1.10612762
    19)   H                   1.11283817
    20)   H                   1.11066972
 Mulliken charges used for AMS results%charges...


    =====================
     CALCULATION RESULTS
    =====================

Energy (hartree)            -4.11876964

Gradients (hartree/bohr)
  Index   Atom            d/dx            d/dy            d/dz
      1      C    0.0000035574    0.0000073329   -0.0000135918
      2      C   -0.0000036850   -0.0000026144   -0.0000217321
      3      C   -0.0000553575   -0.0000004885    0.0000021239
      4      C    0.0000012628   -0.0000100380    0.0000074707
      5      C   -0.0000053439   -0.0000153893    0.0000110558
      6      C   -0.0000039371    0.0000209048   -0.0000117839
      7      C    0.0000200448    0.0000028976   -0.0000001799
      8      C    0.0000455937   -0.0000003465    0.0000303663
      9      F    0.0000484284    0.0000062686    0.0000037276
     10      F    0.0000563996   -0.0000076428    0.0000050004
     11      F    0.0000278106   -0.0000130119    0.0000321712
     12      H    0.0000167236    0.0000163227   -0.0000227370
     13      H   -0.0000220613    0.0000193122   -0.0000343817
     14      H   -0.0000309971   -0.0000006910   -0.0000052412
     15      H   -0.0000468555    0.0000007739   -0.0000110302
     16      H   -0.0000349162   -0.0000139543    0.0000201356
     17      H   -0.0000186573   -0.0000172118    0.0000303290
     18      H    0.0000147194   -0.0000048574    0.0000177106
     19      H    0.0000081443    0.0000092802   -0.0000233274
     20      H   -0.0000208736    0.0000031530   -0.0000160858


--------------
Atomic charges
--------------
  Index   Atom    Charge
      1      C    0.2962
      2      C    0.1675
      3      C    0.4221
      4      C    0.4329
      5      C    0.1771
      6      C    0.4428
      7      C   -0.0833
      8      C    1.1775
      9      F   -0.4097
     10      F   -0.4083
     11      F   -0.4121
     12      H   -0.2279
     13      H   -0.1922
     14      H   -0.1991
     15      H   -0.1920
     16      H   -0.1923
     17      H   -0.1956
     18      H   -0.1830
     19      H   -0.2012
     20      H   -0.2195


Dipole moment vector    (Debye):     1.45529013    2.20820117   -2.09716841
              magnitude (Debye):     3.37522401


-----------------------
Molecular orbitals info
-----------------------
n orbitals:              385
n spin:                    1

Note: only printing virtual orbitals with
      energy smaller than HOMO + 100. eV

HOMO (eV):              -6.4482
LUMO (eV):              -1.6673
HOMO-LUMO gap (eV):      4.7809

   Index   Energy (eV)    Occupation
     242       93.2268         0.000       
     241       92.6819         0.000       
     240       92.6522         0.000       
     239       92.3083         0.000       
     238       91.7572         0.000       
     237       91.5175         0.000       
     236       91.1343         0.000       
     235       90.9909         0.000       
     234       90.6895         0.000       
     233       89.9336         0.000       
     232       88.7920         0.000       
     231       88.3627         0.000       
     230       87.7691         0.000       
     229       87.0693         0.000       
     228       86.4743         0.000       
     227       85.5706         0.000       
     226       84.6573         0.000       
     225       84.0216         0.000       
     224       83.5401         0.000       
     223       82.9490         0.000       
     222       82.4001         0.000       
     221       81.4919         0.000       
     220       80.3751         0.000       
     219       79.7819         0.000       
     218       78.8589         0.000       
     217       78.6471         0.000       
     216       78.3788         0.000       
     215       78.0078         0.000       
     214       76.9727         0.000       
     213       76.6047         0.000       
     212       76.4030         0.000       
     211       75.7279         0.000       
     210       75.4525         0.000       
     209       75.2785         0.000       
     208       74.8086         0.000       
     207       74.4780         0.000       
     206       73.4822         0.000       
     205       72.8541         0.000       
     204       72.4514         0.000       
     203       71.1957         0.000       
     202       69.5936         0.000       
     201       68.5245         0.000       
     200       67.8985         0.000       
     199       67.7537         0.000       
     198       66.9688         0.000       
     197       66.4076         0.000       
     196       65.1162         0.000       
     195       64.4076         0.000       
     194       63.7324         0.000       
     193       63.4477         0.000       
     192       62.5766         0.000       
     191       61.7372         0.000       
     190       61.3912         0.000       
     189       60.2650         0.000       
     188       59.8730         0.000       
     187       59.5016         0.000       
     186       58.5678         0.000       
     185       58.0074         0.000       
     184       57.4623         0.000       
     183       56.7852         0.000       
     182       56.4553         0.000       
     181       55.6781         0.000       
     180       55.2446         0.000       
     179       55.0302         0.000       
     178       54.4160         0.000       
     177       53.4775         0.000       
     176       52.8952         0.000       
     175       51.8106         0.000       
     174       51.7426         0.000       
     173       51.4031         0.000       
     172       50.7308         0.000       
     171       50.1405         0.000       
     170       49.4285         0.000       
     169       48.9722         0.000       
     168       47.9503         0.000       
     167       47.5883         0.000       
     166       47.2933         0.000       
     165       46.6590         0.000       
     164       45.8121         0.000       
     163       45.6561         0.000       
     162       45.0171         0.000       
     161       44.7192         0.000       
     160       44.2593         0.000       
     159       43.8709         0.000       
     158       43.6918         0.000       
     157       42.9891         0.000       
     156       42.5644         0.000       
     155       41.9522         0.000       
     154       41.5577         0.000       
     153       41.1660         0.000       
     152       40.6198         0.000       
     151       40.0775         0.000       
     150       38.9475         0.000       
     149       38.7117         0.000       
     148       38.4709         0.000       
     147       37.4077         0.000       
     146       37.3429         0.000       
     145       37.0661         0.000       
     144       36.7888         0.000       
     143       36.3542         0.000       
     142       35.8936         0.000       
     141       35.5588         0.000       
     140       35.1500         0.000       
     139       34.6939         0.000       
     138       34.2083         0.000       
     137       34.0040         0.000       
     136       33.7239         0.000       
     135       33.5234         0.000       
     134       32.8663         0.000       
     133       32.3904         0.000       
     132       31.5732         0.000       
     131       31.2427         0.000       
     130       31.0515         0.000       
     129       30.7476         0.000       
     128       30.3696         0.000       
     127       30.1213         0.000       
     126       29.1127         0.000       
     125       28.7684         0.000       
     124       28.5162         0.000       
     123       28.0676         0.000       
     122       27.6881         0.000       
     121       27.1673         0.000       
     120       26.6528         0.000       
     119       26.2388         0.000       
     118       25.7925         0.000       
     117       25.0741         0.000       
     116       24.5685         0.000       
     115       24.3893         0.000       
     114       23.8900         0.000       
     113       23.4898         0.000       
     112       23.0542         0.000       
     111       22.6780         0.000       
     110       22.5659         0.000       
     109       21.8783         0.000       
     108       21.6413         0.000       
     107       20.6755         0.000       
     106       20.3052         0.000       
     105       19.9073         0.000       
     104       19.4790         0.000       
     103       19.1114         0.000       
     102       18.8306         0.000       
     101       18.5671         0.000       
     100       18.4873         0.000       
      99       17.0970         0.000       
      98       16.9069         0.000       
      97       16.1402         0.000       
      96       15.6569         0.000       
      95       15.0508         0.000       
      94       13.6420         0.000       
      93       13.5743         0.000       
      92       13.1079         0.000       
      91       12.5043         0.000       
      90       12.1811         0.000       
      89       12.0793         0.000       
      88       11.7175         0.000       
      87       11.3639         0.000       
      86       11.1973         0.000       
      85       11.0728         0.000       
      84       10.7036         0.000       
      83       10.4441         0.000       
      82       10.2361         0.000       
      81        9.8560         0.000       
      80        9.5487         0.000       
      79        9.3411         0.000       
      78        9.0705         0.000       
      77        8.7958         0.000       
      76        8.6245         0.000       
      75        8.4691         0.000       
      74        7.9370         0.000       
      73        7.2696         0.000       
      72        6.9006         0.000       
      71        6.6546         0.000       
      70        6.0676         0.000       
      69        5.8770         0.000       
      68        5.5334         0.000       
      67        5.4767         0.000       
      66        5.3557         0.000       
      65        4.9914         0.000       
      64        4.7412         0.000       
      63        4.2543         0.000       
      62        4.0387         0.000       
      61        3.7138         0.000       
      60        3.5286         0.000       
      59        3.4211         0.000       
      58        3.1301         0.000       
      57        2.9898         0.000       
      56        2.9148         0.000       
      55        2.5872         0.000       
      54        2.2442         0.000       
      53        1.9563         0.000       
      52        1.4571         0.000       
      51        1.3928         0.000       
      50        1.2631         0.000       
      49        1.0945         0.000       
      48        0.8229         0.000       
      47        0.5593         0.000       
      46        0.3633         0.000       
      45        0.2903         0.000       
      44       -0.3402         0.000       
      43       -1.6673         0.000 < LUMO
      42       -6.4482         2.000 < HOMO
      41       -7.7541         2.000       
      40       -8.2422         2.000       
      39       -8.4176         2.000       
      38       -8.6925         2.000       
      37       -8.8104         2.000       
      36       -8.8519         2.000       
      35       -9.3693         2.000       
      34       -9.3914         2.000       
      33       -9.8801         2.000       
      32       -9.9234         2.000       
      31      -10.0166         2.000       
      30      -10.7532         2.000       
      29      -10.8392         2.000       
      28      -10.9100         2.000       
      27      -11.3467         2.000       
      26      -12.0013         2.000       
      25      -13.0241         2.000       
      24      -13.7175         2.000       
      23      -14.0230         2.000       
      22      -14.1083         2.000       
      21      -14.5046         2.000       
      20      -14.9763         2.000       
      19      -16.9050         2.000       
      18      -17.6748         2.000       
      17      -18.2117         2.000       
      16      -19.3238         2.000       
      15      -22.2697         2.000       
      14      -30.1113         2.000       
      13      -30.2535         2.000       
      12      -32.2951         2.000       
      11     -270.1950         2.000       
      10     -270.2556         2.000       
       9     -270.2759         2.000       
       8     -270.5564         2.000       
       7     -270.6417         2.000       
       6     -270.6768         2.000       
       5     -270.7000         2.000       
       4     -276.6637         2.000       
       3     -662.0982         2.000       
       2     -662.0991         2.000       
       1     -662.2215         2.000       

AMS application finished. Exiting.
NORMAL TERMINATION
     Total cpu time:     781.68
  Total system time:       2.49
 Total elapsed time:     788.61
NORMAL TERMINATION
