
 *******************************************************************************
 *                                                                             *
 *  --------------------------------                                           *
 *   Amsterdam Modeling Suite (AMS)              2026.103                      *
 *  --------------------------------                                           *
 *                                               r260501 2026-05-01 873454b5   *
 *                                                                             *
 *                                                                             *
 *                              =================                              *
 *                              |               |                              *
 *                              |     A M S     |                              *
 *                              |               |                              *
 *                              =================                              *
 *                                                                             *
 *                                                                             *
 *   Online information and documentation:  https://www.scm.com/support/       *
 *   E-mail:  support@scm.com   info@scm.com                                   *
 *                                                                             *
 *   Scientific publications using AMS results must be properly referenced     *
 *   See the User Manuals (or the web site) for recommended citations          *
 *   The terms and conditions of the End User License Agreement apply to       *
 *   the use of AMS, https://www.scm.com/license-terms/                        *
 *                                                                             *
 **********************  x86_64_linux_intel / intelmpi  ************************
 
 Licensed to: Jong-June Jeon / University of Seoul 2026-06-02 13:44:15
 SCM User ID: u30731
  
 AMS 2026.103  RunTime: Jun03-2026 05:59:48  ShM Nodes: 1  Procs: 1

 AMS jobname: c4_fragA_opt
 AMS jobid  : 1132637097

 Start   directory: /gpfs/home1/yeseo1ee/projects/eda-asm-prediction/ADF_800/adf_outputs/batch_000/dipolar_000734/
 Results directory: /gpfs/home1/yeseo1ee/projects/eda-asm-prediction/ADF_800/adf_outputs/batch_000/dipolar_000734/c4_fragA_opt.results/
 Scratch directory: /tmp/amstmp_c4_fragA_opt_kid0.1132637097/

 RNG seed: 1887641272 1887159698 1014775335 -858649445 21206254 -531567677 545206974 2014759134



                      ************************************************************************
                      *  ADF 2026.103  RunTime: Jun03-2026 05:59:48  ShM Nodes: 1  Procs: 1  *
                      ************************************************************************
  

       ***************************
       *  GEOMETRY OPTIMIZATION  *
       ***************************

Optimization Method                    Quasi Newton
Optimization Coordinates               Delocalized Coordinates
Optimize lattice                       F
 
 ------------------------------------------------------
 Convergence criteria (Hartree,Angstrom)
 ------------------------------------------------------
 Maximum gradient               0.000100000000
 Maximum rms gradient           0.000066666667
 Maximum step allowed           0.010000000000
 Maximum rms step allowed       0.006666666667
 Maximum energy change allowe   0.000100000000
 Maximum stress energy allowe   0.000500000000
 
Initial model Hessian                  Automatic Hessian
 
------------------------------------
Quasi-Newton Optimizer Parameters
------------------------------------
Hessian Update Method                  BFGS
Maximum number of steps                  200
First GDIIS cycle                          0
Maximum GDIIS vectors                      0
Trust radius (bohr)                        0.200000
Trust radius varies                        T
Constraints converged at all steps         T
Use projector                              T
 
 Rigid motions settings for: old optimizer
 Atomic rotations (x,y,z):     T T T
 Atomic translations (x,y,z):  T T T
 Tolerance:                  1.000000000000000E-006

--------
Geometry
--------
Formula: C3H3NO3
Atoms
  Index Symbol   x (angstrom)   y (angstrom)   z (angstrom)
      1      N     2.05243000    -2.33541000    -1.45493000
      2      O     2.44961000    -1.21697000    -2.13057000
      3      C     3.28793000    -0.43002000    -1.34595000
      4      O     3.71302000     0.64726000    -1.70321000
      5      C     3.44616000    -1.22241000    -0.15427000
      6      C     4.42365000    -1.04926000     0.93762000
      7      O     2.89842000    -2.41262000    -0.39986000
      8      H     5.41716000    -1.41465000     0.62702000
      9      H     4.50936000     0.02180000     1.16811000
     10      H     4.10859000    -1.59577000     1.83690000

Total System Charge              0.00000


----------------
ADF Engine Input
----------------
 
   Basis
     Type TZ2P
     Core None
   End
   XC
     GGA BLYP
     Dispersion GRIMME3 BJDAMP
   End
   Symmetry NOSYM
   NumericalQuality Normal
   Unrestricted No
   SCF
     Iterations 200
     Converge 1.0e-6
   End
   Save TAPE21
 

 Title: *** (NO TITLE) ***

 Using automatic Hessian for delocalized coordinates.
 *** GO1_GOStep1 ***

 Energy gradients wrt nuclear displacements
 ==========================================

     Atom      Cartesian (a.u./angstrom)
                 X         Y         Z
 ----------------------------------------
     1 N    -0.011666  0.062951  0.055997
     2 O     0.054113  0.000451  0.015747
     3 C    -0.021158 -0.028485 -0.034910
     4 O    -0.008854 -0.015402  0.003286
     5 C    -0.058165  0.001263  0.022522
     6 C    -0.000430 -0.000432 -0.009430
     7 O     0.049339 -0.020142 -0.052271
     8 H     0.000899 -0.002459 -0.003614
     9 H    -0.001056  0.004458  0.001133
    10 H    -0.003023 -0.002203  0.001540
 ----------------------------------------
 
----------------------------------------------------------------------
Geometry Convergence after Step   1       (Hartree/Angstrom,Angstrom)
----------------------------------------------------------------------
current energy                               -2.19711168 Hartree
energy change                      -2.19711168     0.00010000    F
constrained gradient max            0.06299691     0.00010000    F
constrained gradient rms            0.02758457     0.00006667    F
gradient max                        0.06299691
gradient rms                        0.02758457
cart. step max                      0.04307928     0.01000000    F
cart. step rms                      0.01493273     0.00666667    F
 

--------
Geometry
--------
Formula: C3H3NO3
Atoms
  Index Symbol   x (angstrom)   y (angstrom)   z (angstrom)
      1      N     2.06107623    -2.37848928    -1.48994896
      2      O     2.43023439    -1.22377579    -2.13722390
      3      C     3.28475166    -0.41739308    -1.34457646
      4      O     3.70908800     0.66737914    -1.70197982
      5      C     3.45387412    -1.21302819    -0.15564865
      6      C     4.43212537    -1.04993832     0.94270809
      7      O     2.86973927    -2.39883507    -0.38808066
      8      H     5.42362638    -1.42630083     0.64293974
      9      H     4.53172388     0.01889507     1.16889113
     10      H     4.11009071    -1.58656366     1.84377949

Total System Charge              0.00000

 *** GO1_GOStep2 ***

 Energy gradients wrt nuclear displacements
 ==========================================

     Atom      Cartesian (a.u./angstrom)
                 X         Y         Z
 ----------------------------------------
     1 N    -0.030846  0.017303  0.026822
     2 O     0.041428  0.001634  0.013583
     3 C    -0.020489 -0.027613 -0.025664
     4 O     0.003529  0.006958 -0.000485
     5 C    -0.029448  0.013751  0.034855
     6 C     0.002748 -0.000463 -0.006859
     7 O     0.033894 -0.011275 -0.042525
     8 H     0.001137 -0.001157 -0.001326
     9 H    -0.000414  0.002108  0.000625
    10 H    -0.001538 -0.001246  0.000974
 ----------------------------------------

 dE(predicted):    -0.80731E-02, dE(actual):    -0.69652E-02, Trust radius:    0.400000, all in a.u.
 
----------------------------------------------------------------------
Geometry Convergence after Step   2       (Hartree/Angstrom,Angstrom)
----------------------------------------------------------------------
current energy                               -2.20407689 Hartree
energy change                      -0.00696522     0.00010000    F
constrained gradient max            0.04253453     0.00010000    F
constrained gradient rms            0.01932190     0.00006667    F
gradient max                        0.04253453
gradient rms                        0.01932190
cart. step max                      0.06805415     0.01000000    F
cart. step rms                      0.02271008     0.00666667    F
 

--------
Geometry
--------
Formula: C3H3NO3
Atoms
  Index Symbol   x (angstrom)   y (angstrom)   z (angstrom)
      1      N     2.12913038    -2.40026292    -1.51632081
      2      O     2.39841819    -1.20644239    -2.14006825
      3      C     3.28496773    -0.40886021    -1.34594951
      4      O     3.68238833     0.67979825    -1.69442848
      5      C     3.47263727    -1.22074253    -0.17379904
      6      C     4.43646885    -1.05648339     0.93879310
      7      O     2.83110532    -2.38338613    -0.34019016
      8      H     5.42498187    -1.45399661     0.66112959
      9      H     4.55221601     0.01317149     1.14765298
     10      H     4.09401604    -1.57084557     1.84404057

Total System Charge              0.00000

 *** GO1_GOStep3 ***

 Energy gradients wrt nuclear displacements
 ==========================================

     Atom      Cartesian (a.u./angstrom)
                 X         Y         Z
 ----------------------------------------
     1 N     0.014498  0.018621  0.018995
     2 O     0.011450  0.022945 -0.007206
     3 C    -0.010670 -0.010270 -0.024802
     4 O    -0.005156 -0.009860  0.002985
     5 C    -0.016194  0.003914  0.010760
     6 C     0.002619 -0.005060 -0.004446
     7 O     0.004763 -0.020525  0.004766
     8 H     0.000295 -0.000098 -0.000839
     9 H    -0.000981  0.000809 -0.000826
    10 H    -0.000626 -0.000477  0.000613
 ----------------------------------------

 dE(predicted):    -0.68370E-02, dE(actual):    -0.50797E-02, Trust radius:    0.400000, all in a.u.
 
----------------------------------------------------------------------
Geometry Convergence after Step   3       (Hartree/Angstrom,Angstrom)
----------------------------------------------------------------------
current energy                               -2.20915656 Hartree
energy change                      -0.00507967     0.00010000    F
constrained gradient max            0.02484767     0.00010000    F
constrained gradient rms            0.01081770     0.00006667    F
gradient max                        0.02484767
gradient rms                        0.01081770
cart. step max                      0.06166540     0.01000000    F
cart. step rms                      0.02244839     0.00666667    F
 

--------
Geometry
--------
Formula: C3H3NO3
Atoms
  Index Symbol   x (angstrom)   y (angstrom)   z (angstrom)
      1      N     2.09261526    -2.41797365    -1.51606697
      2      O     2.35868595    -1.21716811    -2.12775922
      3      C     3.30208078    -0.39965352    -1.35210475
      4      O     3.67208784     0.70109651    -1.69929622
      5      C     3.53430268    -1.23688996    -0.21684563
      6      C     4.44674078    -1.05814380     0.94200579
      7      O     2.83098058    -2.37052316    -0.35161613
      8      H     5.44942091    -1.44849948     0.71546589
      9      H     4.54826022     0.01047962     1.15427836
     10      H     4.07115500    -1.57077446     1.83279890

Total System Charge              0.00000

 *** GO1_GOStep4 ***

 Energy gradients wrt nuclear displacements
 ==========================================

     Atom      Cartesian (a.u./angstrom)
                 X         Y         Z
 ----------------------------------------
     1 N    -0.007918 -0.021485  0.000271
     2 O     0.007668  0.014346  0.004097
     3 C    -0.004533 -0.004427 -0.014951
     4 O     0.001304  0.004126  0.003152
     5 C     0.004803  0.006060  0.008056
     6 C     0.001058 -0.001707  0.002212
     7 O    -0.003067  0.003194 -0.002861
     8 H    -0.000835  0.000622 -0.000059
     9 H    -0.000029 -0.001643 -0.000041
    10 H     0.001549  0.000914  0.000123
 ----------------------------------------

 dE(predicted):    -0.19092E-02, dE(actual):    -0.16935E-02, Trust radius:    0.800000, all in a.u.
 
----------------------------------------------------------------------
Geometry Convergence after Step   4       (Hartree/Angstrom,Angstrom)
----------------------------------------------------------------------
current energy                               -2.21085005 Hartree
energy change                      -0.00169349     0.00010000    F
constrained gradient max            0.02145179     0.00010000    F
constrained gradient rms            0.00649755     0.00006667    F
gradient max                        0.02145179
gradient rms                        0.00649755
cart. step max                      0.01346486     0.01000000    F
cart. step rms                      0.00573802     0.00666667    T
 

--------
Geometry
--------
Formula: C3H3NO3
Atoms
  Index Symbol   x (angstrom)   y (angstrom)   z (angstrom)
      1      N     2.09035134    -2.40968959    -1.51348288
      2      O     2.35730312    -1.21894673    -2.12838995
      3      C     3.29118283    -0.39343516    -1.33863989
      4      O     3.68026516     0.69467570    -1.70397075
      5      C     3.54298482    -1.24522201    -0.22267984
      6      C     4.44852464    -1.05807410     0.93928012
      7      O     2.83187550    -2.37234909    -0.35066475
      8      H     5.45570300    -1.44289570     0.72132990
      9      H     4.54101309     0.01200448     1.15208813
     10      H     4.06712649    -1.57411780     1.82598991

Total System Charge              0.00000

 *** GO1_GOStep5 ***

 Energy gradients wrt nuclear displacements
 ==========================================

     Atom      Cartesian (a.u./angstrom)
                 X         Y         Z
 ----------------------------------------
     1 N    -0.002954 -0.013214  0.001494
     2 O     0.007725  0.010862 -0.000884
     3 C    -0.014006 -0.001727 -0.003627
     4 O     0.004553  0.002080 -0.000812
     5 C     0.006314 -0.000804  0.002913
     6 C     0.000623 -0.001041  0.000971
     7 O    -0.002696  0.003693  0.000278
     8 H    -0.000217  0.000352 -0.000047
     9 H    -0.000025 -0.000670  0.000081
    10 H     0.000684  0.000469 -0.000367
 ----------------------------------------

 dE(predicted):    -0.24523E-03, dE(actual):    -0.24488E-03, Trust radius:    0.800000, all in a.u.
 
----------------------------------------------------------------------
Geometry Convergence after Step   5       (Hartree/Angstrom,Angstrom)
----------------------------------------------------------------------
current energy                               -2.21109494 Hartree
energy change                      -0.00024488     0.00010000    F
constrained gradient max            0.01399795     0.00010000    F
constrained gradient rms            0.00474645     0.00006667    F
gradient max                        0.01399795
gradient rms                        0.00474645
cart. step max                      0.04058678     0.01000000    F
cart. step rms                      0.01761491     0.00666667    F
 

--------
Geometry
--------
Formula: C3H3NO3
Atoms
  Index Symbol   x (angstrom)   y (angstrom)   z (angstrom)
      1      N     2.07749280    -2.39045352    -1.50504585
      2      O     2.31671634    -1.20167785    -2.10298890
      3      C     3.31220676    -0.40358059    -1.33996395
      4      O     3.68125323     0.69111558    -1.70454039
      5      C     3.57421327    -1.26830550    -0.24305187
      6      C     4.44974352    -1.05694750     0.93609475
      7      O     2.85847367    -2.39103592    -0.36715124
      8      H     5.46677856    -1.43589171     0.75296599
      9      H     4.52534164     0.01754079     1.13920282
     10      H     4.04411021    -1.56881378     1.81533865

Total System Charge              0.00000

 *** GO1_GOStep6 ***

 Energy gradients wrt nuclear displacements
 ==========================================

     Atom      Cartesian (a.u./angstrom)
                 X         Y         Z
 ----------------------------------------
     1 N     0.004696  0.001852  0.002311
     2 O    -0.000784  0.007764 -0.001489
     3 C    -0.004641 -0.010457 -0.001767
     4 O     0.000770  0.003750 -0.001677
     5 C     0.001689 -0.006346  0.000612
     6 C    -0.002691  0.001956  0.000156
     7 O     0.000640  0.001352  0.002675
     8 H     0.000469 -0.000226 -0.000784
     9 H     0.000286  0.000730  0.000553
    10 H    -0.000435 -0.000375 -0.000590
 ----------------------------------------

 dE(predicted):    -0.31866E-03, dE(actual):    -0.19496E-03, Trust radius:    0.800000, all in a.u.
 
----------------------------------------------------------------------
Geometry Convergence after Step   6       (Hartree/Angstrom,Angstrom)
----------------------------------------------------------------------
current energy                               -2.21128990 Hartree
energy change                      -0.00019496     0.00010000    F
constrained gradient max            0.01042333     0.00010000    F
constrained gradient rms            0.00322404     0.00006667    F
gradient max                        0.01042333
gradient rms                        0.00322404
cart. step max                      0.01434673     0.01000000    F
cart. step rms                      0.00645273     0.00666667    T
 

--------
Geometry
--------
Formula: C3H3NO3
Atoms
  Index Symbol   x (angstrom)   y (angstrom)   z (angstrom)
      1      N     2.08004674    -2.39620083    -1.50860428
      2      O     2.33106307    -1.21299999    -2.11189921
      3      C     3.30838182    -0.39698361    -1.33651906
      4      O     3.67251762     0.69784876    -1.69915583
      5      C     3.56535200    -1.26060597    -0.23865535
      6      C     4.45040076    -1.05814635     0.93592306
      7      O     2.85264723    -2.38725045    -0.36427752
      8      H     5.46287479    -1.44628897     0.74892615
      9      H     4.53695624     0.01574417     1.13539984
     10      H     4.04608973    -1.56316676     1.81972221

Total System Charge              0.00000

 *** GO1_GOStep7 ***

 Energy gradients wrt nuclear displacements
 ==========================================

     Atom      Cartesian (a.u./angstrom)
                 X         Y         Z
 ----------------------------------------
     1 N     0.000041 -0.002040  0.001464
     2 O     0.003029  0.005830  0.000574
     3 C    -0.004119 -0.003287 -0.002961
     4 O     0.000317  0.000181  0.000168
     5 C     0.001389 -0.002785 -0.000129
     6 C    -0.001143  0.000833  0.000065
     7 O     0.000186  0.001151  0.001265
     8 H     0.000351  0.000153 -0.000119
     9 H     0.000097  0.000252  0.000096
    10 H    -0.000149 -0.000288 -0.000421
 ----------------------------------------

 dE(predicted):    -0.99489E-04, dE(actual):    -0.13412E-03, Trust radius:    0.800000, all in a.u.
 
----------------------------------------------------------------------
Geometry Convergence after Step   7       (Hartree/Angstrom,Angstrom)
----------------------------------------------------------------------
current energy                               -2.21142402 Hartree
energy change                      -0.00013412     0.00010000    F
constrained gradient max            0.00587766     0.00010000    F
constrained gradient rms            0.00184089     0.00006667    F
gradient max                        0.00587766
gradient rms                        0.00184089
cart. step max                      0.01675059     0.01000000    F
cart. step rms                      0.00702307     0.00666667    F
 

--------
Geometry
--------
Formula: C3H3NO3
Atoms
  Index Symbol   x (angstrom)   y (angstrom)   z (angstrom)
      1      N     2.08646227    -2.40146115    -1.51509614
      2      O     2.33484719    -1.22258152    -2.11703223
      3      C     3.30551103    -0.38963064    -1.33075634
      4      O     3.66188273     0.70574917    -1.69535334
      5      C     3.55853414    -1.25376588    -0.23508303
      6      C     4.45106265    -1.05918905     0.93641349
      7      O     2.85444125    -2.38745242    -0.36632914
      8      H     5.45706892    -1.46303956     0.75008256
      9      H     4.55332665     0.01442202     1.12793412
     10      H     4.04319318    -1.55110097     1.82608005

Total System Charge              0.00000

 *** GO1_GOStep8 ***

 Energy gradients wrt nuclear displacements
 ==========================================

     Atom      Cartesian (a.u./angstrom)
                 X         Y         Z
 ----------------------------------------
     1 N    -0.002232 -0.002462 -0.000097
     2 O     0.003383  0.002638  0.001447
     3 C    -0.003083 -0.000552 -0.002212
     4 O     0.000456 -0.000462  0.000496
     5 C     0.000677 -0.000150 -0.000239
     6 C     0.000097 -0.000114  0.000059
     7 O     0.000479  0.000886  0.000546
     8 H     0.000143  0.000494  0.000394
     9 H    -0.000066 -0.000063 -0.000213
    10 H     0.000146 -0.000214 -0.000182
 ----------------------------------------

 dE(predicted):    -0.59995E-04, dE(actual):    -0.69732E-04, Trust radius:    0.800000, all in a.u.
 
----------------------------------------------------------------------
Geometry Convergence after Step   8       (Hartree/Angstrom,Angstrom)
----------------------------------------------------------------------
current energy                               -2.21149376 Hartree
energy change                      -0.00006973     0.00010000    T
constrained gradient max            0.00341063     0.00010000    F
constrained gradient rms            0.00128232     0.00006667    F
gradient max                        0.00341063
gradient rms                        0.00128232
cart. step max                      0.02520824     0.01000000    F
cart. step rms                      0.00990129     0.00666667    F
 

--------
Geometry
--------
Formula: C3H3NO3
Atoms
  Index Symbol   x (angstrom)   y (angstrom)   z (angstrom)
      1      N     2.09788864    -2.40724283    -1.52362022
      2      O     2.33333774    -1.23083661    -2.11984459
      3      C     3.30305462    -0.38156898    -1.32306068
      4      O     3.64637771     0.71590864    -1.68940838
      5      C     3.55363742    -1.24830496    -0.23245711
      6      C     4.45154815    -1.05976266     0.93679192
      7      O     2.86148459    -2.39059069    -0.37115556
      8      H     5.44785399    -1.48824780     0.75452059
      9      H     4.57653097     0.01353214     1.11544574
     10      H     4.03461617    -1.53093624     1.83364829

Total System Charge              0.00000

 *** GO1_GOStep9 ***

 Energy gradients wrt nuclear displacements
 ==========================================

     Atom      Cartesian (a.u./angstrom)
                 X         Y         Z
 ----------------------------------------
     1 N    -0.002027 -0.000633 -0.001419
     2 O     0.001864 -0.000558  0.001752
     3 C    -0.001057  0.000710 -0.001093
     4 O     0.000154 -0.000800  0.000443
     5 C    -0.000302  0.001036 -0.000402
     6 C     0.000626 -0.000481  0.000061
     7 O     0.000516  0.000334  0.000537
     8 H     0.000069  0.000573  0.000395
     9 H    -0.000102 -0.000077 -0.000208
    10 H     0.000261 -0.000105 -0.000065
 ----------------------------------------

 dE(predicted):    -0.44407E-04, dE(actual):    -0.38369E-04, Trust radius:    0.800000, all in a.u.
 
----------------------------------------------------------------------
Geometry Convergence after Step   9       (Hartree/Angstrom,Angstrom)
----------------------------------------------------------------------
current energy                               -2.21153213 Hartree
energy change                      -0.00003837     0.00010000    T
constrained gradient max            0.00200860     0.00010000    F
constrained gradient rms            0.00082123     0.00006667    F
gradient max                        0.00200860
gradient rms                        0.00082123
cart. step max                      0.02005048     0.01000000    F
cart. step rms                      0.00788116     0.00666667    F
 

--------
Geometry
--------
Formula: C3H3NO3
Atoms
  Index Symbol   x (angstrom)   y (angstrom)   z (angstrom)
      1      N     2.10689858    -2.41126019    -1.52885238
      2      O     2.32969913    -1.23388690    -2.12041861
      3      C     3.30091755    -0.37672432    -1.31807051
      4      O     3.63399017     0.72356141    -1.68408434
      5      C     3.55325853    -1.24659162    -0.23214807
      6      C     4.45185867    -1.05990203     0.93695139
      7      O     2.86933373    -2.39417598    -0.37585720
      8      H     5.44039463    -1.50829828     0.76022269
      9      H     4.59430508     0.01298930     1.10460114
     10      H     4.02567394    -1.51376139     1.83851589

Total System Charge              0.00000

 *** GO1_GOStep10 ***

 Energy gradients wrt nuclear displacements
 ==========================================

     Atom      Cartesian (a.u./angstrom)
                 X         Y         Z
 ----------------------------------------
     1 N    -0.000929  0.000580 -0.001412
     2 O     0.000200 -0.001389  0.000919
     3 C     0.000178  0.000213 -0.000191
     4 O     0.000018 -0.000094 -0.000033
     5 C    -0.000488  0.000710 -0.000189
     6 C     0.000408 -0.000335  0.000066
     7 O     0.000359 -0.000141  0.000858
     8 H     0.000078  0.000415  0.000053
     9 H    -0.000052  0.000087 -0.000032
    10 H     0.000227 -0.000044 -0.000041
 ----------------------------------------

 dE(predicted):    -0.15676E-04, dE(actual):    -0.65312E-05, Trust radius:    0.800000, all in a.u.
 
----------------------------------------------------------------------
Geometry Convergence after Step  10       (Hartree/Angstrom,Angstrom)
----------------------------------------------------------------------
current energy                               -2.21153866 Hartree
energy change                      -0.00000653     0.00010000    T
constrained gradient max            0.00152483     0.00010000    F
constrained gradient rms            0.00052331     0.00006667    F
gradient max                        0.00152483
gradient rms                        0.00052331
cart. step max                      0.02240961     0.01000000    F
cart. step rms                      0.00905724     0.00666667    F
 

--------
Geometry
--------
Formula: C3H3NO3
Atoms
  Index Symbol   x (angstrom)   y (angstrom)   z (angstrom)
      1      N     2.11632567    -2.41556722    -1.53371318
      2      O     2.32628940    -1.23547038    -2.12040856
      3      C     3.29731254    -0.37215739    -1.31308451
      4      O     3.61956285     0.73167460    -1.67652237
      5      C     3.55464243    -1.24607861    -0.23291377
      6      C     4.45238259    -1.06010434     0.93674944
      7      O     2.87882631    -2.39829044    -0.38179864
      8      H     5.43213771    -1.53070789     0.76865681
      9      H     4.61410607     0.01203202     1.09080754
     10      H     4.01474442    -1.49338035     1.84308726

Total System Charge              0.00000

 *** GO1_GOStep11 ***

 Energy gradients wrt nuclear displacements
 ==========================================

     Atom      Cartesian (a.u./angstrom)
                 X         Y         Z
 ----------------------------------------
     1 N     0.000102  0.001122 -0.000803
     2 O    -0.001021 -0.001522  0.000009
     3 C     0.001190  0.000235  0.000433
     4 O    -0.000244 -0.000075 -0.000217
     5 C    -0.000429  0.000079  0.000009
     6 C     0.000048 -0.000045  0.000030
     7 O     0.000102 -0.000170  0.000777
     8 H     0.000116  0.000205 -0.000288
     9 H    -0.000028  0.000200  0.000138
    10 H     0.000165 -0.000028 -0.000087
 ----------------------------------------
 
----------------------------------------------------------------------
Geometry Convergence after Step  11       (Hartree/Angstrom,Angstrom)
----------------------------------------------------------------------
current energy                               -2.21153915 Hartree
energy change                      -0.00000049     0.00010000    T
constrained gradient max            0.00142689     0.00010000    F
constrained gradient rms            0.00051629     0.00006667    F
gradient max                        0.00142689
gradient rms                        0.00051629
cart. step max                      0.04340822     0.01000000    F
cart. step rms                      0.01817582     0.00666667    F
 

--------
Geometry
--------
Formula: C3H3NO3
Atoms
  Index Symbol   x (angstrom)   y (angstrom)   z (angstrom)
      1      N     2.13416122    -2.42391849    -1.54319929
      2      O     2.32199379    -1.23738480    -2.12046639
      3      C     3.28820274    -0.36399886    -1.30376222
      4      O     3.59047509     0.74737601    -1.65958539
      5      C     3.55746879    -1.24582700    -0.23466200
      6      C     4.45364084    -1.06081933     0.93602205
      7      O     2.89735249    -2.40644480    -0.39400791
      8      H     5.41502283    -1.57411611     0.78756451
      9      H     4.65363272     0.00835270     1.06156964
     10      H     3.99437949    -1.45126931     1.85138700

Total System Charge              0.00000

 *** GO1_GOStep12 ***

 Energy gradients wrt nuclear displacements
 ==========================================

     Atom      Cartesian (a.u./angstrom)
                 X         Y         Z
 ----------------------------------------
     1 N     0.001414  0.001324  0.000667
     2 O    -0.002285 -0.001327 -0.001292
     3 C     0.002319  0.000264  0.001257
     4 O    -0.000490  0.000184 -0.000423
     5 C    -0.000424 -0.000763  0.000332
     6 C    -0.000387  0.000367 -0.000171
     7 O    -0.000377 -0.000143  0.000222
     8 H     0.000135 -0.000083 -0.000614
     9 H     0.000046  0.000199  0.000254
    10 H     0.000050 -0.000023 -0.000230
 ----------------------------------------

 dE(predicted):    -0.15050E-04, dE(actual):     0.53301E-05, Trust radius:    0.039982, all in a.u.
 
----------------------------------------------------------------------
Geometry Convergence after Step  12       (Hartree/Angstrom,Angstrom)
----------------------------------------------------------------------
current energy                               -2.21153382 Hartree
energy change                       0.00000533     0.00010000    T
constrained gradient max            0.00237712     0.00010000    F
constrained gradient rms            0.00085968     0.00006667    F
gradient max                        0.00237712
gradient rms                        0.00085968
cart. step max                      0.01064268     0.01000000    F
cart. step rms                      0.00438345     0.00666667    T
 

--------
Geometry
--------
Formula: C3H3NO3
Atoms
  Index Symbol   x (angstrom)   y (angstrom)   z (angstrom)
      1      N     2.13747427    -2.42567447    -1.54536416
      2      O     2.32178653    -1.23586667    -2.11996303
      3      C     3.28461153    -0.36316324    -1.30229255
      4      O     3.58391182     0.75031604    -1.65447599
      5      C     3.55885841    -1.24687598    -0.23553819
      6      C     4.45407514    -1.06113330     0.93577733
      7      O     2.90184817    -2.40878099    -0.39762387
      8      H     5.41148403    -1.58352796     0.79354264
      9      H     4.66237271     0.00728320     1.05339063
     10      H     3.98990738    -1.44062662     1.85340720

Total System Charge              0.00000

 *** GO1_GOStep13 ***

 Energy gradients wrt nuclear displacements
 ==========================================

     Atom      Cartesian (a.u./angstrom)
                 X         Y         Z
 ----------------------------------------
     1 N     0.001289  0.000663  0.001124
     2 O    -0.002040 -0.000750 -0.001466
     3 C     0.002023  0.000313  0.001152
     4 O    -0.000423  0.000087 -0.000349
     5 C    -0.000231 -0.000722  0.000375
     6 C    -0.000410  0.000355 -0.000134
     7 O    -0.000521 -0.000030 -0.000186
     8 H     0.000165 -0.000079 -0.000544
     9 H     0.000072  0.000182  0.000224
    10 H     0.000075 -0.000019 -0.000195
 ----------------------------------------

 dE(predicted):    -0.84817E-05, dE(actual):    -0.12337E-04, Trust radius:    0.079963, all in a.u.
 
----------------------------------------------------------------------
Geometry Convergence after Step  13       (Hartree/Angstrom,Angstrom)
----------------------------------------------------------------------
current energy                               -2.21154616 Hartree
energy change                      -0.00001234     0.00010000    T
constrained gradient max            0.00208054     0.00010000    F
constrained gradient rms            0.00076900     0.00006667    F
gradient max                        0.00208054
gradient rms                        0.00076900
cart. step max                      0.02086654     0.01000000    F
cart. step rms                      0.00852303     0.00666667    F
 

--------
Geometry
--------
Formula: C3H3NO3
Atoms
  Index Symbol   x (angstrom)   y (angstrom)   z (angstrom)
      1      N     2.14283604    -2.42830806    -1.54979587
      2      O     2.32469348    -1.23046286    -2.11801924
      3      C     3.27551823    -0.36336113    -1.30052865
      4      O     3.57177979     0.75484713    -1.64272280
      5      C     3.56133598    -1.25024224    -0.23723912
      6      C     4.45504009    -1.06203742     0.93490279
      7      O     2.90949930    -2.41365823    -0.40443163
      8      H     5.40550377    -1.60010582     0.80601245
      9      H     4.67770356     0.00503870     1.03533269
     10      H     3.98241976    -1.41976008     1.85734938

Total System Charge              0.00000

 *** GO1_GOStep14 ***

 Energy gradients wrt nuclear displacements
 ==========================================

     Atom      Cartesian (a.u./angstrom)
                 X         Y         Z
 ----------------------------------------
     1 N     0.000486 -0.000758  0.001587
     2 O    -0.000205  0.000485 -0.000502
     3 C     0.000337  0.000318  0.000159
     4 O    -0.000098 -0.000247 -0.000013
     5 C    -0.000007 -0.000132  0.000027
     6 C    -0.000101  0.000193 -0.000060
     7 O    -0.000802  0.000107 -0.001023
     8 H     0.000237  0.000089 -0.000150
     9 H     0.000024  0.000003 -0.000005
    10 H     0.000129 -0.000058 -0.000019
 ----------------------------------------

 dE(predicted):    -0.25046E-04, dE(actual):    -0.34021E-04, Trust radius:    0.159926, all in a.u.
 
----------------------------------------------------------------------
Geometry Convergence after Step  14       (Hartree/Angstrom,Angstrom)
----------------------------------------------------------------------
current energy                               -2.21158018 Hartree
energy change                      -0.00003402     0.00010000    T
constrained gradient max            0.00147488     0.00010000    F
constrained gradient rms            0.00044541     0.00006667    F
gradient max                        0.00147488
gradient rms                        0.00044541
cart. step max                      0.04455008     0.01000000    F
cart. step rms                      0.01816675     0.00666667    F
 

--------
Geometry
--------
Formula: C3H3NO3
Atoms
  Index Symbol   x (angstrom)   y (angstrom)   z (angstrom)
      1      N     2.15921347    -2.43540539    -1.56066519
      2      O     2.32343801    -1.22994154    -2.11743719
      3      C     3.26356260    -0.35744936    -1.29207089
      4      O     3.54270025     0.76832907    -1.62347309
      5      C     3.56401934    -1.25119412    -0.23896091
      6      C     4.45664549    -1.06310025     0.93404939
      7      O     2.92740059    -2.42179694    -0.41709686
      8      H     5.38677833    -1.64003575     0.82814956
      9      H     4.71646437    -0.00224573     1.00426619
     10      H     3.96610754    -1.37521000     1.86409900

Total System Charge              0.00000

 *** GO1_GOStep15 ***

 Energy gradients wrt nuclear displacements
 ==========================================

     Atom      Cartesian (a.u./angstrom)
                 X         Y         Z
 ----------------------------------------
     1 N     0.000692 -0.000788  0.001859
     2 O    -0.000159  0.000501 -0.000568
     3 C     0.000260  0.000206  0.000229
     4 O    -0.000103 -0.000296  0.000048
     5 C     0.000053  0.000158  0.000077
     6 C    -0.000381  0.000181  0.000089
     7 O    -0.000916  0.000166 -0.001472
     8 H     0.000363  0.000032 -0.000076
     9 H    -0.000044 -0.000102 -0.000129
    10 H     0.000235 -0.000057 -0.000057
 ----------------------------------------

 dE(predicted):    -0.15983E-04, dE(actual):    -0.16390E-04, Trust radius:    0.319853, all in a.u.
 
----------------------------------------------------------------------
Geometry Convergence after Step  15       (Hartree/Angstrom,Angstrom)
----------------------------------------------------------------------
current energy                               -2.21159657 Hartree
energy change                      -0.00001639     0.00010000    T
constrained gradient max            0.00178638     0.00010000    F
constrained gradient rms            0.00054296     0.00006667    F
gradient max                        0.00178638
gradient rms                        0.00054296
cart. step max                      0.09136390     0.01000000    F
cart. step rms                      0.03630902     0.00666667    F
 

--------
Geometry
--------
Formula: C3H3NO3
Atoms
  Index Symbol   x (angstrom)   y (angstrom)   z (angstrom)
      1      N     2.19136598    -2.44835803    -1.58286261
      2      O     2.32052321    -1.22917371    -2.11577669
      3      C     3.23985178    -0.34630993    -1.27506913
      4      O     3.48379270     0.79376934    -1.58463222
      5      C     3.57050557    -1.25342560    -0.24325634
      6      C     4.46032959    -1.06496485     0.93203365
      7      O     2.96375362    -2.43737549    -0.44207081
      8      H     5.34452239    -1.71532782     0.87561114
      9      H     4.79436770    -0.02303782     0.94491958
     10      H     3.93731748    -1.28384610     1.87196344

Total System Charge              0.00000

 *** GO1_GOStep16 ***

 Energy gradients wrt nuclear displacements
 ==========================================

     Atom      Cartesian (a.u./angstrom)
                 X         Y         Z
 ----------------------------------------
     1 N     0.000787 -0.000576  0.001521
     2 O    -0.000155  0.000100 -0.000489
     3 C     0.000258 -0.000244  0.000313
     4 O    -0.000221  0.000193  0.000034
     5 C     0.000050  0.000841 -0.000092
     6 C    -0.000069  0.000507  0.000260
     7 O    -0.001020 -0.000236 -0.001437
     8 H     0.000376 -0.000010  0.000140
     9 H    -0.000154 -0.000342 -0.000347
    10 H     0.000146 -0.000233  0.000096
 ----------------------------------------

 dE(predicted):    -0.25357E-04, dE(actual):    -0.62381E-05, Trust radius:    0.319853, all in a.u.
 
----------------------------------------------------------------------
Geometry Convergence after Step  16       (Hartree/Angstrom,Angstrom)
----------------------------------------------------------------------
current energy                               -2.21160281 Hartree
energy change                      -0.00000624     0.00010000    T
constrained gradient max            0.00149975     0.00010000    F
constrained gradient rms            0.00053183     0.00006667    F
gradient max                        0.00149975
gradient rms                        0.00053183
cart. step max                      0.01519682     0.01000000    F
cart. step rms                      0.00575149     0.00666667    T
 

--------
Geometry
--------
Formula: C3H3NO3
Atoms
  Index Symbol   x (angstrom)   y (angstrom)   z (angstrom)
      1      N     2.19576594    -2.44993754    -1.58669257
      2      O     2.31894467    -1.22776059    -2.11392870
      3      C     3.23560988    -0.34516661    -1.27233235
      4      O     3.47561866     0.79669577    -1.57829563
      5      C     3.57254190    -1.25485581    -0.24455468
      6      C     4.46097383    -1.06513407     0.93140944
      7      O     2.97083763    -2.44060504    -0.44657976
      8      H     5.33742849    -1.72609973     0.88384002
      9      H     4.80614483    -0.02653708     0.93617604
     10      H     3.93246417    -1.26864929     1.87181820

Total System Charge              0.00000

 *** GO1_GOStep17 ***

 Energy gradients wrt nuclear displacements
 ==========================================

     Atom      Cartesian (a.u./angstrom)
                 X         Y         Z
 ----------------------------------------
     1 N     0.000496 -0.000376  0.000901
     2 O     0.000037  0.000028 -0.000060
     3 C    -0.000042  0.000006  0.000150
     4 O    -0.000174 -0.000125  0.000071
     5 C     0.000172  0.000683 -0.000107
     6 C    -0.000028  0.000254  0.000141
     7 O    -0.000708 -0.000313 -0.000987
     8 H     0.000225  0.000042  0.000084
     9 H    -0.000083 -0.000070 -0.000217
    10 H     0.000105 -0.000130  0.000025
 ----------------------------------------

 dE(predicted):    -0.21964E-05, dE(actual):    -0.55987E-05, Trust radius:    0.319853, all in a.u.
 
----------------------------------------------------------------------
Geometry Convergence after Step  17       (Hartree/Angstrom,Angstrom)
----------------------------------------------------------------------
current energy                               -2.21160841 Hartree
energy change                      -0.00000560     0.00010000    T
constrained gradient max            0.00099468     0.00010000    F
constrained gradient rms            0.00034166     0.00006667    F
gradient max                        0.00099468
gradient rms                        0.00034166
cart. step max                      0.00129344     0.01000000    T
cart. step rms                      0.00052383     0.00666667    T
 

--------
Geometry
--------
Formula: C3H3NO3
Atoms
  Index Symbol   x (angstrom)   y (angstrom)   z (angstrom)
      1      N     2.19554084    -2.44982427    -1.58723200
      2      O     2.31814081    -1.22717673    -2.11317608
      3      C     3.23527681    -0.34538625    -1.27226830
      4      O     3.47573406     0.79653448    -1.57804694
      5      C     3.57311869    -1.25554237    -0.24485723
      6      C     4.46106345    -1.06506872     0.93119891
      7      O     2.97213107    -2.44122553    -0.44668887
      8      H     5.33694559    -1.72646445     0.88409371
      9      H     4.80667068    -0.02642909     0.93650772
     10      H     3.93170800    -1.26746706     1.87132908

Total System Charge              0.00000

 *** GO1_GOStep18 ***

 Energy gradients wrt nuclear displacements
 ==========================================

     Atom      Cartesian (a.u./angstrom)
                 X         Y         Z
 ----------------------------------------
     1 N     0.000179 -0.000151  0.000280
     2 O    -0.000007 -0.000001  0.000009
     3 C    -0.000210 -0.000120  0.000083
     4 O    -0.000084  0.000034 -0.000023
     5 C     0.000215  0.000243  0.000022
     6 C    -0.000012 -0.000063 -0.000002
     7 O    -0.000174 -0.000265 -0.000274
     8 H     0.000026  0.000151 -0.000047
     9 H    -0.000012  0.000140  0.000002
    10 H     0.000079  0.000031 -0.000050
 ----------------------------------------
 
----------------------------------------------------------------------
Geometry Convergence after Step  18       (Hartree/Angstrom,Angstrom)
----------------------------------------------------------------------
current energy                               -2.21160932 Hartree
energy change                      -0.00000092     0.00010000    T
constrained gradient max            0.00028482     0.00010000    F
constrained gradient rms            0.00012327     0.00006667    F
gradient max                        0.00028482
gradient rms                        0.00012327
cart. step max                      0.00464831     0.01000000    T
cart. step rms                      0.00178065     0.00666667    T
 

--------
Geometry
--------
Formula: C3H3NO3
Atoms
  Index Symbol   x (angstrom)   y (angstrom)   z (angstrom)
      1      N     2.19713453    -2.45040030    -1.58854406
      2      O     2.31811789    -1.22727055    -2.11322024
      3      C     3.23425771    -0.34488512    -1.27142992
      4      O     3.47272836     0.79772182    -1.57601796
      5      C     3.57324584    -1.25567429    -0.24494072
      6      C     4.46124346    -1.06514928     0.93106493
      7      O     2.97390896    -2.44184266    -0.44762754
      8      H     5.33458470    -1.72999907     0.88626133
      9      H     4.81049410    -0.02773181     0.93376702
     10      H     3.93061445    -1.26281875     1.87154716

Total System Charge              0.00000

 *** GO1_GOStep19 ***

 Energy gradients wrt nuclear displacements
 ==========================================

     Atom      Cartesian (a.u./angstrom)
                 X         Y         Z
 ----------------------------------------
     1 N     0.000091 -0.000050  0.000058
     2 O    -0.000052 -0.000079  0.000013
     3 C    -0.000097 -0.000082  0.000023
     4 O    -0.000163  0.000001  0.000011
     5 C     0.000099  0.000093  0.000037
     6 C     0.000004 -0.000067 -0.000043
     7 O     0.000030 -0.000132 -0.000010
     8 H     0.000046  0.000129 -0.000057
     9 H    -0.000025  0.000138  0.000006
    10 H     0.000067  0.000048 -0.000039
 ----------------------------------------
 
----------------------------------------------------------------------
Geometry Convergence after Step  19       (Hartree/Angstrom,Angstrom)
----------------------------------------------------------------------
current energy                               -2.21160938 Hartree
energy change                      -0.00000006     0.00010000    T
constrained gradient max            0.00011820     0.00010000    F
constrained gradient rms            0.00004541     0.00006667    T
gradient max                        0.00011820
gradient rms                        0.00004541
cart. step max                      0.00166296     0.01000000    T
cart. step rms                      0.00063873     0.00666667    T
 

--------
Geometry
--------
Formula: C3H3NO3
Atoms
  Index Symbol   x (angstrom)   y (angstrom)   z (angstrom)
      1      N     2.19663009    -2.45022784    -1.58822411
      2      O     2.31825062    -1.22732153    -2.11329160
      3      C     3.23468535    -0.34502948    -1.27171092
      4      O     3.47377638     0.79733103    -1.57669721
      5      C     3.57297392    -1.25560470    -0.24478247
      6      C     4.46115328    -1.06510205     0.93112123
      7      O     2.97321324    -2.44154771    -0.44713660
      8      H     5.33537797    -1.72877201     0.88533282
      9      H     4.80912009    -0.02729400     0.93464547
     10      H     3.93114907    -1.26448171     1.87160339

Total System Charge              0.00000

 *** GO1_GOStep20 ***

 Energy gradients wrt nuclear displacements
 ==========================================

     Atom      Cartesian (a.u./angstrom)
                 X         Y         Z
 ----------------------------------------
     1 N     0.000075 -0.000081  0.000041
     2 O    -0.000041 -0.000080  0.000041
     3 C    -0.000078 -0.000033  0.000012
     4 O    -0.000161 -0.000016  0.000013
     5 C     0.000041  0.000041  0.000011
     6 C     0.000027 -0.000013 -0.000046
     7 O     0.000061 -0.000071  0.000001
     8 H     0.000053  0.000126 -0.000052
     9 H    -0.000037  0.000096 -0.000008
    10 H     0.000060  0.000030 -0.000012
 ----------------------------------------
 
---------------------------------------------------------
Geometry Convergence after Step  20       ** CONVERGED **
---------------------------------------------------------
current energy                               -2.21160926 Hartree
energy change                       0.00000013     0.00010000    T
constrained gradient max            0.00006350     0.00010000    T
constrained gradient rms            0.00001985     0.00006667    T
gradient max                        0.00006350
gradient rms                        0.00001985
cart. step max                      0.00044764     0.01000000    T
cart. step rms                      0.00017299     0.00666667    T
 
Geometry optimization converged

Optimized geometry:

--------
Geometry
--------
Formula: C3H3NO3
Atoms
  Index Symbol   x (angstrom)   y (angstrom)   z (angstrom)
      1      N     2.19663009    -2.45022784    -1.58822411
      2      O     2.31825062    -1.22732153    -2.11329160
      3      C     3.23468535    -0.34502948    -1.27171092
      4      O     3.47377638     0.79733103    -1.57669721
      5      C     3.57297392    -1.25560470    -0.24478247
      6      C     4.46115328    -1.06510205     0.93112123
      7      O     2.97321324    -2.44154771    -0.44713660
      8      H     5.33537797    -1.72877201     0.88533282
      9      H     4.80912009    -0.02729400     0.93464547
     10      H     3.93114907    -1.26448171     1.87160339

Total System Charge              0.00000

Performing a single point calculation on the final geometry ...

 *** adf ***



 ===========================
 A T T A C H E D   F I L E S
 ===========================
  
 Restart/tmp/amstmp_c4_fragA_opt_kid0.1132637097/GO1_GOStep20.rkf*** GO1_GOStep20 ***



 ===============================
 M O D E L   P A R A M E T E R S
 ===============================
  
 DENSITY FUNCTIONAL POTENTIAL (scf)
    LDA:                               Exchange only                           == Not Default ==
    Gradient Corrections:              Becke88 LYP                             == Not Default ==

 SPIN  (restricted / unrestr.)
    Molecule:                          Restricted                               
    Fragments:                         Restricted                               

 OTHER ASPECTS
    Relativistic Corrections:          scalar (ZORA,MAPA)                       

    Nuclear Charge Density Model:      Point Charge Nuclei                      
    Core Treatment:                    Frozen Orbital(s)                        

    Hyperfine or Zeeman Interaction:   ---                                      

 Settings for Grimme D3 dispersion correction

      damping                        BJ
      s6                          1.000
      s8                          2.700
      a1                          0.430
      a2                          4.236

 Other (technical) parameters

      alpha                      14.000
      version                         4
 



 ===============
 G E O M E T R Y  ***  3D  Molecule  ***
 ===============
  

 ATOMS
 =====                            X Y Z                    CHARGE
                                (Angstrom)             Nucl     +Core       At.Mass
                       --------------------------    ----------------       -------
    1  N               2.1966   -2.4502   -1.5882      7.00      7.00       14.0031
    2  O               2.3183   -1.2273   -2.1133      8.00      8.00       15.9949
    3  C               3.2347   -0.3450   -1.2717      6.00      6.00       12.0000
    4  O               3.4738    0.7973   -1.5767      8.00      8.00       15.9949
    5  C               3.5730   -1.2556   -0.2448      6.00      6.00       12.0000
    6  C               4.4612   -1.0651    0.9311      6.00      6.00       12.0000
    7  O               2.9732   -2.4415   -0.4471      8.00      8.00       15.9949
    8  H               5.3354   -1.7288    0.8853      1.00      1.00        1.0078
    9  H               4.8091   -0.0273    0.9346      1.00      1.00        1.0078
   10  H               3.9311   -1.2645    1.8716      1.00      1.00        1.0078


 FRAGMENTS
 =========                                     Atoms in this Fragment     Cart. coord.s (Angstrom)
                                               -------------------------------------------------------
    1  N                                                 1  N            2.1966   -2.4502   -1.5882
    2  O                                                 2  O            2.3183   -1.2273   -2.1133
    3  O                                                 4  O            3.4738    0.7973   -1.5767
    4  O                                                 7  O            2.9732   -2.4415   -0.4471
    5  C                                                 3  C            3.2347   -0.3450   -1.2717
    6  C                                                 5  C            3.5730   -1.2556   -0.2448
    7  C                                                 6  C            4.4612   -1.0651    0.9311
    8  H                                                 8  H            5.3354   -1.7288    0.8853
    9  H                                                 9  H            4.8091   -0.0273    0.9346
   10  H                                                10  H            3.9311   -1.2645    1.8716


 Interatomic Distance Matrix (Angstrom)
 --------------------------------------

   1)     0.000
   2)     1.336   0.000
   3)     2.368   1.525   0.000
   4)     3.490   2.392   1.206   0.000
   5)     2.264   2.251   1.414   2.449   0.000
   6)     3.660   3.726   2.622   3.276   1.486   0.000
   7)     1.380   2.163   2.268   3.467   1.344   2.451   0.000
   8)     4.061   4.283   3.314   3.989   2.146   1.099   2.804   0.000
   9)     4.366   4.115   2.729   2.961   2.104   1.095   3.333   1.782   0.000
  10)     4.048   4.299   3.348   4.044   2.146   1.098   2.771   1.778   1.783   0.000

 Min. Distance =    1.0946
 Max. Distance =    4.3658



 =====================================
 S Y M M E T R Y ,   E L E C T R O N S
 =====================================
  
 Symmetry: NOSYM

 Irreducible Representations, including subspecies
 -------------------------------------------------
 A


 Configuration of Valence Electrons
 ==================================
 ( determined in the SCF procedure )

 Total:   52

 Net Charge: 0 (Nuclei minus Electrons)

 Aufbau principle for MO occupations will be applied through SCF cycle no.     100
 Thereafter, the program will assign electrons to MOs that are spatially
 similar to the occupied MOs in a "reference" cycle ("KeepOrbitals").
 The reference cycle is always the PREVIOUS cycle: it will evolve with
 the SCF procedure.
 ***************************************************************************************************



                                      ****************************************
                                      *  B U I L D : (Fragments, Functions)  *
                                      ****************************************
  



 =======
 S F O s  ***  (Symmetrized Fragment Orbitals)  ***
 =======
  
 SFOs are linear combinations of (valence) Fragment Orbitals (FOs), such that the SFOs transform as the
 irreducible representations of the (molecular) symmetry group. Each SFO is therefore characterized by
 an irrep of the molecule and by a few (or only one) generating FOs.
 The SFOs constitute a symmetry-adapted basis for the Fock matrix. The MO eigenvector coefficients in
 this basis provide a direct interpretation of the MOs in terms of Frontier Orbital Theory.

 The SFOs are combined with auxiliary Core Functions (CFs) to ensure orthogonalization on the (frozen)
 Core Orbitals (COs). The Core-orthogonalized SFOs (CSFOs) constitute the true Fock basis.

 The FOs, and hence also the (C)SFOs are combinations of the elementary basis functions (BAS). The basis
 functions that participate in the description of the SFOs depend on the irrep. The indices of the
 involved functions are printed below for each irrep.
 (The complete list of primitive basis functions is printed in another section)

 Total nr. of (C)SFOs (summation over all irreps) :   215

 NOTE: a (C)SFO that is defined as a combination of more than one FO is usually NOT normalized.



                                       === A ===
 Nr. of SFOs :  215
 Cartesian basis functions that participate in this irrep (total number =   246) :
      1     2     3     4     5     6     9    12     7    10
     13     8    11    14    15    16    17    18    19    20
     21    22    23    24    25    26    27    28    29    30
     31    32    33    34    35    36    39    42    37    40
     43    38    41    44    45    46    47    48    49    50
     51    52    53    54    55    56    57    58    59    60
     61    62    63    64    65    66    69    72    67    70
     73    68    71    74    75    76    77    78    79    80
     81    82    83    84    85    86    87    88    89    90
     91    92    93    94    95    96    99   102    97   100
    103    98   101   104   105   106   107   108   109   110
    111   112   113   114   115   116   117   118   119   120
    121   122   123   124   125   126   129   132   127   130
    133   128   131   134   135   136   137   138   139   140
    141   142   143   144   145   146   147   148   149   150
    151   152   153   154   155   156   159   162   157   160
    163   158   161   164   165   166   167   168   169   170
    171   172   173   174   175   176   177   178   179   180
    181   182   183   184   185   186   189   192   187   190
    193   188   191   194   195   196   197   198   199   200
    201   202   203   204   205   206   207   208   209   210
    211   212   213   214   215   216   217   218   219   220
    221   222   223   224   225   226   227   228   229   230
    231   232   233   234   235   236   237   238   239   240
    241   242   243   244   245   246

    SFO  (index         Fragment          Generating    Expansion in Fragment Orbitals
  indx  incl.CFs)   Occup   Orb.Energy   FragmentType  Coeff.   Orbital     on Fragment
 --------------------------------------------------------------------------------------
     1       1      2.000     -14.160 au  N             1.00      1 S               1
                        (    -385.319 eV)
     2       2      2.000      -0.678 au  N             1.00      2 S               1
                        (     -18.450 eV)
     3       3       --         0.517 au  N             1.00      3 S               1
                        (      14.073 eV)
     4       4       --         6.872 au  N             1.00      4 S               1
                        (     186.990 eV)
     5       5       --        63.432 au  N             1.00      5 S               1
                        (    1726.082 eV)
     6       6      1.000      -0.260 au  N             1.00      1 P:x             1
                        (      -7.062 eV)
     7       7       --         0.281 au  N             1.00      2 P:x             1
                        (       7.649 eV)
     8       8       --         3.275 au  N             1.00      3 P:x             1
                        (      89.105 eV)
     9       9      1.000      -0.260 au  N             1.00      1 P:y             1
                        (      -7.062 eV)
    10      10       --         0.281 au  N             1.00      2 P:y             1
                        (       7.649 eV)
    11      11       --         3.275 au  N             1.00      3 P:y             1
                        (      89.105 eV)
    12      12      1.000      -0.260 au  N             1.00      1 P:z             1
                        (      -7.062 eV)
    13      13       --         0.281 au  N             1.00      2 P:z             1
                        (       7.649 eV)
    14      14       --         3.275 au  N             1.00      3 P:z             1
                        (      89.105 eV)
    15      15       --         1.250 au  N             1.00      1 D:z2            1
                        (      34.005 eV)
    16      16       --         1.250 au  N             1.00      1 D:x2-y2         1
                        (      34.005 eV)
    17      17       --         1.250 au  N             1.00      1 D:xy            1
                        (      34.005 eV)
    18      18       --         1.250 au  N             1.00      1 D:xz            1
                        (      34.005 eV)
    19      19       --         1.250 au  N             1.00      1 D:yz            1
                        (      34.005 eV)
    20      20       --         4.013 au  N             1.00      1 F:z3            1
                        (     109.190 eV)
    21      21       --         4.013 au  N             1.00      1 F:z             1
                        (     109.190 eV)
    22      22       --         4.013 au  N             1.00      1 F:xyz           1
                        (     109.190 eV)
    23      23       --         4.013 au  N             1.00      1 F:z2x           1
                        (     109.190 eV)
    24      24       --         4.013 au  N             1.00      1 F:z2y           1
                        (     109.190 eV)
    25      25       --         4.013 au  N             1.00      1 F:x             1
                        (     109.190 eV)
    26      26       --         4.013 au  N             1.00      1 F:y             1
                        (     109.190 eV)
    27      27      2.000     -18.941 au  O             1.00      1 S               2
                        (    -515.403 eV)
    28      28      2.000      -0.876 au  O             1.00      2 S               2
                        (     -23.838 eV)
    29      29       --         0.791 au  O             1.00      3 S               2
                        (      21.524 eV)
    30      30       --        13.422 au  O             1.00      4 S               2
                        (     365.226 eV)
    31      31       --       121.561 au  O             1.00      5 S               2
                        (    3307.838 eV)
    32      32      1.333      -0.331 au  O             1.00      1 P:x             2
                        (      -9.020 eV)
    33      33       --         0.347 au  O             1.00      2 P:x             2
                        (       9.437 eV)
    34      34       --         3.820 au  O             1.00      3 P:x             2
                        (     103.939 eV)
    35      35      1.333      -0.331 au  O             1.00      1 P:y             2
                        (      -9.020 eV)
    36      36       --         0.347 au  O             1.00      2 P:y             2
                        (       9.437 eV)
    37      37       --         3.820 au  O             1.00      3 P:y             2
                        (     103.939 eV)
    38      38      1.333      -0.331 au  O             1.00      1 P:z             2
                        (      -9.020 eV)
    39      39       --         0.347 au  O             1.00      2 P:z             2
                        (       9.437 eV)
    40      40       --         3.820 au  O             1.00      3 P:z             2
                        (     103.939 eV)
    41      41       --         1.071 au  O             1.00      1 D:z2            2
                        (      29.134 eV)
    42      42       --         1.071 au  O             1.00      1 D:x2-y2         2
                        (      29.134 eV)
    43      43       --         1.071 au  O             1.00      1 D:xy            2
                        (      29.134 eV)
    44      44       --         1.071 au  O             1.00      1 D:xz            2
                        (      29.134 eV)
    45      45       --         1.071 au  O             1.00      1 D:yz            2
                        (      29.134 eV)
    46      46       --         3.359 au  O             1.00      1 F:z3            2
                        (      91.410 eV)
    47      47       --         3.359 au  O             1.00      1 F:z             2
                        (      91.410 eV)
    48      48       --         3.359 au  O             1.00      1 F:xyz           2
                        (      91.410 eV)
    49      49       --         3.359 au  O             1.00      1 F:z2x           2
                        (      91.410 eV)
    50      50       --         3.359 au  O             1.00      1 F:z2y           2
                        (      91.410 eV)
    51      51       --         3.359 au  O             1.00      1 F:x             2
                        (      91.410 eV)
    52      52       --         3.359 au  O             1.00      1 F:y             2
                        (      91.410 eV)
    53      53      2.000     -18.941 au  O             1.00      1 S               3
                        (    -515.403 eV)
    54      54      2.000      -0.876 au  O             1.00      2 S               3
                        (     -23.838 eV)
    55      55       --         0.791 au  O             1.00      3 S               3
                        (      21.524 eV)
    56      56       --        13.422 au  O             1.00      4 S               3
                        (     365.226 eV)
    57      57       --       121.561 au  O             1.00      5 S               3
                        (    3307.838 eV)
    58      58      1.333      -0.331 au  O             1.00      1 P:x             3
                        (      -9.020 eV)
    59      59       --         0.347 au  O             1.00      2 P:x             3
                        (       9.437 eV)
    60      60       --         3.820 au  O             1.00      3 P:x             3
                        (     103.939 eV)
    61      61      1.333      -0.331 au  O             1.00      1 P:y             3
                        (      -9.020 eV)
    62      62       --         0.347 au  O             1.00      2 P:y             3
                        (       9.437 eV)
    63      63       --         3.820 au  O             1.00      3 P:y             3
                        (     103.939 eV)
    64      64      1.333      -0.331 au  O             1.00      1 P:z             3
                        (      -9.020 eV)
    65      65       --         0.347 au  O             1.00      2 P:z             3
                        (       9.437 eV)
    66      66       --         3.820 au  O             1.00      3 P:z             3
                        (     103.939 eV)
    67      67       --         1.071 au  O             1.00      1 D:z2            3
                        (      29.134 eV)
    68      68       --         1.071 au  O             1.00      1 D:x2-y2         3
                        (      29.134 eV)
    69      69       --         1.071 au  O             1.00      1 D:xy            3
                        (      29.134 eV)
    70      70       --         1.071 au  O             1.00      1 D:xz            3
                        (      29.134 eV)
    71      71       --         1.071 au  O             1.00      1 D:yz            3
                        (      29.134 eV)
    72      72       --         3.359 au  O             1.00      1 F:z3            3
                        (      91.410 eV)
    73      73       --         3.359 au  O             1.00      1 F:z             3
                        (      91.410 eV)
    74      74       --         3.359 au  O             1.00      1 F:xyz           3
                        (      91.410 eV)
    75      75       --         3.359 au  O             1.00      1 F:z2x           3
                        (      91.410 eV)
    76      76       --         3.359 au  O             1.00      1 F:z2y           3
                        (      91.410 eV)
    77      77       --         3.359 au  O             1.00      1 F:x             3
                        (      91.410 eV)
    78      78       --         3.359 au  O             1.00      1 F:y             3
                        (      91.410 eV)
    79      79      2.000     -18.941 au  O             1.00      1 S               4
                        (    -515.403 eV)
    80      80      2.000      -0.876 au  O             1.00      2 S               4
                        (     -23.838 eV)
    81      81       --         0.791 au  O             1.00      3 S               4
                        (      21.524 eV)
    82      82       --        13.422 au  O             1.00      4 S               4
                        (     365.226 eV)
    83      83       --       121.561 au  O             1.00      5 S               4
                        (    3307.838 eV)
    84      84      1.333      -0.331 au  O             1.00      1 P:x             4
                        (      -9.020 eV)
    85      85       --         0.347 au  O             1.00      2 P:x             4
                        (       9.437 eV)
    86      86       --         3.820 au  O             1.00      3 P:x             4
                        (     103.939 eV)
    87      87      1.333      -0.331 au  O             1.00      1 P:y             4
                        (      -9.020 eV)
    88      88       --         0.347 au  O             1.00      2 P:y             4
                        (       9.437 eV)
    89      89       --         3.820 au  O             1.00      3 P:y             4
                        (     103.939 eV)
    90      90      1.333      -0.331 au  O             1.00      1 P:z             4
                        (      -9.020 eV)
    91      91       --         0.347 au  O             1.00      2 P:z             4
                        (       9.437 eV)
    92      92       --         3.820 au  O             1.00      3 P:z             4
                        (     103.939 eV)
    93      93       --         1.071 au  O             1.00      1 D:z2            4
                        (      29.134 eV)
    94      94       --         1.071 au  O             1.00      1 D:x2-y2         4
                        (      29.134 eV)
    95      95       --         1.071 au  O             1.00      1 D:xy            4
                        (      29.134 eV)
    96      96       --         1.071 au  O             1.00      1 D:xz            4
                        (      29.134 eV)
    97      97       --         1.071 au  O             1.00      1 D:yz            4
                        (      29.134 eV)
    98      98       --         3.359 au  O             1.00      1 F:z3            4
                        (      91.410 eV)
    99      99       --         3.359 au  O             1.00      1 F:z             4
                        (      91.410 eV)
   100     100       --         3.359 au  O             1.00      1 F:xyz           4
                        (      91.410 eV)
   101     101       --         3.359 au  O             1.00      1 F:z2x           4
                        (      91.410 eV)
   102     102       --         3.359 au  O             1.00      1 F:z2y           4
                        (      91.410 eV)
   103     103       --         3.359 au  O             1.00      1 F:x             4
                        (      91.410 eV)
   104     104       --         3.359 au  O             1.00      1 F:y             4
                        (      91.410 eV)
   105     105      2.000     -10.066 au  C             1.00      1 S               5
                        (    -273.921 eV)
   106     106      2.000      -0.501 au  C             1.00      2 S               5
                        (     -13.620 eV)
   107     107       --         0.373 au  C             1.00      3 S               5
                        (      10.158 eV)
   108     108       --         5.405 au  C             1.00      4 S               5
                        (     147.073 eV)
   109     109       --        49.848 au  C             1.00      5 S               5
                        (    1356.422 eV)
   110     110      0.667      -0.193 au  C             1.00      1 P:x             5
                        (      -5.239 eV)
   111     111       --         0.169 au  C             1.00      2 P:x             5
                        (       4.589 eV)
   112     112       --         2.013 au  C             1.00      3 P:x             5
                        (      54.789 eV)
   113     113      0.667      -0.193 au  C             1.00      1 P:y             5
                        (      -5.239 eV)
   114     114       --         0.169 au  C             1.00      2 P:y             5
                        (       4.589 eV)
   115     115       --         2.013 au  C             1.00      3 P:y             5
                        (      54.789 eV)
   116     116      0.667      -0.193 au  C             1.00      1 P:z             5
                        (      -5.239 eV)
   117     117       --         0.169 au  C             1.00      2 P:z             5
                        (       4.589 eV)
   118     118       --         2.013 au  C             1.00      3 P:z             5
                        (      54.789 eV)
   119     119       --         1.243 au  C             1.00      1 D:z2            5
                        (      33.824 eV)
   120     120       --         1.243 au  C             1.00      1 D:x2-y2         5
                        (      33.824 eV)
   121     121       --         1.243 au  C             1.00      1 D:xy            5
                        (      33.824 eV)
   122     122       --         1.243 au  C             1.00      1 D:xz            5
                        (      33.824 eV)
   123     123       --         1.243 au  C             1.00      1 D:yz            5
                        (      33.824 eV)
   124     124       --         4.016 au  C             1.00      1 F:z3            5
                        (     109.271 eV)
   125     125       --         4.016 au  C             1.00      1 F:z             5
                        (     109.271 eV)
   126     126       --         4.016 au  C             1.00      1 F:xyz           5
                        (     109.271 eV)
   127     127       --         4.016 au  C             1.00      1 F:z2x           5
                        (     109.271 eV)
   128     128       --         4.016 au  C             1.00      1 F:z2y           5
                        (     109.271 eV)
   129     129       --         4.016 au  C             1.00      1 F:x             5
                        (     109.271 eV)
   130     130       --         4.016 au  C             1.00      1 F:y             5
                        (     109.271 eV)
   131     131      2.000     -10.066 au  C             1.00      1 S               6
                        (    -273.921 eV)
   132     132      2.000      -0.501 au  C             1.00      2 S               6
                        (     -13.620 eV)
   133     133       --         0.373 au  C             1.00      3 S               6
                        (      10.158 eV)
   134     134       --         5.405 au  C             1.00      4 S               6
                        (     147.073 eV)
   135     135       --        49.848 au  C             1.00      5 S               6
                        (    1356.422 eV)
   136     136      0.667      -0.193 au  C             1.00      1 P:x             6
                        (      -5.239 eV)
   137     137       --         0.169 au  C             1.00      2 P:x             6
                        (       4.589 eV)
   138     138       --         2.013 au  C             1.00      3 P:x             6
                        (      54.789 eV)
   139     139      0.667      -0.193 au  C             1.00      1 P:y             6
                        (      -5.239 eV)
   140     140       --         0.169 au  C             1.00      2 P:y             6
                        (       4.589 eV)
   141     141       --         2.013 au  C             1.00      3 P:y             6
                        (      54.789 eV)
   142     142      0.667      -0.193 au  C             1.00      1 P:z             6
                        (      -5.239 eV)
   143     143       --         0.169 au  C             1.00      2 P:z             6
                        (       4.589 eV)
   144     144       --         2.013 au  C             1.00      3 P:z             6
                        (      54.789 eV)
   145     145       --         1.243 au  C             1.00      1 D:z2            6
                        (      33.824 eV)
   146     146       --         1.243 au  C             1.00      1 D:x2-y2         6
                        (      33.824 eV)
   147     147       --         1.243 au  C             1.00      1 D:xy            6
                        (      33.824 eV)
   148     148       --         1.243 au  C             1.00      1 D:xz            6
                        (      33.824 eV)
   149     149       --         1.243 au  C             1.00      1 D:yz            6
                        (      33.824 eV)
   150     150       --         4.016 au  C             1.00      1 F:z3            6
                        (     109.271 eV)
   151     151       --         4.016 au  C             1.00      1 F:z             6
                        (     109.271 eV)
   152     152       --         4.016 au  C             1.00      1 F:xyz           6
                        (     109.271 eV)
   153     153       --         4.016 au  C             1.00      1 F:z2x           6
                        (     109.271 eV)
   154     154       --         4.016 au  C             1.00      1 F:z2y           6
                        (     109.271 eV)
   155     155       --         4.016 au  C             1.00      1 F:x             6
                        (     109.271 eV)
   156     156       --         4.016 au  C             1.00      1 F:y             6
                        (     109.271 eV)
   157     157      2.000     -10.066 au  C             1.00      1 S               7
                        (    -273.921 eV)
   158     158      2.000      -0.501 au  C             1.00      2 S               7
                        (     -13.620 eV)
   159     159       --         0.373 au  C             1.00      3 S               7
                        (      10.158 eV)
   160     160       --         5.405 au  C             1.00      4 S               7
                        (     147.073 eV)
   161     161       --        49.848 au  C             1.00      5 S               7
                        (    1356.422 eV)
   162     162      0.667      -0.193 au  C             1.00      1 P:x             7
                        (      -5.239 eV)
   163     163       --         0.169 au  C             1.00      2 P:x             7
                        (       4.589 eV)
   164     164       --         2.013 au  C             1.00      3 P:x             7
                        (      54.789 eV)
   165     165      0.667      -0.193 au  C             1.00      1 P:y             7
[...]
                                    7.26%     1 P:z            -9.020  1.33     4 O
                                    6.41%     2 P:z             4.589  0.00     6 C
                                    5.76%     1 P:x            -5.239  0.67     5 C
                                    5.04%     1 P:x            -7.062  1.00     1 N
                                    4.70%     1 P:x            -5.239  0.67     7 C
                                    3.93%     1 P:y            -7.062  1.00     1 N
                                    3.69%     2 S             -23.838  2.00     2 O
                                    3.54%     1 P:x            -9.020  1.33     4 O
                                   -3.34%     3 S              21.524  0.00     2 O
                                    2.83%     2 S               2.394  0.00     9 H
                                    2.82%     2 S             -13.620  2.00     6 C
                                    2.80%     1 P:z            -9.020  1.33     3 O
                                    2.76%     2 S             -23.838  2.00     4 O
                                    2.68%     2 P:z             4.589  0.00     7 C
                                   -2.63%     3 S              14.073  0.00     1 N
                                    2.56%     2 S             -13.620  2.00     5 C
                                   -2.50%     3 S              10.158  0.00     6 C
                                    2.34%     1 P:z            -5.239  0.67     6 C
                                    2.19%     2 S             -18.450  2.00     1 N
                                    2.08%     1 P:x            -9.020  1.33     3 O
                                    1.67%     2 P:y             4.589  0.00     5 C
                                    1.61%     2 S             -13.620  2.00     7 C
                                    1.08%     2 P:x             4.589  0.00     6 C
       0.874  0.00    31 A         41.49%     1 S              -6.532  1.00     9 H
                                  -28.42%     2 P:y             4.589  0.00     7 C
                                   15.65%     1 S              -6.532  1.00    10 H
                                    9.46%     1 S              -6.532  1.00     8 H
                                    9.31%     1 P:y            -5.239  0.67     7 C
                                    8.16%     2 S               2.394  0.00     9 H
                                    6.08%     1 P:z            -7.062  1.00     1 N
                                    5.38%     2 S               2.394  0.00    10 H
                                    4.96%     1 P:x            -7.062  1.00     1 N
                                    4.74%     2 P:y             4.589  0.00     6 C
                                    3.45%     1 P:z            -9.020  1.33     4 O
                                    2.76%     2 S               2.394  0.00     8 H
                                    2.70%     2 P:z             4.589  0.00     6 C
                                   -2.45%     2 P:z             4.589  0.00     7 C
                                    2.21%     2 S             -13.620  2.00     5 C
                                    2.02%     2 P:y             4.589  0.00     5 C
                                    2.02%     1 P:z            -9.020  1.33     2 O
                                    1.94%     2 S             -23.838  2.00     4 O
                                    1.89%     2 S             -18.450  2.00     1 N
                                    1.69%     1 P:y            -7.062  1.00     1 N
                                   -1.13%     3 S              21.524  0.00     3 O
                                    1.08%     2 P:z             4.589  0.00     5 C
                                   -1.02%     3 S              21.524  0.00     4 O
       1.069  0.00    32 A         29.15%     2 S               2.394  0.00     8 H
                                   28.13%     1 S              -6.532  1.00     8 H
                                   25.14%     2 S               2.394  0.00    10 H
                                   24.24%     1 S              -6.532  1.00    10 H
                                  -23.56%     2 P:x             4.589  0.00     7 C
                                  -11.59%     2 P:z             4.589  0.00     7 C
                                    4.86%     1 P:x            -5.239  0.67     6 C
                                    4.47%     2 P:x             4.589  0.00     6 C
                                   -4.20%     2 P:y             4.589  0.00     7 C
                                    2.89%     3 S              40.869  0.00     8 H
                                    2.52%     3 S              40.869  0.00    10 H
                                    2.26%     1 P:x            -5.239  0.67     7 C
                                    2.23%     1 P:z            -5.239  0.67     6 C
                                    1.80%     2 P:z             4.589  0.00     6 C
                                    1.57%     1 P:x            -5.239  0.67     5 C
                                    1.25%     1 P:z            -5.239  0.67     7 C
                                    1.02%     1 P:z            -5.239  0.67     5 C
                                    1.00%     1 P:y            -5.239  0.67     6 C
       1.355  0.00    33 A         24.27%     1 P:y            -5.239  0.67     6 C
                                    9.94%     2 P:y             4.589  0.00     6 C
                                    9.84%     1 P:x            -5.239  0.67     6 C
                                    9.15%     2 P:x             4.589  0.00     7 C
                                    8.15%     2 P:z             4.589  0.00     7 C
                                    7.87%     1 P:y            -9.020  1.33     2 O
                                    7.35%     2 S               2.394  0.00     9 H
                                   -7.18%     3 S              21.524  0.00     4 O
                                    6.52%     1 P:z            -7.062  1.00     1 N
                                    5.94%     1 P:y            -5.239  0.67     5 C
                                   -5.04%     3 S              14.073  0.00     1 N
                                    5.03%     2 P:y             4.589  0.00     5 C
                                    3.91%     1 P:y            -7.062  1.00     1 N
                                    3.91%     1 P:z            -5.239  0.67     7 C
                                   -3.79%     2 S             -13.620  2.00     6 C
                                    3.57%     2 P:x             4.589  0.00     6 C
                                    3.22%     2 S             -23.838  2.00     4 O
                                   -2.91%     2 P:y             4.589  0.00     7 C
                                   -2.49%     3 S              10.158  0.00     6 C
                                    2.43%     1 P:z            -5.239  0.67     6 C
                                    2.25%     1 P:x            -5.239  0.67     7 C
                                    2.20%     1 P:y            -9.020  1.33     4 O
                                    1.81%     1 P:x            -9.020  1.33     2 O
                                   -1.65%     3 S              10.158  0.00     7 C
                                    1.39%     2 S             -13.620  2.00     7 C
                                   -1.10%     1 S              -6.532  1.00    10 H
                                   -1.10%     1 S              -6.532  1.00     8 H
                                   -1.07%     1 P:y            -5.239  0.67     7 C
                                    1.07%     2 S               2.394  0.00    10 H
                                    1.05%     1 P:x            -5.239  0.67     5 C
                                   -1.00%     3 S              21.524  0.00     3 O
       1.447  0.00    34 A         13.99%     1 S              -6.532  1.00     9 H
                                   12.98%     2 S               2.394  0.00     9 H
                                   12.06%     2 P:z             4.589  0.00     7 C
                                   11.92%     1 P:y            -7.062  1.00     1 N
                                    9.00%     2 P:x             4.589  0.00     7 C
                                    8.57%     1 P:y            -9.020  1.33     2 O
                                    8.53%     2 S             -18.450  2.00     1 N
                                    7.51%     1 P:z            -9.020  1.33     4 O
                                    7.27%     2 P:z             4.589  0.00     6 C
                                    4.88%     1 P:x            -9.020  1.33     4 O
                                    4.17%     1 P:x            -7.062  1.00     1 N
                                   -4.11%     2 S               2.394  0.00    10 H
                                    3.83%     2 P:z             4.589  0.00     5 C
                                   -3.71%     2 S               2.394  0.00     8 H
                                   -3.41%     2 S             -13.620  2.00     5 C
                                   -3.18%     3 S              14.073  0.00     1 N
                                   -3.12%     3 S              10.158  0.00     6 C
                                    2.98%     1 P:z            -5.239  0.67     7 C
                                    2.78%     1 P:y            -5.239  0.67     6 C
                                    2.67%     2 P:x             4.589  0.00     6 C
                                   -2.64%     3 S              10.158  0.00     5 C
                                    2.53%     2 S             -13.620  2.00     6 C
                                    2.42%     1 P:z            -5.239  0.67     6 C
                                   -2.32%     3 S              21.524  0.00     2 O
                                   -2.28%     3 S              10.158  0.00     7 C
                                    2.04%     1 P:y            -5.239  0.67     5 C
                                   -1.81%     2 P:z             9.437  0.00     4 O
                                    1.80%     1 P:z            -9.020  1.33     2 O
                                    1.75%     2 S             -23.838  2.00     2 O
                                   -1.49%     2 P:y             4.589  0.00     6 C
                                   -1.21%     3 S              21.524  0.00     3 O
                                    1.02%     1 P:z            -7.062  1.00     1 N
                                    1.02%     1 P:y            11.051  0.00     9 H

 Energy gradients wrt nuclear displacements
 ==========================================

     Atom      Cartesian (a.u./angstrom)
                 X         Y         Z
 ----------------------------------------
     1 N     0.000075 -0.000082  0.000041
     2 O    -0.000041 -0.000079  0.000040
     3 C    -0.000077 -0.000033  0.000012
     4 O    -0.000161 -0.000016  0.000014
     5 C     0.000041  0.000040  0.000011
     6 C     0.000027 -0.000013 -0.000046
     7 O     0.000061 -0.000070  0.000001
     8 H     0.000052  0.000126 -0.000052
     9 H    -0.000037  0.000096 -0.000008
    10 H     0.000060  0.000030 -0.000012
 ----------------------------------------



 =======================================================================
 Electrostatic potential at the Nuclei due to electrons and other nuclei
 =======================================================================
  
         Atom                  Potential
         ----                  ---------
     1)   N                  18.29340297
     2)   O                  22.29034688
     3)   C                  14.65249646
     4)   O                  22.39448119
     5)   C                  14.67929173
     6)   C                  14.74217104
     7)   O                  22.24974437
     8)   H                   1.06981576
     9)   H                   1.07048859
    10)   H                   1.06967522
 Mulliken charges used for AMS results%charges...


    =====================
     CALCULATION RESULTS
    =====================

Energy (hartree)            -2.21160925

Gradients (hartree/bohr)
  Index   Atom            d/dx            d/dy            d/dz
      1      N    0.0000394564   -0.0000434189    0.0000215229
      2      O   -0.0000217016   -0.0000420686    0.0000214310
      3      C   -0.0000409121   -0.0000172486    0.0000062726
      4      O   -0.0000853156   -0.0000085590    0.0000072375
      5      C    0.0000218512    0.0000212394    0.0000057264
      6      C    0.0000142982   -0.0000066549   -0.0000245747
      7      O    0.0000324283   -0.0000370561    0.0000007233
      8      H    0.0000277515    0.0000668358   -0.0000274799
      9      H   -0.0000194610    0.0000508151   -0.0000044230
     10      H    0.0000316048    0.0000161157   -0.0000064362


--------------
Atomic charges
--------------
  Index   Atom    Charge
      1      N    0.2197
      2      O   -0.3064
      3      C    0.5524
      4      O   -0.5159
      5      C    0.1789
      6      C    0.6045
      7      O   -0.2779
      8      H   -0.1469
      9      H   -0.1596
     10      H   -0.1487


Dipole moment vector    (Debye):     1.44917088   -1.51853723    2.98677134
              magnitude (Debye):     3.65059647


-----------------------
Molecular orbitals info
-----------------------
n orbitals:              215
n spin:                    1

Note: only printing virtual orbitals with
      energy smaller than HOMO + 100. eV

HOMO (eV):              -5.9397
LUMO (eV):              -3.8720
HOMO-LUMO gap (eV):      2.0677

   Index   Energy (eV)    Occupation
     136       93.8913         0.000       
     135       93.5922         0.000       
     134       92.5979         0.000       
     133       92.3119         0.000       
     132       92.0050         0.000       
     131       91.7146         0.000       
     130       88.7402         0.000       
     129       88.1607         0.000       
     128       87.1478         0.000       
     127       86.5832         0.000       
     126       84.3037         0.000       
     125       83.3020         0.000       
     124       83.0740         0.000       
     123       81.0244         0.000       
     122       79.4386         0.000       
     121       77.4927         0.000       
     120       77.1746         0.000       
     119       76.8187         0.000       
     118       75.5767         0.000       
     117       73.8434         0.000       
     116       72.3368         0.000       
     115       70.3722         0.000       
     114       69.8855         0.000       
     113       66.6980         0.000       
     112       66.2088         0.000       
     111       64.4289         0.000       
     110       64.2224         0.000       
     109       63.0246         0.000       
     108       61.5938         0.000       
     107       61.3095         0.000       
     106       59.1389         0.000       
     105       57.1313         0.000       
     104       55.8765         0.000       
     103       54.9567         0.000       
     102       54.5310         0.000       
     101       52.5477         0.000       
     100       51.6394         0.000       
      99       51.2782         0.000       
      98       50.5076         0.000       
      97       50.1779         0.000       
      96       48.8603         0.000       
      95       48.5420         0.000       
      94       47.7597         0.000       
      93       46.1014         0.000       
      92       45.2308         0.000       
      91       43.8571         0.000       
      90       43.0366         0.000       
      89       42.3250         0.000       
      88       41.7490         0.000       
      87       41.5444         0.000       
      86       40.5759         0.000       
      85       39.9501         0.000       
      84       38.4805         0.000       
      83       36.8237         0.000       
      82       36.4769         0.000       
      81       33.6124         0.000       
      80       32.5089         0.000       
      79       31.8136         0.000       
      78       31.2392         0.000       
      77       30.7793         0.000       
      76       29.7960         0.000       
      75       29.0517         0.000       
      74       27.8824         0.000       
      73       27.7604         0.000       
      72       26.6658         0.000       
      71       26.1455         0.000       
      70       25.6211         0.000       
      69       25.5266         0.000       
      68       24.9963         0.000       
      67       23.4370         0.000       
      66       22.5562         0.000       
      65       21.3709         0.000       
      64       20.5195         0.000       
      63       19.8351         0.000       
      62       19.2749         0.000       
      61       17.9526         0.000       
      60       17.2520         0.000       
      59       16.7067         0.000       
      58       15.3828         0.000       
      57       15.3146         0.000       
      56       14.3527         0.000       
      55       13.7094         0.000       
      54       13.6822         0.000       
      53       12.2357         0.000       
      52       10.9115         0.000       
      51        9.8702         0.000       
      50        9.7013         0.000       
      49        9.0572         0.000       
      48        8.8072         0.000       
      47        8.6859         0.000       
      46        7.5740         0.000       
      45        7.5320         0.000       
      44        7.2689         0.000       
      43        6.5834         0.000       
      42        6.0817         0.000       
      41        5.5724         0.000       
      40        5.1501         0.000       
      39        4.0556         0.000       
      38        3.9026         0.000       
      37        3.3310         0.000       
      36        3.1568         0.000       
      35        2.2883         0.000       
      34        1.4475         0.000       
      33        1.3546         0.000       
      32        1.0688         0.000       
      31        0.8738         0.000       
      30        0.3905         0.000       
      29       -0.2500         0.000       
      28       -0.5853         0.000       
      27       -3.8720         0.000 < LUMO
      26       -5.9397         2.000 < HOMO
      25       -7.2629         2.000       
      24       -9.5078         2.000       
      23       -9.7534         2.000       
      22      -10.2378         2.000       
      21      -10.4600         2.000       
      20      -10.6010         2.000       
      19      -11.1827         2.000       
      18      -11.3312         2.000       
      17      -11.4284         2.000       
      16      -13.1075         2.000       
      15      -13.3693         2.000       
      14      -16.2902         2.000       
      13      -17.3448         2.000       
      12      -18.9073         2.000       
      11      -21.3870         2.000       
      10      -26.4161         2.000       
       9      -27.5566         2.000       
       8      -31.0963         2.000       
       7     -271.1599         2.000       
       6     -272.9565         2.000       
       5     -273.7771         2.000       
       4     -385.5862         2.000       
       3     -511.6617         2.000       
       2     -514.6282         2.000       
       1     -515.6519         2.000       

AMS application finished. Exiting.
NORMAL TERMINATION
     Total cpu time:     333.80
  Total system time:       1.68
 Total elapsed time:     337.44
NORMAL TERMINATION
