
 *******************************************************************************
 *                                                                             *
 *  --------------------------------                                           *
 *   Amsterdam Modeling Suite (AMS)              2026.103                      *
 *  --------------------------------                                           *
 *                                               r260501 2026-05-01 873454b5   *
 *                                                                             *
 *                                                                             *
 *                              =================                              *
 *                              |               |                              *
 *                              |     A M S     |                              *
 *                              |               |                              *
 *                              =================                              *
 *                                                                             *
 *                                                                             *
 *   Online information and documentation:  https://www.scm.com/support/       *
 *   E-mail:  support@scm.com   info@scm.com                                   *
 *                                                                             *
 *   Scientific publications using AMS results must be properly referenced     *
 *   See the User Manuals (or the web site) for recommended citations          *
 *   The terms and conditions of the End User License Agreement apply to       *
 *   the use of AMS, https://www.scm.com/license-terms/                        *
 *                                                                             *
 **********************  x86_64_linux_intel / intelmpi  ************************
 
 Licensed to: Jong-June Jeon / University of Seoul 2026-05-13 16:10:32
 SCM User ID: u30731
  
 AMS 2026.103  RunTime: May23-2026 13:34:23  ShM Nodes: 1  Procs: 1

 AMS jobname: frag1
 AMS jobid  : 1192589084

 Start   directory: /gpfs/tmp_cpu2/yeseo1ee_plams/no2_batch/plams_no2/no2_eda/frag1/
 Results directory: /gpfs/tmp_cpu2/yeseo1ee_plams/no2_batch/plams_no2/no2_eda/frag1/
 Scratch directory: /tmp/amstmp_frag1_kid0.1192589084/

 RNG seed: 1043018100 1310665091 -1866514362 1445949368 2142376999 -1815578943 -467882164 -1338680446



                      ************************************************************************
                      *  ADF 2026.103  RunTime: May23-2026 13:34:23  ShM Nodes: 1  Procs: 1  *
                      ************************************************************************
  

       ****************************
       * SINGLE POINT CALCULATION *
       ****************************

--------
Geometry
--------
Formula: C2H2NO3
Atoms
  Index Symbol   x (angstrom)   y (angstrom)   z (angstrom)
      1      C    -1.24519590     0.10939853    -0.91868397
      2      C    -1.10493965    -0.32621554     0.36685381
      3      N    -1.41741806     0.70680147     1.43348742
      4      O    -2.27224909     1.53244478     1.18975521
      5      O    -0.77388868     0.64536715     2.45725139
      6      O    -0.46715316    -1.32576425     0.75672561
      7      H    -1.79619478     1.01317810    -1.12759914
      8      H    -1.13863830    -0.62027347    -1.70440652

Total System Charge              0.00000


----------------
ADF Engine Input
----------------
 
   basis
     core None
     type TZ2P
   End
   numericalquality Good
   relativity
     level Scalar
   End
   scf
     mixing 0.05
   End
   spinpolarization 1
   symmetry NOSYM
   unrestricted yes
   xc
     dispersion Grimme3 BJDAMP
     gga BLYP
   End
 

 Title: *** (NO TITLE) ***

 *** adf ***



 ===========================
 A T T A C H E D   F I L E S
 ===========================
  



 ===============================
 M O D E L   P A R A M E T E R S
 ===============================
  
 DENSITY FUNCTIONAL POTENTIAL (scf)
    LDA:                               Exchange only                           == Not Default ==
    Gradient Corrections:              Becke88 LYP                             == Not Default ==

 SPIN  (restricted / unrestr.)
    Molecule:                          UNrestricted                            == Not Default ==
    Fragments:                         Restricted                               

 OTHER ASPECTS
    Relativistic Corrections:          scalar (ZORA,MAPA)                       

    Nuclear Charge Density Model:      Point Charge Nuclei                      
    Core Treatment:                    Frozen Orbital(s)                        

    Hyperfine or Zeeman Interaction:   ---                                      

 Settings for Grimme D3 dispersion correction

      damping                        BJ
      s6                          1.000
      s8                          2.700
      a1                          0.430
      a2                          4.236

 Other (technical) parameters

      alpha                      14.000
      version                         4
 


 Fragment File(s)
 ----------------
 C:
         file : /gpfs/tmp_cpu2/yeseo1ee_plams/no2_batch/plams_no2/no2_eda/frag1/t21.7F7683F6.C
         jobid: 0
         title: Carbon (TZ2P)
 N:
         file : /gpfs/tmp_cpu2/yeseo1ee_plams/no2_batch/plams_no2/no2_eda/frag1/t21.53EBC72C.N
         jobid: 0
         title: Nitrogen (TZ2P)
 O:
         file : /gpfs/tmp_cpu2/yeseo1ee_plams/no2_batch/plams_no2/no2_eda/frag1/t21.1075635D.O
         jobid: 0
         title: Oxygen (TZ2P)
 H:
         file : /gpfs/tmp_cpu2/yeseo1ee_plams/no2_batch/plams_no2/no2_eda/frag1/t21.5DE63076.H
         jobid: 0
         title: Hydrogen (TZ2P)



 ===============
 G E O M E T R Y  ***  3D  Molecule  ***
 ===============
  

 ATOMS
 =====                            X Y Z                    CHARGE
                                (Angstrom)             Nucl     +Core       At.Mass
                       --------------------------    ----------------       -------
    1  C              -1.2452    0.1094   -0.9187      6.00      6.00       12.0000
    2  C              -1.1049   -0.3262    0.3669      6.00      6.00       12.0000
    3  N              -1.4174    0.7068    1.4335      7.00      7.00       14.0031
    4  O              -2.2722    1.5324    1.1898      8.00      8.00       15.9949
    5  O              -0.7739    0.6454    2.4573      8.00      8.00       15.9949
    6  O              -0.4672   -1.3258    0.7567      8.00      8.00       15.9949
    7  H              -1.7962    1.0132   -1.1276      1.00      1.00        1.0078
    8  H              -1.1386   -0.6203   -1.7044      1.00      1.00        1.0078


 FRAGMENTS
 =========                                     Atoms in this Fragment     Cart. coord.s (Angstrom)
                                               -------------------------------------------------------
    1  C                                                 1  C           -1.2452    0.1094   -0.9187
    2  C                                                 2  C           -1.1049   -0.3262    0.3669
    3  N                                                 3  N           -1.4174    0.7068    1.4335
    4  O                                                 4  O           -2.2722    1.5324    1.1898
    5  O                                                 5  O           -0.7739    0.6454    2.4573
    6  O                                                 6  O           -0.4672   -1.3258    0.7567
    7  H                                                 7  H           -1.7962    1.0132   -1.1276
    8  H                                                 8  H           -1.1386   -0.6203   -1.7044


 Interatomic Distance Matrix (Angstrom)
 --------------------------------------

   1)     0.000
   2)     1.365   0.000
   3)     2.433   1.517   0.000
   4)     2.743   2.344   1.213   0.000
   5)     3.451   2.329   1.211   2.154   0.000
   6)     2.339   1.248   2.344   3.408   2.621   0.000
   7)     1.079   2.123   2.607   2.422   3.746   3.284   0.000
   8)     1.078   2.092   3.418   3.781   4.365   2.647   1.853   0.000

 Min. Distance =    1.0776
 Max. Distance =    4.3651



 =====================================
 S Y M M E T R Y ,   E L E C T R O N S
 =====================================
  
 Symmetry: NOSYM

 Irreducible Representations, including subspecies
 -------------------------------------------------
 A


 Configuration of Valence Electrons
 ==================================
 ( determined in the SCF procedure )

 Total:   23 (Spin-A)  + 22 (Spin-B)

 Net Charge: 0 (Nuclei minus Electrons)
 Spin polar: 1 (Spin_A minus Spin_B electrons)

 Aufbau principle for MO occupations will be applied through SCF cycle no.     150
 Thereafter, the program will assign electrons to MOs that are spatially
 similar to the occupied MOs in a "reference" cycle ("KeepOrbitals").
 The reference cycle is always the PREVIOUS cycle: it will evolve with
 the SCF procedure.
 ***************************************************************************************************



                                      ****************************************
                                      *  B U I L D : (Fragments, Functions)  *
                                      ****************************************
  



 =======
 S F O s  ***  (Symmetrized Fragment Orbitals)  ***
 =======
  
 SFOs are linear combinations of (valence) Fragment Orbitals (FOs), such that the SFOs transform as the
 irreducible representations of the (molecular) symmetry group. Each SFO is therefore characterized by
 an irrep of the molecule and by a few (or only one) generating FOs.
 The SFOs constitute a symmetry-adapted basis for the Fock matrix. The MO eigenvector coefficients in
 this basis provide a direct interpretation of the MOs in terms of Frontier Orbital Theory.

 The SFOs are combined with auxiliary Core Functions (CFs) to ensure orthogonalization on the (frozen)
 Core Orbitals (COs). The Core-orthogonalized SFOs (CSFOs) constitute the true Fock basis.

 The FOs, and hence also the (C)SFOs are combinations of the elementary basis functions (BAS). The basis
 functions that participate in the description of the SFOs depend on the irrep. The indices of the
 involved functions are printed below for each irrep.
 (The complete list of primitive basis functions is printed in another section)

 Total nr. of (C)SFOs (summation over all irreps) :   178

 NOTE: a (C)SFO that is defined as a combination of more than one FO is usually NOT normalized.



                                       === A ===
 Nr. of SFOs :  178
 Cartesian basis functions that participate in this irrep (total number =   204) :
      1     2     3     4     5     6     9    12     7    10
     13     8    11    14    15    16    17    18    19    20
     21    22    23    24    25    26    27    28    29    30
     31    32    33    34    35    36    39    42    37    40
     43    38    41    44    45    46    47    48    49    50
     51    52    53    54    55    56    57    58    59    60
     61    62    63    64    65    66    69    72    67    70
     73    68    71    74    75    76    77    78    79    80
     81    82    83    84    85    86    87    88    89    90
     91    92    93    94    95    96    99   102    97   100
    103    98   101   104   105   106   107   108   109   110
    111   112   113   114   115   116   117   118   119   120
    121   122   123   124   125   126   129   132   127   130
    133   128   131   134   135   136   137   138   139   140
    141   142   143   144   145   146   147   148   149   150
    151   152   153   154   155   156   159   162   157   160
    163   158   161   164   165   166   167   168   169   170
    171   172   173   174   175   176   177   178   179   180
    181   182   183   184   185   186   187   188   189   190
    191   192   193   194   195   196   197   198   199   200
    201   202   203   204

    SFO  (index         Fragment          Generating    Expansion in Fragment Orbitals
  indx  incl.CFs)   Occup   Orb.Energy   FragmentType  Coeff.   Orbital     on Fragment
 --------------------------------------------------------------------------------------
     1       1      2.000     -10.066 au  C             1.00      1 S               1
                        (    -273.921 eV)
     2       2      2.000      -0.501 au  C             1.00      2 S               1
                        (     -13.620 eV)
     3       3       --         0.373 au  C             1.00      3 S               1
                        (      10.158 eV)
     4       4       --         5.405 au  C             1.00      4 S               1
                        (     147.073 eV)
     5       5       --        49.848 au  C             1.00      5 S               1
                        (    1356.422 eV)
     6       6      0.667      -0.193 au  C             1.00      1 P:x             1
                        (      -5.239 eV)
     7       7       --         0.169 au  C             1.00      2 P:x             1
                        (       4.589 eV)
     8       8       --         2.013 au  C             1.00      3 P:x             1
                        (      54.789 eV)
     9       9      0.667      -0.193 au  C             1.00      1 P:y             1
                        (      -5.239 eV)
    10      10       --         0.169 au  C             1.00      2 P:y             1
                        (       4.589 eV)
    11      11       --         2.013 au  C             1.00      3 P:y             1
                        (      54.789 eV)
    12      12      0.667      -0.193 au  C             1.00      1 P:z             1
                        (      -5.239 eV)
    13      13       --         0.169 au  C             1.00      2 P:z             1
                        (       4.589 eV)
    14      14       --         2.013 au  C             1.00      3 P:z             1
                        (      54.789 eV)
    15      15       --         1.243 au  C             1.00      1 D:z2            1
                        (      33.824 eV)
    16      16       --         1.243 au  C             1.00      1 D:x2-y2         1
                        (      33.824 eV)
    17      17       --         1.243 au  C             1.00      1 D:xy            1
                        (      33.824 eV)
    18      18       --         1.243 au  C             1.00      1 D:xz            1
                        (      33.824 eV)
    19      19       --         1.243 au  C             1.00      1 D:yz            1
                        (      33.824 eV)
    20      20       --         4.016 au  C             1.00      1 F:z3            1
                        (     109.271 eV)
    21      21       --         4.016 au  C             1.00      1 F:z             1
                        (     109.271 eV)
    22      22       --         4.016 au  C             1.00      1 F:xyz           1
                        (     109.271 eV)
    23      23       --         4.016 au  C             1.00      1 F:z2x           1
                        (     109.271 eV)
    24      24       --         4.016 au  C             1.00      1 F:z2y           1
                        (     109.271 eV)
    25      25       --         4.016 au  C             1.00      1 F:x             1
                        (     109.271 eV)
    26      26       --         4.016 au  C             1.00      1 F:y             1
                        (     109.271 eV)
    27      27      2.000     -10.066 au  C             1.00      1 S               2
                        (    -273.921 eV)
    28      28      2.000      -0.501 au  C             1.00      2 S               2
                        (     -13.620 eV)
    29      29       --         0.373 au  C             1.00      3 S               2
                        (      10.158 eV)
    30      30       --         5.405 au  C             1.00      4 S               2
                        (     147.073 eV)
    31      31       --        49.848 au  C             1.00      5 S               2
                        (    1356.422 eV)
    32      32      0.667      -0.193 au  C             1.00      1 P:x             2
                        (      -5.239 eV)
    33      33       --         0.169 au  C             1.00      2 P:x             2
                        (       4.589 eV)
    34      34       --         2.013 au  C             1.00      3 P:x             2
                        (      54.789 eV)
    35      35      0.667      -0.193 au  C             1.00      1 P:y             2
                        (      -5.239 eV)
    36      36       --         0.169 au  C             1.00      2 P:y             2
                        (       4.589 eV)
    37      37       --         2.013 au  C             1.00      3 P:y             2
                        (      54.789 eV)
    38      38      0.667      -0.193 au  C             1.00      1 P:z             2
                        (      -5.239 eV)
    39      39       --         0.169 au  C             1.00      2 P:z             2
                        (       4.589 eV)
    40      40       --         2.013 au  C             1.00      3 P:z             2
                        (      54.789 eV)
    41      41       --         1.243 au  C             1.00      1 D:z2            2
                        (      33.824 eV)
    42      42       --         1.243 au  C             1.00      1 D:x2-y2         2
                        (      33.824 eV)
    43      43       --         1.243 au  C             1.00      1 D:xy            2
                        (      33.824 eV)
    44      44       --         1.243 au  C             1.00      1 D:xz            2
                        (      33.824 eV)
    45      45       --         1.243 au  C             1.00      1 D:yz            2
                        (      33.824 eV)
    46      46       --         4.016 au  C             1.00      1 F:z3            2
                        (     109.271 eV)
    47      47       --         4.016 au  C             1.00      1 F:z             2
                        (     109.271 eV)
    48      48       --         4.016 au  C             1.00      1 F:xyz           2
                        (     109.271 eV)
    49      49       --         4.016 au  C             1.00      1 F:z2x           2
                        (     109.271 eV)
    50      50       --         4.016 au  C             1.00      1 F:z2y           2
                        (     109.271 eV)
    51      51       --         4.016 au  C             1.00      1 F:x             2
                        (     109.271 eV)
    52      52       --         4.016 au  C             1.00      1 F:y             2
                        (     109.271 eV)
    53      53      2.000     -14.160 au  N             1.00      1 S               3
                        (    -385.319 eV)
    54      54      2.000      -0.678 au  N             1.00      2 S               3
                        (     -18.450 eV)
    55      55       --         0.517 au  N             1.00      3 S               3
                        (      14.073 eV)
    56      56       --         6.872 au  N             1.00      4 S               3
                        (     186.990 eV)
    57      57       --        63.432 au  N             1.00      5 S               3
                        (    1726.082 eV)
    58      58      1.000      -0.260 au  N             1.00      1 P:x             3
                        (      -7.062 eV)
    59      59       --         0.281 au  N             1.00      2 P:x             3
                        (       7.649 eV)
    60      60       --         3.275 au  N             1.00      3 P:x             3
                        (      89.105 eV)
    61      61      1.000      -0.260 au  N             1.00      1 P:y             3
                        (      -7.062 eV)
    62      62       --         0.281 au  N             1.00      2 P:y             3
                        (       7.649 eV)
    63      63       --         3.275 au  N             1.00      3 P:y             3
                        (      89.105 eV)
    64      64      1.000      -0.260 au  N             1.00      1 P:z             3
                        (      -7.062 eV)
    65      65       --         0.281 au  N             1.00      2 P:z             3
                        (       7.649 eV)
    66      66       --         3.275 au  N             1.00      3 P:z             3
                        (      89.105 eV)
    67      67       --         1.250 au  N             1.00      1 D:z2            3
                        (      34.005 eV)
    68      68       --         1.250 au  N             1.00      1 D:x2-y2         3
                        (      34.005 eV)
    69      69       --         1.250 au  N             1.00      1 D:xy            3
                        (      34.005 eV)
    70      70       --         1.250 au  N             1.00      1 D:xz            3
                        (      34.005 eV)
    71      71       --         1.250 au  N             1.00      1 D:yz            3
                        (      34.005 eV)
    72      72       --         4.013 au  N             1.00      1 F:z3            3
                        (     109.190 eV)
    73      73       --         4.013 au  N             1.00      1 F:z             3
                        (     109.190 eV)
    74      74       --         4.013 au  N             1.00      1 F:xyz           3
                        (     109.190 eV)
    75      75       --         4.013 au  N             1.00      1 F:z2x           3
                        (     109.190 eV)
    76      76       --         4.013 au  N             1.00      1 F:z2y           3
                        (     109.190 eV)
    77      77       --         4.013 au  N             1.00      1 F:x             3
                        (     109.190 eV)
    78      78       --         4.013 au  N             1.00      1 F:y             3
                        (     109.190 eV)
    79      79      2.000     -18.941 au  O             1.00      1 S               4
                        (    -515.403 eV)
    80      80      2.000      -0.876 au  O             1.00      2 S               4
                        (     -23.838 eV)
    81      81       --         0.791 au  O             1.00      3 S               4
                        (      21.524 eV)
    82      82       --        13.422 au  O             1.00      4 S               4
                        (     365.226 eV)
    83      83       --       121.561 au  O             1.00      5 S               4
                        (    3307.838 eV)
    84      84      1.333      -0.331 au  O             1.00      1 P:x             4
                        (      -9.020 eV)
    85      85       --         0.347 au  O             1.00      2 P:x             4
                        (       9.437 eV)
    86      86       --         3.820 au  O             1.00      3 P:x             4
                        (     103.939 eV)
    87      87      1.333      -0.331 au  O             1.00      1 P:y             4
                        (      -9.020 eV)
    88      88       --         0.347 au  O             1.00      2 P:y             4
                        (       9.437 eV)
    89      89       --         3.820 au  O             1.00      3 P:y             4
                        (     103.939 eV)
    90      90      1.333      -0.331 au  O             1.00      1 P:z             4
                        (      -9.020 eV)
    91      91       --         0.347 au  O             1.00      2 P:z             4
                        (       9.437 eV)
    92      92       --         3.820 au  O             1.00      3 P:z             4
                        (     103.939 eV)
    93      93       --         1.071 au  O             1.00      1 D:z2            4
                        (      29.134 eV)
    94      94       --         1.071 au  O             1.00      1 D:x2-y2         4
                        (      29.134 eV)
    95      95       --         1.071 au  O             1.00      1 D:xy            4
                        (      29.134 eV)
    96      96       --         1.071 au  O             1.00      1 D:xz            4
                        (      29.134 eV)
    97      97       --         1.071 au  O             1.00      1 D:yz            4
                        (      29.134 eV)
    98      98       --         3.359 au  O             1.00      1 F:z3            4
                        (      91.410 eV)
    99      99       --         3.359 au  O             1.00      1 F:z             4
                        (      91.410 eV)
   100     100       --         3.359 au  O             1.00      1 F:xyz           4
                        (      91.410 eV)
   101     101       --         3.359 au  O             1.00      1 F:z2x           4
                        (      91.410 eV)
   102     102       --         3.359 au  O             1.00      1 F:z2y           4
                        (      91.410 eV)
   103     103       --         3.359 au  O             1.00      1 F:x             4
                        (      91.410 eV)
   104     104       --         3.359 au  O             1.00      1 F:y             4
                        (      91.410 eV)
   105     105      2.000     -18.941 au  O             1.00      1 S               5
                        (    -515.403 eV)
   106     106      2.000      -0.876 au  O             1.00      2 S               5
                        (     -23.838 eV)
   107     107       --         0.791 au  O             1.00      3 S               5
                        (      21.524 eV)
   108     108       --        13.422 au  O             1.00      4 S               5
                        (     365.226 eV)
   109     109       --       121.561 au  O             1.00      5 S               5
                        (    3307.838 eV)
   110     110      1.333      -0.331 au  O             1.00      1 P:x             5
                        (      -9.020 eV)
   111     111       --         0.347 au  O             1.00      2 P:x             5
                        (       9.437 eV)
   112     112       --         3.820 au  O             1.00      3 P:x             5
                        (     103.939 eV)
   113     113      1.333      -0.331 au  O             1.00      1 P:y             5
                        (      -9.020 eV)
   114     114       --         0.347 au  O             1.00      2 P:y             5
                        (       9.437 eV)
   115     115       --         3.820 au  O             1.00      3 P:y             5
                        (     103.939 eV)
   116     116      1.333      -0.331 au  O             1.00      1 P:z             5
                        (      -9.020 eV)
   117     117       --         0.347 au  O             1.00      2 P:z             5
                        (       9.437 eV)
   118     118       --         3.820 au  O             1.00      3 P:z             5
                        (     103.939 eV)
   119     119       --         1.071 au  O             1.00      1 D:z2            5
                        (      29.134 eV)
   120     120       --         1.071 au  O             1.00      1 D:x2-y2         5
                        (      29.134 eV)
   121     121       --         1.071 au  O             1.00      1 D:xy            5
                        (      29.134 eV)
   122     122       --         1.071 au  O             1.00      1 D:xz            5
                        (      29.134 eV)
   123     123       --         1.071 au  O             1.00      1 D:yz            5
                        (      29.134 eV)
   124     124       --         3.359 au  O             1.00      1 F:z3            5
                        (      91.410 eV)
   125     125       --         3.359 au  O             1.00      1 F:z             5
                        (      91.410 eV)
   126     126       --         3.359 au  O             1.00      1 F:xyz           5
                        (      91.410 eV)
   127     127       --         3.359 au  O             1.00      1 F:z2x           5
                        (      91.410 eV)
   128     128       --         3.359 au  O             1.00      1 F:z2y           5
                        (      91.410 eV)
   129     129       --         3.359 au  O             1.00      1 F:x             5
                        (      91.410 eV)
   130     130       --         3.359 au  O             1.00      1 F:y             5
                        (      91.410 eV)
   131     131      2.000     -18.941 au  O             1.00      1 S               6
                        (    -515.403 eV)
   132     132      2.000      -0.876 au  O             1.00      2 S               6
                        (     -23.838 eV)
   133     133       --         0.791 au  O             1.00      3 S               6
                        (      21.524 eV)
   134     134       --        13.422 au  O             1.00      4 S               6
                        (     365.226 eV)
   135     135       --       121.561 au  O             1.00      5 S               6
                        (    3307.838 eV)
   136     136      1.333      -0.331 au  O             1.00      1 P:x             6
                        (      -9.020 eV)
   137     137       --         0.347 au  O             1.00      2 P:x             6
                        (       9.437 eV)
   138     138       --         3.820 au  O             1.00      3 P:x             6
                        (     103.939 eV)
   139     139      1.333      -0.331 au  O             1.00      1 P:y             6
                        (      -9.020 eV)
   140     140       --         0.347 au  O             1.00      2 P:y             6
                        (       9.437 eV)
   141     141       --         3.820 au  O             1.00      3 P:y             6
                        (     103.939 eV)
   142     142      1.333      -0.331 au  O             1.00      1 P:z             6
                        (      -9.020 eV)
   143     143       --         0.347 au  O             1.00      2 P:z             6
                        (       9.437 eV)
   144     144       --         3.820 au  O             1.00      3 P:z             6
                        (     103.939 eV)
   145     145       --         1.071 au  O             1.00      1 D:z2            6
                        (      29.134 eV)
   146     146       --         1.071 au  O             1.00      1 D:x2-y2         6
                        (      29.134 eV)
   147     147       --         1.071 au  O             1.00      1 D:xy            6
                        (      29.134 eV)
   148     148       --         1.071 au  O             1.00      1 D:xz            6
                        (      29.134 eV)
   149     149       --         1.071 au  O             1.00      1 D:yz            6
                        (      29.134 eV)
   150     150       --         3.359 au  O             1.00      1 F:z3            6
                        (      91.410 eV)
   151     151       --         3.359 au  O             1.00      1 F:z             6
                        (      91.410 eV)
   152     152       --         3.359 au  O             1.00      1 F:xyz           6
                        (      91.410 eV)
   153     153       --         3.359 au  O             1.00      1 F:z2x           6
                        (      91.410 eV)
   154     154       --         3.359 au  O             1.00      1 F:z2y           6
                        (      91.410 eV)
   155     155       --         3.359 au  O             1.00      1 F:x             6
                        (      91.410 eV)
   156     156       --         3.359 au  O             1.00      1 F:y             6
                        (      91.410 eV)
   157     157      1.000      -0.240 au  H             1.00      1 S               7
                        (      -6.532 eV)
   158     158       --         0.088 au  H             1.00      2 S               7
                        (       2.394 eV)
   159     159       --         1.502 au  H             1.00      3 S               7
                        (      40.869 eV)
   160     160       --         0.406 au  H             1.00      1 P:x             7
                        (      11.051 eV)
   161     161       --         0.406 au  H             1.00      1 P:y             7
                        (      11.051 eV)
   162     162       --         0.406 au  H             1.00      1 P:z             7
                        (      11.051 eV)
   163     163       --         2.569 au  H             1.00      1 D:z2            7
                        (      69.917 eV)
   164     164       --         2.569 au  H             1.00      1 D:x2-y2         7
                        (      69.917 eV)
   165     165       --         2.569 au  H             1.00      1 D:xy            7
                        (      69.917 eV)
   166     166       --         2.569 au  H             1.00      1 D:xz            7
                        (      69.917 eV)
   167     167       --         2.569 au  H             1.00      1 D:yz            7
                        (      69.917 eV)
   168     168      1.000      -0.240 au  H             1.00      1 S               8
                        (      -6.532 eV)
   169     169       --         0.088 au  H             1.00      2 S               8
                        (       2.394 eV)
   170     170       --         1.502 au  H             1.00      3 S               8
                        (      40.869 eV)
   171     171       --         0.406 au  H             1.00      1 P:x             8
                        (      11.051 eV)
   172     172       --         0.406 au  H             1.00      1 P:y             8
                        (      11.051 eV)
   173     173       --         0.406 au  H             1.00      1 P:z             8
                        (      11.051 eV)
   174     174       --         2.569 au  H             1.00      1 D:z2            8
                        (      69.917 eV)
   175     175       --         2.569 au  H             1.00      1 D:x2-y2         8
                        (      69.917 eV)
   176     176       --         2.569 au  H             1.00      1 D:xy            8
                        (      69.917 eV)
   177     177       --         2.569 au  H             1.00      1 D:xz            8
                        (      69.917 eV)
   178     178       --         2.569 au  H             1.00      1 D:yz            8
                        (      69.917 eV)



 ================================
 (Slater-type)  F U N C T I O N S  ***  (Basis and Fit)  ***
 ================================
  

 Atom Type    1  (C)
 ==============

 Valence Basis Sets:  10
 -----------------------
   1 S    7.680000
   1 S    5.000000
   2 S    1.280000
   2 S    2.100000
   2 S    4.600000
   2 P    0.820000
   2 P    1.480000
   2 P    2.940000
   3 D    2.200000
   4 F    3.300000

 Atom Type    2  (N)
 ==============

 Valence Basis Sets:  10
 -----------------------
   1 S    8.740000
   1 S    5.900000
   2 S    5.150000
   2 S    2.500000
   2 S    1.500000
   2 P    3.680000
   2 P    1.880000
   2 P    1.000000
   3 D    2.200000
   4 F    3.300000

 Atom Type    3  (O)
 ==============

 Valence Basis Sets:  10
 -----------------------
   1 S    9.800000
   1 S    6.800000
   2 S    7.580000
   2 S    2.880000
   2 S    1.720000
   2 P    4.080000
   2 P    2.080000
   2 P    1.120000
   3 D    2.000000
   4 F    3.000000

 Atom Type    4  (H)
 ==============

 Valence Basis Sets:   5
 -----------------------
   1 S    0.690000
   1 S    0.920000
   1 S    1.580000
   2 P    1.250000
   3 D    2.500000


 BAS: List of all Elementary Cartesian Basis Functions
 =====================================================

 The numbering in the list below (to the right of the function characteristics) is referred
 to in print-outs of MO eigenvectors and Mulliken populations in the BAS representation
 (as contrasted to the SFO representation).

 Notes:
 1. The functions are characterized by a polynomial prefactor (powers of x,y,z and r) and
    an exponential decay factor alpha.
 2. Since the basis sets are specific for an atom TYPE, the individual functions occur on
    all atoms of that type.
 3. The word 'Core' in the left margin signals that it is a Core Function (CF) : not a
    degree of freedom in the valence set, but only used to ensure orthogonalization of
    the other valence basis functions on the frozen Core Orbitals.


 (power of) X  Y  Z  R     Alpha  on Atom
            ==========     =====     ==========

 C                                    1    2
                                  ---------------------------------------------------------------------------
            0  0  0  0     7.680      1   31
            0  0  0  0     5.000      2   32
            0  0  0  1     1.280      3   33
            0  0  0  1     2.100      4   34
            0  0  0  1     4.600      5   35
            1  0  0  0     0.820      6   36
            0  1  0  0     0.820      7   37
            0  0  1  0     0.820      8   38
            1  0  0  0     1.480      9   39
            0  1  0  0     1.480     10   40
            0  0  1  0     1.480     11   41
            1  0  0  0     2.940     12   42
            0  1  0  0     2.940     13   43
            0  0  1  0     2.940     14   44
            2  0  0  0     2.200     15   45
            1  1  0  0     2.200     16   46
            1  0  1  0     2.200     17   47
            0  2  0  0     2.200     18   48
            0  1  1  0     2.200     19   49
            0  0  2  0     2.200     20   50
            3  0  0  0     3.300     21   51
            2  1  0  0     3.300     22   52
            2  0  1  0     3.300     23   53
            1  2  0  0     3.300     24   54
            1  1  1  0     3.300     25   55
            1  0  2  0     3.300     26   56
            0  3  0  0     3.300     27   57
            0  2  1  0     3.300     28   58
            0  1  2  0     3.300     29   59
            0  0  3  0     3.300     30   60

 N                                    3
                                  ---------------------------------------------------------------------------
            0  0  0  0     8.740     61
            0  0  0  0     5.900     62
            0  0  0  1     5.150     63
            0  0  0  1     2.500     64
            0  0  0  1     1.500     65
            1  0  0  0     3.680     66
            0  1  0  0     3.680     67
            0  0  1  0     3.680     68
            1  0  0  0     1.880     69
            0  1  0  0     1.880     70
            0  0  1  0     1.880     71
            1  0  0  0     1.000     72
            0  1  0  0     1.000     73
            0  0  1  0     1.000     74
            2  0  0  0     2.200     75
            1  1  0  0     2.200     76
            1  0  1  0     2.200     77
            0  2  0  0     2.200     78
            0  1  1  0     2.200     79
            0  0  2  0     2.200     80
            3  0  0  0     3.300     81
            2  1  0  0     3.300     82
            2  0  1  0     3.300     83
            1  2  0  0     3.300     84
            1  1  1  0     3.300     85
            1  0  2  0     3.300     86
            0  3  0  0     3.300     87
            0  2  1  0     3.300     88
            0  1  2  0     3.300     89
            0  0  3  0     3.300     90

 O                                    4    5    6
                                  ---------------------------------------------------------------------------
            0  0  0  0     9.800     91  121  151
            0  0  0  0     6.800     92  122  152
            0  0  0  1     7.580     93  123  153
            0  0  0  1     2.880     94  124  154
            0  0  0  1     1.720     95  125  155
            1  0  0  0     4.080     96  126  156
            0  1  0  0     4.080     97  127  157
            0  0  1  0     4.080     98  128  158
            1  0  0  0     2.080     99  129  159
            0  1  0  0     2.080    100  130  160
            0  0  1  0     2.080    101  131  161
            1  0  0  0     1.120    102  132  162
            0  1  0  0     1.120    103  133  163
            0  0  1  0     1.120    104  134  164
            2  0  0  0     2.000    105  135  165
            1  1  0  0     2.000    106  136  166
            1  0  1  0     2.000    107  137  167
            0  2  0  0     2.000    108  138  168
            0  1  1  0     2.000    109  139  169
            0  0  2  0     2.000    110  140  170
            3  0  0  0     3.000    111  141  171
            2  1  0  0     3.000    112  142  172
            2  0  1  0     3.000    113  143  173
            1  2  0  0     3.000    114  144  174
            1  1  1  0     3.000    115  145  175
            1  0  2  0     3.000    116  146  176
            0  3  0  0     3.000    117  147  177
            0  2  1  0     3.000    118  148  178
            0  1  2  0     3.000    119  149  179
            0  0  3  0     3.000    120  150  180

 H                                    7    8
                                  ---------------------------------------------------------------------------
            0  0  0  0     0.690    181  193
            0  0  0  0     0.920    182  194
            0  0  0  0     1.580    183  195
            1  0  0  0     1.250    184  196
            0  1  0  0     1.250    185  197
            0  0  1  0     1.250    186  198
            2  0  0  0     2.500    187  199
            1  1  0  0     2.500    188  200
            1  0  1  0     2.500    189  201
            0  2  0  0     2.500    190  202
            0  1  1  0     2.500    191  203
            0  0  2  0     2.500    192  204

 Total number of charge fitting functions (nprimf)       604
 Total number of Cartesian basis functions (naos)        204
 Total number of Cartesian core functions  (ncos)          0

 ***************************************************************************************************



                                              ***********************
                                              *  T E C H N I C A L  *
                                              ***********************
  



 =============================================================
 P A R A L L E L I Z A T I O N  and  V E C T O R I Z A T I O N
 =============================================================
  
 Nr of parallel processes:                                1
 Maximum vector length in NumInt loops:                 128



 =====================
 S C F   U P D A T E S
 =====================
  
 Max. nr. of cycles:                               300
 Convergence criterion:                              0.0000010000
   secondary criterion:                              0.0010000000

 Mix parameter (when DIIS does not apply):           0.0500000000
 Mixed ADIIS+SDIIS will be used                  
    Max number of expansion vectors:                10
    Pure ADIIS when Max([F,P]) is above              0.1000000000
    Pure SDIIS when Max([F,P]) is below              0.0010000000
 Automatic ElectronSmearing (in case of problematic SCF convergence) disabled



 =================
 P R E C I S I O N  ***  (General: NumInt, NeglectFunctionTails, ...)  ***
 =================
  

 NumInt:           Target precision:                 6.0000000000
 -------           Initial precision:                6.0000000000
                   Min. precision (optimization):    6.0000000000

 Neglect Functions:          Basis functions:        0.1000000000E-07
 ------------------          Fit functions:          0.1000000000E-07



 ===========================
 L I N E A R   S C A L I N G
 ===========================
  

 Cut-off radii density fit:                        0.1000000000E-09
 Overlap cut-off criterion AO matrix elements:     0.1000000000E-07
 Cut-offs for Coulomb potential and fitted density:0.1000000000E-09
 Cut-off criterion for Coulomb multipole terms:    0.1000000000E-09
 Progressive Convergence parameter:                 0.000000000    
 ***************************************************************************************************



                                            ***************************
                                            *  C O M P U T A T I O N  *
                                            ***************************
  

 Number of elements of the density matrix on this node (used, total):     20910     20910



 ===========================================
 Numerical Integration : Fuzzy Cells (Becke)
 ===========================================
  
 Becke grid quality: GOOD           
  
 Lebedev angular grid order:             min:  11 max:  31
 Nr. of radial points:                   min:  54 max:  61

 Total nr. of points:     100834
 Nr. of blocks:              788
 Block length:               128
 Nr. of dummy points:         30


 Test of Precision of the Numerical Integration Grid
 ===================================================

 Integral of the Total Core Density:                   0.00000000000000



 ========================
 Density Fitting (zlmFit)
 ========================
  
 ZlmFit Fit Quality: GOOD           
  
 Max L-expansion:                        min:   8 max:   9
 Nr. of radial interpolation points:     min:  78 max: 108



 =====
 S C F  ***  ScaSCF  ***
 =====
  
 Initial density matrix is calculated as sum of fragments

 CYCLE    1
 SCF Error: norm([F,P])=      5.690378310944, max([F,P])=      0.697153517738
 ***** SPIN 1 *****
 orbitals (Q,E):
 ---------------
 A :14...33          ( 1.00    -0.5810)  ( 1.00    -0.5627)  ( 1.00    -0.5420)  ( 1.00    -0.5261)
                     ( 1.00    -0.4784)  ( 1.00    -0.4241)  ( 1.00    -0.3914)  ( 1.00    -0.3749)
                     ( 1.00    -0.3631)  ( 1.00    -0.3425)  ( 0.00    -0.2000)  ( 0.00    -0.1041)
                     ( 0.00    -0.0295)  ( 0.00    -0.0165)  ( 0.00     0.0415)  ( 0.00     0.0548)
                     ( 0.00     0.0716)  ( 0.00     0.0994)  ( 0.00     0.1035)  ( 0.00     0.1473)
 ***** SPIN 2 *****
 orbitals (Q,E):
 ---------------
 A :13...32          ( 1.00    -0.6084)  ( 1.00    -0.5810)  ( 1.00    -0.5627)  ( 1.00    -0.5420)
                     ( 1.00    -0.5261)  ( 1.00    -0.4784)  ( 1.00    -0.4241)  ( 1.00    -0.3914)
                     ( 1.00    -0.3749)  ( 1.00    -0.3631)  ( 0.00    -0.3425)  ( 0.00    -0.2000)
                     ( 0.00    -0.1041)  ( 0.00    -0.0295)  ( 0.00    -0.0165)  ( 0.00     0.0415)
                     ( 0.00     0.0548)  ( 0.00     0.0716)  ( 0.00     0.0994)  ( 0.00     0.1035)
  
 Spin polar: 1 (Spin_A minus Spin_B electrons)

 CYCLE    2
   MIX coefficients:  0.9500  0.0500
 SCF Error: norm([F,P])=      1.083450918761, max([F,P])=      0.095793277827
 ***** SPIN 1 *****
 orbitals (Q,E):
 ---------------
 A :14...24          ( 1.00    -0.5715)  ( 1.00    -0.5566)  ( 1.00    -0.5355)  ( 1.00    -0.5171)
                     ( 1.00    -0.4696)  ( 1.00    -0.4120)  ( 1.00    -0.3818)  ( 1.00    -0.3639)
                     ( 1.00    -0.3532)  ( 1.00    -0.3344)  ( 0.00    -0.1967)
 ***** SPIN 2 *****
 orbitals (Q,E):
 ---------------
 A :13...23          ( 1.00    -0.6003)  ( 1.00    -0.5714)  ( 1.00    -0.5564)  ( 1.00    -0.5353)
                     ( 1.00    -0.5168)  ( 1.00    -0.4685)  ( 1.00    -0.4117)  ( 1.00    -0.3817)
                     ( 1.00    -0.3638)  ( 1.00    -0.3529)  ( 0.00    -0.3320)
  
 Spin polar: 1 (Spin_A minus Spin_B electrons)

 CYCLE    3
  SDIIS (wt  0.000): -2.0000  3.0000
 A-DIIS (wt  1.000):  0.0000  1.0000
  DIIS coefficients:  0.0000  1.0000
 SCF Error: norm([F,P])=      0.902544185059, max([F,P])=      0.078119798837
 ***** SPIN 1 *****
 orbitals (Q,E):
 ---------------
 A :14...24          ( 1.00    -0.4598)  ( 1.00    -0.4109)  ( 1.00    -0.3944)  ( 1.00    -0.3581)
                     ( 1.00    -0.3128)  ( 1.00    -0.2414)  ( 1.00    -0.2260)  ( 1.00    -0.1882)
                     ( 1.00    -0.1810)  ( 1.00    -0.1588)  ( 0.00    -0.1064)
 ***** SPIN 2 *****
 orbitals (Q,E):
 ---------------
 A :13...23          ( 1.00    -0.4665)  ( 1.00    -0.4513)  ( 1.00    -0.4085)  ( 1.00    -0.3891)
                     ( 1.00    -0.3388)  ( 1.00    -0.3053)  ( 1.00    -0.2376)  ( 1.00    -0.2243)
                     ( 1.00    -0.1806)  ( 1.00    -0.1559)  ( 0.00    -0.1429)
  
 Spin polar: 1 (Spin_A minus Spin_B electrons)

 CYCLE    4
  SDIIS (wt  0.000): -2.0000  2.8468  0.1532
 A-DIIS (wt  1.000): -0.0000  0.8076  0.1924
  DIIS coefficients: -0.0000  0.8076  0.1924
 SCF Error: norm([F,P])=      2.273525835406, max([F,P])=      0.228401938517
 ***** SPIN 1 *****
 orbitals (Q,E):
 ---------------
 A :14...24          ( 1.00    -0.4624)  ( 1.00    -0.4414)  ( 1.00    -0.4039)  ( 1.00    -0.3836)
                     ( 1.00    -0.3754)  ( 1.00    -0.2823)  ( 1.00    -0.2637)  ( 1.00    -0.2394)
                     ( 1.00    -0.2301)  ( 1.00    -0.2148)  ( 0.00    -0.1160)
 ***** SPIN 2 *****
 orbitals (Q,E):
 ---------------
 A :13...23          ( 1.00    -0.4909)  ( 1.00    -0.4545)  ( 1.00    -0.4393)  ( 1.00    -0.3970)
                     ( 1.00    -0.3753)  ( 1.00    -0.3564)  ( 1.00    -0.2755)  ( 1.00    -0.2624)
                     ( 1.00    -0.2366)  ( 1.00    -0.2132)  ( 0.00    -0.1854)
  
 Spin polar: 1 (Spin_A minus Spin_B electrons)

 CYCLE    5
  SDIIS (wt  0.134): -1.1658  1.7469  0.0403  0.3786
 A-DIIS (wt  0.866): -0.0000  0.3646  0.0000  0.6354
  DIIS coefficients: -0.1564  0.5501  0.0054  0.6010
 SCF Error: norm([F,P])=      0.659416867880, max([F,P])=      0.086714802304
 ***** SPIN 1 *****
 orbitals (Q,E):
 ---------------
 A :14...24          ( 1.00    -0.5141)  ( 1.00    -0.4763)  ( 1.00    -0.4496)  ( 1.00    -0.4013)
                     ( 1.00    -0.3952)  ( 1.00    -0.3393)  ( 1.00    -0.3176)  ( 1.00    -0.2728)
                     ( 1.00    -0.2520)  ( 1.00    -0.2462)  ( 0.00    -0.1411)
 ***** SPIN 2 *****
 orbitals (Q,E):
 ---------------
 A :13...23          ( 1.00    -0.5177)  ( 1.00    -0.5085)  ( 1.00    -0.4740)  ( 1.00    -0.4448)
                     ( 1.00    -0.3912)  ( 1.00    -0.3748)  ( 1.00    -0.3339)  ( 1.00    -0.3152)
                     ( 1.00    -0.2512)  ( 1.00    -0.2392)  ( 0.00    -0.2233)
  
 Spin polar: 1 (Spin_A minus Spin_B electrons)

 CYCLE    6
  SDIIS (wt  0.000): -0.1036  0.4029 -0.0263  0.5132  0.2138
 A-DIIS (wt  1.000):  0.0000  0.2396  0.0000  0.5248  0.2355
  DIIS coefficients:  0.0000  0.2396  0.0000  0.5248  0.2355
 SCF Error: norm([F,P])=      0.853358106428, max([F,P])=      0.083866008005
 ***** SPIN 1 *****
 orbitals (Q,E):
 ---------------
 A :14...24          ( 1.00    -0.5092)  ( 1.00    -0.4891)  ( 1.00    -0.4520)  ( 1.00    -0.4280)
                     ( 1.00    -0.4156)  ( 1.00    -0.3300)  ( 1.00    -0.3158)  ( 1.00    -0.2887)
                     ( 1.00    -0.2827)  ( 1.00    -0.2691)  ( 0.00    -0.1475)
 ***** SPIN 2 *****
 orbitals (Q,E):
 ---------------
 A :13...23          ( 1.00    -0.5117)  ( 1.00    -0.5033)  ( 1.00    -0.4871)  ( 1.00    -0.4452)
                     ( 1.00    -0.4208)  ( 1.00    -0.3920)  ( 1.00    -0.3225)  ( 1.00    -0.3148)
                     ( 1.00    -0.2858)  ( 1.00    -0.2643)  ( 0.00    -0.2343)
  
 Spin polar: 1 (Spin_A minus Spin_B electrons)

 CYCLE    7
  SDIIS (wt  0.640): -0.3222  0.4761 -0.0019  0.2907  0.1697  0.3875
 A-DIIS (wt  0.360):  0.0000  0.0000  0.0000  0.0967  0.1244  0.7789
  DIIS coefficients: -0.2063  0.3049 -0.0012  0.2209  0.1534  0.5283
 SCF Error: norm([F,P])=      0.293768500648, max([F,P])=      0.036601433830
 ***** SPIN 1 *****
 orbitals (Q,E):
 ---------------
 A :14...24          ( 1.00    -0.5082)  ( 1.00    -0.4789)  ( 1.00    -0.4453)  ( 1.00    -0.4225)
                     ( 1.00    -0.4103)  ( 1.00    -0.3226)  ( 1.00    -0.3013)  ( 1.00    -0.2774)
                     ( 1.00    -0.2669)  ( 1.00    -0.2607)  ( 0.00    -0.1460)
 ***** SPIN 2 *****
 orbitals (Q,E):
 ---------------
 A :13...23          ( 1.00    -0.5184)  ( 1.00    -0.5013)  ( 1.00    -0.4770)  ( 1.00    -0.4391)
                     ( 1.00    -0.4149)  ( 1.00    -0.3875)  ( 1.00    -0.3157)  ( 1.00    -0.3003)
                     ( 1.00    -0.2631)  ( 1.00    -0.2578)  ( 0.00    -0.2265)
  
 Spin polar: 1 (Spin_A minus Spin_B electrons)

 CYCLE    8
  SDIIS (wt  0.712): -0.2758  0.3019  0.0017  0.0751  0.0621  0.4983  0.3367
 A-DIIS (wt  0.288):  0.0000  0.0000  0.0000  0.0000  0.0000  0.3890  0.6110
  DIIS coefficients: -0.1965  0.2151  0.0012  0.0535  0.0443  0.4669  0.4156
 SCF Error: norm([F,P])=      0.204905997255, max([F,P])=      0.029466992688
 ***** SPIN 1 *****
 orbitals (Q,E):
 ---------------
 A :14...24          ( 1.00    -0.5048)  ( 1.00    -0.4798)  ( 1.00    -0.4442)  ( 1.00    -0.4197)
                     ( 1.00    -0.4059)  ( 1.00    -0.3176)  ( 1.00    -0.3034)  ( 1.00    -0.2761)
                     ( 1.00    -0.2717)  ( 1.00    -0.2581)  ( 0.00    -0.1429)
 ***** SPIN 2 *****
 orbitals (Q,E):
 ---------------
 A :13...23          ( 1.00    -0.5110)  ( 1.00    -0.4986)  ( 1.00    -0.4781)  ( 1.00    -0.4379)
                     ( 1.00    -0.4120)  ( 1.00    -0.3824)  ( 1.00    -0.3110)  ( 1.00    -0.3027)
                     ( 1.00    -0.2707)  ( 1.00    -0.2532)  ( 0.00    -0.2229)
  
 Spin polar: 1 (Spin_A minus Spin_B electrons)

 CYCLE    9
  SDIIS (wt  0.958):  0.1506 -0.1684 -0.0084  0.0042 -0.0022  0.0665  0.3090  0.6487
 A-DIIS (wt  0.042):  0.0000  0.0000  0.0000  0.0000  0.0000  0.0000  0.0954  0.9046
  DIIS coefficients:  0.1443 -0.1614 -0.0080  0.0040 -0.0021  0.0637  0.3002  0.6593
 SCF Error: norm([F,P])=      0.054416649319, max([F,P])=      0.005120186497
 ***** SPIN 1 *****
 orbitals (Q,E):
 ---------------
 A :14...24          ( 1.00    -0.5061)  ( 1.00    -0.4805)  ( 1.00    -0.4453)  ( 1.00    -0.4220)
                     ( 1.00    -0.4091)  ( 1.00    -0.3210)  ( 1.00    -0.3040)  ( 1.00    -0.2784)
                     ( 1.00    -0.2711)  ( 1.00    -0.2613)  ( 0.00    -0.1440)
 ***** SPIN 2 *****
 orbitals (Q,E):
 ---------------
 A :13...23          ( 1.00    -0.5125)  ( 1.00    -0.4998)  ( 1.00    -0.4788)  ( 1.00    -0.4389)
                     ( 1.00    -0.4144)  ( 1.00    -0.3854)  ( 1.00    -0.3142)  ( 1.00    -0.3033)
                     ( 1.00    -0.2698)  ( 1.00    -0.2566)  ( 0.00    -0.2247)
  
 Spin polar: 1 (Spin_A minus Spin_B electrons)

 CYCLE   10
  SDIIS (wt  1.000):  0.0490 -0.0550 -0.0025 -0.0041 -0.0070  0.0050  0.0928  0.2882  0.6338
  DIIS coefficients:  0.0490 -0.0550 -0.0025 -0.0041 -0.0070  0.0050  0.0928  0.2882  0.6338
 SCF Error: norm([F,P])=      0.009004337533, max([F,P])=      0.000952396419
 ***** SPIN 1 *****
 orbitals (Q,E):
 ---------------
 A :14...24          ( 1.00    -0.5061)  ( 1.00    -0.4802)  ( 1.00    -0.4454)  ( 1.00    -0.4219)
                     ( 1.00    -0.4089)  ( 1.00    -0.3204)  ( 1.00    -0.3036)  ( 1.00    -0.2786)
                     ( 1.00    -0.2710)  ( 1.00    -0.2607)  ( 0.00    -0.1438)
 ***** SPIN 2 *****
 orbitals (Q,E):
 ---------------
 A :13...23          ( 1.00    -0.5123)  ( 1.00    -0.4998)  ( 1.00    -0.4785)  ( 1.00    -0.4390)
                     ( 1.00    -0.4143)  ( 1.00    -0.3851)  ( 1.00    -0.3137)  ( 1.00    -0.3029)
                     ( 1.00    -0.2696)  ( 1.00    -0.2561)  ( 0.00    -0.2247)
  
 Spin polar: 1 (Spin_A minus Spin_B electrons)

 CYCLE   11
  SDIIS (wt  1.000): -0.0013  0.0011  0.0004 -0.0021 -0.0033 -0.0058 -0.0133  0.0249  0.4203  0.5792
  DIIS coefficients: -0.0013  0.0011  0.0004 -0.0021 -0.0033 -0.0058 -0.0133  0.0249  0.4203  0.5792
 SCF Error: norm([F,P])=      0.003402117761, max([F,P])=      0.000421812114
 ***** SPIN 1 *****
 orbitals (Q,E):
 ---------------
 A :14...24          ( 1.00    -0.5060)  ( 1.00    -0.4804)  ( 1.00    -0.4453)  ( 1.00    -0.4219)
                     ( 1.00    -0.4090)  ( 1.00    -0.3205)  ( 1.00    -0.3038)  ( 1.00    -0.2785)
                     ( 1.00    -0.2712)  ( 1.00    -0.2608)  ( 0.00    -0.1439)
 ***** SPIN 2 *****
 orbitals (Q,E):
 ---------------
 A :13...23          ( 1.00    -0.5124)  ( 1.00    -0.4997)  ( 1.00    -0.4787)  ( 1.00    -0.4389)
                     ( 1.00    -0.4142)  ( 1.00    -0.3853)  ( 1.00    -0.3139)  ( 1.00    -0.3031)
                     ( 1.00    -0.2699)  ( 1.00    -0.2563)  ( 0.00    -0.2245)
  
 Spin polar: 1 (Spin_A minus Spin_B electrons)

 CYCLE   12
  SDIIS (wt  1.000): -0.0002  0.0003 -0.0008 -0.0009 -0.0075 -0.0169 -0.0188  0.0553  0.2649  0.7245
  DIIS coefficients: -0.0002  0.0003 -0.0008 -0.0009 -0.0075 -0.0169 -0.0188  0.0553  0.2649  0.7245
 SCF Error: norm([F,P])=      0.000978551585, max([F,P])=      0.000137973120
 ***** SPIN 1 *****
 orbitals (Q,E):
 ---------------
 A :14...24          ( 1.00    -0.5060)  ( 1.00    -0.4803)  ( 1.00    -0.4453)  ( 1.00    -0.4219)
                     ( 1.00    -0.4090)  ( 1.00    -0.3205)  ( 1.00    -0.3037)  ( 1.00    -0.2786)
                     ( 1.00    -0.2711)  ( 1.00    -0.2607)  ( 0.00    -0.1438)
 ***** SPIN 2 *****
 orbitals (Q,E):
 ---------------
 A :13...23          ( 1.00    -0.5123)  ( 1.00    -0.4998)  ( 1.00    -0.4786)  ( 1.00    -0.4389)
                     ( 1.00    -0.4143)  ( 1.00    -0.3853)  ( 1.00    -0.3138)  ( 1.00    -0.3030)
                     ( 1.00    -0.2698)  ( 1.00    -0.2562)  ( 0.00    -0.2245)
  
 Spin polar: 1 (Spin_A minus Spin_B electrons)

 CYCLE   13
  SDIIS (wt  1.000):  0.0001  0.0001  0.0002 -0.0034 -0.0090 -0.0190 -0.0471  0.0731  0.4323  0.5727
  DIIS coefficients:  0.0001  0.0001  0.0002 -0.0034 -0.0090 -0.0190 -0.0471  0.0731  0.4323  0.5727
 SCF Error: norm([F,P])=      0.000486815588, max([F,P])=      0.000046176031
 ***** SPIN 1 *****
 orbitals (Q,E):
 ---------------
 A :14...24          ( 1.00    -0.5060)  ( 1.00    -0.4803)  ( 1.00    -0.4453)  ( 1.00    -0.4219)
                     ( 1.00    -0.4090)  ( 1.00    -0.3204)  ( 1.00    -0.3037)  ( 1.00    -0.2786)
                     ( 1.00    -0.2711)  ( 1.00    -0.2607)  ( 0.00    -0.1438)
 ***** SPIN 2 *****
 orbitals (Q,E):
 ---------------
 A :13...23          ( 1.00    -0.5123)  ( 1.00    -0.4997)  ( 1.00    -0.4786)  ( 1.00    -0.4389)
                     ( 1.00    -0.4142)  ( 1.00    -0.3852)  ( 1.00    -0.3138)  ( 1.00    -0.3030)
                     ( 1.00    -0.2698)  ( 1.00    -0.2562)  ( 0.00    -0.2244)
  
 Spin polar: 1 (Spin_A minus Spin_B electrons)

 CYCLE   14
  SDIIS (wt  1.000):  0.0001  0.0002 -0.0009 -0.0020 -0.0072 -0.0364 -0.0008  0.1045  0.3156  0.6270
  DIIS coefficients:  0.0001  0.0002 -0.0009 -0.0020 -0.0072 -0.0364 -0.0008  0.1045  0.3156  0.6270
 SCF Error: norm([F,P])=      0.000191010187, max([F,P])=      0.000015150478
 ***** SPIN 1 *****
 orbitals (Q,E):
 ---------------
 A :14...24          ( 1.00    -0.5060)  ( 1.00    -0.4803)  ( 1.00    -0.4453)  ( 1.00    -0.4219)
                     ( 1.00    -0.4090)  ( 1.00    -0.3204)  ( 1.00    -0.3037)  ( 1.00    -0.2786)
                     ( 1.00    -0.2711)  ( 1.00    -0.2607)  ( 0.00    -0.1438)
 ***** SPIN 2 *****
 orbitals (Q,E):
 ---------------
 A :13...23          ( 1.00    -0.5123)  ( 1.00    -0.4997)  ( 1.00    -0.4786)  ( 1.00    -0.4389)
                     ( 1.00    -0.4143)  ( 1.00    -0.3852)  ( 1.00    -0.3138)  ( 1.00    -0.3030)
                     ( 1.00    -0.2698)  ( 1.00    -0.2562)  ( 0.00    -0.2244)
  
 Spin polar: 1 (Spin_A minus Spin_B electrons)

 CYCLE   15
  SDIIS (wt  1.000):  0.0000  0.0003  0.0008  0.0003 -0.0066 -0.0103 -0.0279  0.0313  0.2117  0.8004
  DIIS coefficients:  0.0000  0.0003  0.0008  0.0003 -0.0066 -0.0103 -0.0279  0.0313  0.2117  0.8004
 SCF Error: norm([F,P])=      0.000055087554, max([F,P])=      0.000005616720
 ***** SPIN 1 *****
 orbitals (Q,E):
 ---------------
 A :14...24          ( 1.00    -0.5060)  ( 1.00    -0.4803)  ( 1.00    -0.4453)  ( 1.00    -0.4219)
                     ( 1.00    -0.4090)  ( 1.00    -0.3204)  ( 1.00    -0.3037)  ( 1.00    -0.2786)
                     ( 1.00    -0.2711)  ( 1.00    -0.2607)  ( 0.00    -0.1438)
 ***** SPIN 2 *****
 orbitals (Q,E):
 ---------------
 A :13...23          ( 1.00    -0.5123)  ( 1.00    -0.4997)  ( 1.00    -0.4786)  ( 1.00    -0.4389)
                     ( 1.00    -0.4143)  ( 1.00    -0.3852)  ( 1.00    -0.3138)  ( 1.00    -0.3030)
                     ( 1.00    -0.2698)  ( 1.00    -0.2562)  ( 0.00    -0.2245)
  
 Spin polar: 1 (Spin_A minus Spin_B electrons)

 CYCLE   16
  SDIIS (wt  1.000):  0.0002  0.0003  0.0013  0.0058  0.0016 -0.0191 -0.0430 -0.0680  0.1376  0.9833
  DIIS coefficients:  0.0002  0.0003  0.0013  0.0058  0.0016 -0.0191 -0.0430 -0.0680  0.1376  0.9833
 SCF Error: norm([F,P])=      0.000021460063, max([F,P])=      0.000002022024
 ***** SPIN 1 *****
 orbitals (Q,E):
 ---------------
 A :14...24          ( 1.00    -0.5060)  ( 1.00    -0.4803)  ( 1.00    -0.4453)  ( 1.00    -0.4219)
                     ( 1.00    -0.4090)  ( 1.00    -0.3204)  ( 1.00    -0.3037)  ( 1.00    -0.2786)
                     ( 1.00    -0.2711)  ( 1.00    -0.2607)  ( 0.00    -0.1438)
 ***** SPIN 2 *****
 orbitals (Q,E):
 ---------------
 A :13...23          ( 1.00    -0.5123)  ( 1.00    -0.4997)  ( 1.00    -0.4786)  ( 1.00    -0.4389)
                     ( 1.00    -0.4143)  ( 1.00    -0.3852)  ( 1.00    -0.3138)  ( 1.00    -0.3030)
                     ( 1.00    -0.2698)  ( 1.00    -0.2562)  ( 0.00    -0.2245)
  
 Spin polar: 1 (Spin_A minus Spin_B electrons)

 CYCLE   17
  SDIIS (wt  1.000): -0.0000  0.0001  0.0005  0.0001 -0.0046 -0.0101 -0.0275  0.0413  0.4717  0.5285
  DIIS coefficients: -0.0000  0.0001  0.0005  0.0001 -0.0046 -0.0101 -0.0275  0.0413  0.4717  0.5285
 SCF Error: norm([F,P])=      0.000020998182, max([F,P])=      0.000002194147
 ***** SPIN 1 *****
 orbitals (Q,E):
 ---------------
 A :14...24          ( 1.00    -0.5060)  ( 1.00    -0.4803)  ( 1.00    -0.4453)  ( 1.00    -0.4219)
                     ( 1.00    -0.4090)  ( 1.00    -0.3204)  ( 1.00    -0.3037)  ( 1.00    -0.2786)
                     ( 1.00    -0.2711)  ( 1.00    -0.2607)  ( 0.00    -0.1438)
 ***** SPIN 2 *****
 orbitals (Q,E):
 ---------------
 A :13...23          ( 1.00    -0.5123)  ( 1.00    -0.4997)  ( 1.00    -0.4786)  ( 1.00    -0.4389)
                     ( 1.00    -0.4143)  ( 1.00    -0.3852)  ( 1.00    -0.3138)  ( 1.00    -0.3030)
                     ( 1.00    -0.2698)  ( 1.00    -0.2562)  ( 0.00    -0.2245)
  
 Spin polar: 1 (Spin_A minus Spin_B electrons)

 CYCLE   18
  SDIIS (wt  1.000):  0.0001  0.0002  0.0000 -0.0011 -0.0021 -0.0103 -0.0029  0.0822  0.1606  0.7733
  DIIS coefficients:  0.0001  0.0002  0.0000 -0.0011 -0.0021 -0.0103 -0.0029  0.0822  0.1606  0.7733
 SCF Error: norm([F,P])=      0.000003778018, max([F,P])=      0.000000411634
 ***** SPIN 1 *****
 orbitals (Q,E):
 ---------------
 A :14...24          ( 1.00    -0.5060)  ( 1.00    -0.4803)  ( 1.00    -0.4453)  ( 1.00    -0.4219)
                     ( 1.00    -0.4090)  ( 1.00    -0.3204)  ( 1.00    -0.3037)  ( 1.00    -0.2786)
                     ( 1.00    -0.2711)  ( 1.00    -0.2607)  ( 0.00    -0.1438)
 ***** SPIN 2 *****
 orbitals (Q,E):
 ---------------
 A :13...23          ( 1.00    -0.5123)  ( 1.00    -0.4997)  ( 1.00    -0.4786)  ( 1.00    -0.4389)
                     ( 1.00    -0.4143)  ( 1.00    -0.3852)  ( 1.00    -0.3138)  ( 1.00    -0.3030)
                     ( 1.00    -0.2698)  ( 1.00    -0.2562)  ( 0.00    -0.2245)
  
 Spin polar: 1 (Spin_A minus Spin_B electrons)

 SCF CONVERGED

 CYCLE   19
 ***************************************************************************************************



                                                *******************
                                                *  R E S U L T S  *
                                                *******************
  
 *** Using FIT density in Focky
  SDIIS (wt  1.000): -0.0002  0.0000  0.0012  0.0018 -0.0020 -0.0223 -0.0699  0.0130  0.4282  0.6501
  DIIS coefficients: -0.0002  0.0000  0.0012  0.0018 -0.0020 -0.0223 -0.0699  0.0130  0.4282  0.6501
 SCF Error: norm([F,P])=      0.000002645926, max([F,P])=      0.000000278612


                                   ***** SPIN 1 *****

 Scaled ZORA Orbital Energies, per Irrep and Spin:
 =================================================
                        Occup              E (au)              E (eV)       Diff (eV) with prev. cycle
                        -----      --------------------        ------       --------------------------
 A
              14        1.000     -0.50602773880390E+00       -13.770               3.18E-06
              15        1.000     -0.48029621702545E+00       -13.070               4.54E-06
              16        1.000     -0.44533068463478E+00       -12.118               4.41E-06
              17        1.000     -0.42191929449957E+00       -11.481               5.51E-06
              18        1.000     -0.40901093668657E+00       -11.130               5.05E-06
              19        1.000     -0.32043692830860E+00        -8.720               8.22E-06
              20        1.000     -0.30367097515468E+00        -8.263               4.54E-06
              21        1.000     -0.27863143915284E+00        -7.582               5.11E-06
              22        1.000     -0.27111997051513E+00        -7.378               4.62E-06
              23        1.000     -0.26071531278323E+00        -7.094               7.82E-06
              24        0.000     -0.14380106025509E+00        -3.913
              25        0.000     -0.50818067677430E-01        -1.383
              26        0.000     -0.11062020183141E-01        -0.301
              27        0.000      0.21248023757091E-01         0.578
              28        0.000      0.63664036286840E-01         1.732
              29        0.000      0.10313287956683E+00         2.806
              30        0.000      0.11241564837692E+00         3.059
              31        0.000      0.11690146893431E+00         3.181
              32        0.000      0.14654378852746E+00         3.988
              33        0.000      0.18505209573151E+00         5.036
  
 HOMO :       23 A                -0.26071531278323E+00
 LUMO :       24 A                -0.14380106025509E+00
  


                                   ***** SPIN 2 *****

 Scaled ZORA Orbital Energies, per Irrep and Spin:
 =================================================
                        Occup              E (au)              E (eV)       Diff (eV) with prev. cycle
                        -----      --------------------        ------       --------------------------
 A
              13        1.000     -0.51227236963303E+00       -13.940               2.14E-06
              14        1.000     -0.49973308010353E+00       -13.598               3.44E-06
              15        1.000     -0.47859081799874E+00       -13.023               4.28E-06
              16        1.000     -0.43888510340849E+00       -11.943               3.86E-06
              17        1.000     -0.41425103207201E+00       -11.272               4.75E-06
              18        1.000     -0.38523958192235E+00       -10.483               5.60E-06
              19        1.000     -0.31384413137387E+00        -8.540               5.12E-06
              20        1.000     -0.30302551601420E+00        -8.246               4.79E-06
              21        1.000     -0.26979275069445E+00        -7.341               4.68E-06
              22        1.000     -0.25619628223766E+00        -6.971               5.72E-06
              23        0.000     -0.22445162212796E+00        -6.108
              24        0.000     -0.13473444943504E+00        -3.666
              25        0.000     -0.35959328025436E-01        -0.979
              26        0.000     -0.75784029493611E-02        -0.206
              27        0.000      0.22316227684745E-01         0.607
              28        0.000      0.65252281258580E-01         1.776
              29        0.000      0.10334612491910E+00         2.812
              30        0.000      0.11598793245286E+00         3.156
              31        0.000      0.12862641700077E+00         3.500
              32        0.000      0.14859508808907E+00         4.043
  
 HOMO :       22 A                -0.25619628223766E+00
 LUMO :       23 A                -0.22445162212796E+00
  


 Orbital Energies, both Spins
 ========================================

 Irrep        no.  (spin)   Occup              E (au)                E (eV)
 ---------------------------------------------------------------------------
 A             1     A       1.00       -0.18849522910079E+02      -512.9216
 A             1      B      1.00       -0.18848498207750E+02      -512.8937
 A             2     A       1.00       -0.18846773219138E+02      -512.8468
 A             2      B      1.00       -0.18845017900737E+02      -512.7990
 A             3     A       1.00       -0.18844688455616E+02      -512.7901
 A             3      B      1.00       -0.18837440993001E+02      -512.5929
 A             4      B      1.00       -0.14255206831018E+02      -387.9039
 A             4     A       1.00       -0.14255128959459E+02      -387.9018
 A             5      B      1.00       -0.10065249440951E+02      -273.8894
 A             5     A       1.00       -0.10064190089439E+02      -273.8605
 A             6     A       1.00       -0.99995988936756E+01      -272.1029
 A             6      B      1.00       -0.99907295947771E+01      -271.8616
 A             7     A       1.00       -0.11635358242085E+01       -31.6614
 A             7      B      1.00       -0.11631236387271E+01       -31.6502
 A             8     A       1.00       -0.10072227585007E+01       -27.4079
 A             8      B      1.00       -0.10013721194703E+01       -27.2487
 A             9     A       1.00       -0.99284408865173E+00       -27.0167
 A             9      B      1.00       -0.98329191866724E+00       -26.7567
 A            10     A       1.00       -0.76605019635550E+00       -20.8453
 A            10      B      1.00       -0.75268607643648E+00       -20.4816
 A            11     A       1.00       -0.67434833474223E+00       -18.3500
 A            11      B      1.00       -0.66645892249932E+00       -18.1353
 A            12     A       1.00       -0.53082942593802E+00       -14.4446
 A            12      B      1.00       -0.52898953840272E+00       -14.3945
 A            13     A       1.00       -0.51436350565583E+00       -13.9965
 A            13      B      1.00       -0.51227236963303E+00       -13.9396
 A            14     A       1.00       -0.50602773880390E+00       -13.7697
 A            14      B      1.00       -0.49973308010353E+00       -13.5984
 A            15     A       1.00       -0.48029621702545E+00       -13.0695
 A            15      B      1.00       -0.47859081799874E+00       -13.0231
 A            16     A       1.00       -0.44533068463478E+00       -12.1181
 A            16      B      1.00       -0.43888510340849E+00       -11.9427
 A            17     A       1.00       -0.42191929449957E+00       -11.4810
 A            17      B      1.00       -0.41425103207201E+00       -11.2723
 A            18     A       1.00       -0.40901093668657E+00       -11.1298
 A            18      B      1.00       -0.38523958192235E+00       -10.4829
 A            19     A       1.00       -0.32043692830860E+00        -8.7195
 A            19      B      1.00       -0.31384413137387E+00        -8.5401
 A            20     A       1.00       -0.30367097515468E+00        -8.2633
 A            20      B      1.00       -0.30302551601420E+00        -8.2457
 A            21     A       1.00       -0.27863143915284E+00        -7.5819
 A            22     A       1.00       -0.27111997051513E+00        -7.3775
 A            21      B      1.00       -0.26979275069445E+00        -7.3414
 A            23     A       1.00       -0.26071531278323E+00        -7.0944
 A            22      B      1.00       -0.25619628223766E+00        -6.9715
 A            23      B      0.00       -0.22445162212796E+00        -6.1076
 A            24     A       0.00       -0.14380106025509E+00        -3.9130
 A            24      B      0.00       -0.13473444943504E+00        -3.6663
 A            25     A       0.00       -0.50818067677430E-01        -1.3828
 A            25      B      0.00       -0.35959328025436E-01        -0.9785
 A            26     A       0.00       -0.11062020183141E-01        -0.3010
 A            26      B      0.00       -0.75784029493611E-02        -0.2062
 A            27     A       0.00        0.21248023757091E-01         0.5782
 A            27      B      0.00        0.22316227684745E-01         0.6073
 A            28     A       0.00        0.63664036286840E-01         1.7324
 A            28      B      0.00        0.65252281258580E-01         1.7756
 A            29     A       0.00        0.10313287956683E+00         2.8064
 A            29      B      0.00        0.10334612491910E+00         2.8122
 A            30     A       0.00        0.11241564837692E+00         3.0590
 A            30      B      0.00        0.11598793245286E+00         3.1562
 A            31     A       0.00        0.11690146893431E+00         3.1811
 A            31      B      0.00        0.12862641700077E+00         3.5001
 A            32     A       0.00        0.14654378852746E+00         3.9877
 A            32      B      0.00        0.14859508808907E+00         4.0435
 A            33     A       0.00        0.18505209573151E+00         5.0355
 A            33      B      0.00        0.19673358399980E+00         5.3534
 A            34     A       0.00        0.21453543470460E+00         5.8378
 A            34      B      0.00        0.22513608463085E+00         6.1263
 A            35     A       0.00        0.22717246148380E+00         6.1817
 A            35      B      0.00        0.22864685512419E+00         6.2218
 A            36     A       0.00        0.24657608042501E+00         6.7097
 A            36      B      0.00        0.25214379848989E+00         6.8612
 A            37     A       0.00        0.25281677433530E+00         6.8795
 A            37      B      0.00        0.25680871855020E+00         6.9881
 A            38     A       0.00        0.28706312714395E+00         7.8114
 A            38      B      0.00        0.29162172199184E+00         7.9354
 A            39     A       0.00        0.31916596665239E+00         8.6849
 A            39      B      0.00        0.32144670831397E+00         8.7470
 A            40     A       0.00        0.34770052181214E+00         9.4614
 A            40      B      0.00        0.35038900588553E+00         9.5346
 A            41     A       0.00        0.36814426333455E+00        10.0177
 A            41      B      0.00        0.37385875903311E+00        10.1732
 A            42     A       0.00        0.39131879908135E+00        10.6483
 A            42      B      0.00        0.39539807532811E+00        10.7593
 A            43     A       0.00        0.40170883776760E+00        10.9311
 A            43      B      0.00        0.40477029618506E+00        11.0144
 A            44     A       0.00        0.41495241384060E+00        11.2914
 A            44      B      0.00        0.41667168554891E+00        11.3382
 A            45     A       0.00        0.45612989437876E+00        12.4119
 A            45      B      0.00        0.46070067981886E+00        12.5363
 A            46     A       0.00        0.47390551125739E+00        12.8956
 A            46      B      0.00        0.47595949126188E+00        12.9515
 A            47     A       0.00        0.52525846462465E+00        14.2930
 A            47      B      0.00        0.53569069839014E+00        14.5769
 A            48     A       0.00        0.55131389918385E+00        15.0020
 A            48      B      0.00        0.55805113578009E+00        15.1853
 A            49     A       0.00        0.56237265585897E+00        15.3029
 A            49      B      0.00        0.56934166941561E+00        15.4926
 A            50     A       0.00        0.61005805300186E+00        16.6005
 A            50      B      0.00        0.61473131033564E+00        16.7277
 A            51     A       0.00        0.62652466465354E+00        17.0486
 A            51      B      0.00        0.63028761681253E+00        17.1510
 A            52     A       0.00        0.65601933135551E+00        17.8512
 A            52      B      0.00        0.65797477933111E+00        17.9044
 A            53     A       0.00        0.67008610684371E+00        18.2340
 A            53      B      0.00        0.67584683156281E+00        18.3907
 A            54     A       0.00        0.72025933939103E+00        19.5993
 A            54      B      0.00        0.72331814544987E+00        19.6825
 A            55     A       0.00        0.75819844193661E+00        20.6316
 A            55      B      0.00        0.76156534858669E+00        20.7232
 A            56     A       0.00        0.84592814852376E+00        23.0189
 A            56      B      0.00        0.85011185324200E+00        23.1327
 A            57     A       0.00        0.87251651751806E+00        23.7424
 A            57      B      0.00        0.87777180173578E+00        23.8854
 A            58     A       0.00        0.88240560839367E+00        24.0115
 A            58      B      0.00        0.88971939412584E+00        24.2105
 A            59     A       0.00        0.89816920895149E+00        24.4404
 A            59      B      0.00        0.90105636426617E+00        24.5190
 A            60     A       0.00        0.96760576027477E+00        26.3299
 A            60      B      0.00        0.97277527983821E+00        26.4706
 A            61     A       0.00        0.99926339474558E+00        27.1913
 A            61      B      0.00        0.10059874885807E+01        27.3743
 A            62     A       0.00        0.10543872064624E+01        28.6913
 A            62      B      0.00        0.10635057072748E+01        28.9395
 A            63     A       0.00        0.10869699290093E+01        29.5780
 A            63      B      0.00        0.10939509611724E+01        29.7679
 A            64     A       0.00        0.11097670669733E+01        30.1983
 A            64      B      0.00        0.11145067055619E+01        30.3273
 A            65     A       0.00        0.11350201641519E+01        30.8855
 A            65      B      0.00        0.11415887228671E+01        31.0642
 A            66     A       0.00        0.11680316427102E+01        31.7838
 A            66      B      0.00        0.11776745301936E+01        32.0462
 A            67     A       0.00        0.12083895009042E+01        32.8820
 A            67      B      0.00        0.12149436554620E+01        33.0603
 A            68     A       0.00        0.12721978867037E+01        34.6183
 A            68      B      0.00        0.12754494655372E+01        34.7067
[...]
                                    1.87%     1 P:y            -9.020  1.33     5 O
                                    1.87%     1 P:z            -9.020  1.33     4 O
                                    1.79%     1 P:y            -9.020  1.33     4 O
      -8.540  1.00    19 A         38.23%     1 P:z            -9.020  1.33     6 O
                                   26.92%     1 P:z            -9.020  1.33     4 O
                                   10.45%     1 P:y            -9.020  1.33     4 O
                                    4.41%     1 P:z            -9.020  1.33     5 O
                                    2.62%     1 P:y            -9.020  1.33     5 O
                                    2.55%     1 P:z            -5.239  0.67     2 C
                                    2.40%     1 P:y            -5.239  0.67     2 C
                                    1.98%     2 S             -13.620  2.00     2 C
                                    1.54%     1 S              -6.532  1.00     7 H
                                    1.31%     1 P:x            -9.020  1.33     4 O
      -8.246  1.00    20 A         22.60%     1 P:x            -9.020  1.33     4 O
                                   21.66%     1 P:x            -9.020  1.33     5 O
                                   20.83%     1 P:y            -9.020  1.33     5 O
                                   14.10%     1 P:y            -9.020  1.33     4 O
                                   11.31%     1 P:z            -9.020  1.33     4 O
                                    6.25%     1 P:z            -9.020  1.33     5 O
                                    1.17%     1 D:x2-y2        34.005  0.00     3 N
      -7.341  1.00    21 A         45.12%     1 P:y            -9.020  1.33     5 O
                                   19.62%     1 P:x            -9.020  1.33     5 O
                                   10.33%     1 P:z            -9.020  1.33     5 O
                                    4.96%     1 P:z            -9.020  1.33     4 O
                                    4.91%     1 P:z            -9.020  1.33     6 O
                                    3.10%     1 P:x            -9.020  1.33     4 O
                                    1.16%     1 P:y            -5.239  0.67     2 C
                                    1.06%     1 P:z            -5.239  0.67     1 C
                                    1.05%     1 P:x            -9.020  1.33     6 O
                                    1.01%     1 P:z            -5.239  0.67     2 C
      -6.971  1.00    22 A         33.95%     1 P:z            -9.020  1.33     6 O
                                   30.63%     1 P:z            -9.020  1.33     4 O
                                    9.14%     1 P:y            -9.020  1.33     4 O
                                    9.08%     1 P:y            -9.020  1.33     6 O
                                    2.08%     1 P:z            -9.020  1.33     5 O
                                    1.56%     1 P:x            -9.020  1.33     5 O
                                    1.53%     1 P:y            -9.020  1.33     5 O
                                    1.52%     2 S             -18.450  2.00     3 N
                                    1.34%     1 P:y            -5.239  0.67     1 C
                                    1.23%     1 P:z            -5.239  0.67     1 C
      -6.108  0.00    23 A         38.67%     1 P:x            -5.239  0.67     1 C
                                   27.40%     1 P:x            -9.020  1.33     6 O
                                    7.13%     1 P:y            -9.020  1.33     6 O
                                    6.82%     1 P:y            -5.239  0.67     1 C
                                    5.88%     1 P:x            -5.239  0.67     2 C
                                    2.81%     1 P:z            -9.020  1.33     6 O
                                    2.18%     1 P:y            -9.020  1.33     4 O
                                    1.33%     1 P:x            -9.020  1.33     4 O
                                    1.25%     2 S             -13.620  2.00     1 C
                                    1.17%     1 P:x            11.051  0.00     8 H
      -3.666  0.00    24 A         14.83%     1 P:x            -7.062  1.00     3 N
                                   12.71%     1 P:x            -9.020  1.33     5 O
                                   12.20%     1 P:x            -5.239  0.67     1 C
                                   11.77%     1 P:x            -9.020  1.33     4 O
                                   10.42%     1 P:y            -7.062  1.00     3 N
                                    8.84%     1 P:y            -9.020  1.33     5 O
                                    8.66%     1 P:y            -9.020  1.33     4 O
                                    4.90%     1 P:z            -9.020  1.33     5 O
                                    4.77%     1 P:z            -7.062  1.00     3 N
                                    3.96%     1 P:z            -9.020  1.33     4 O
                                    2.75%     1 P:x            -9.020  1.33     6 O
                                    1.91%     1 P:x            -5.239  0.67     2 C
                                   -1.11%     2 P:x             7.649  0.00     3 N
      -0.979  0.00    25 A         33.42%     1 P:x            -5.239  0.67     2 C
                                   19.17%     1 P:x            -5.239  0.67     1 C
                                   11.78%     1 P:x            -9.020  1.33     6 O
                                    6.80%     1 P:y            -5.239  0.67     2 C
                                    6.01%     1 P:y            -7.062  1.00     3 N
                                   -5.73%     2 P:x             4.589  0.00     2 C
                                    3.54%     1 P:y            -5.239  0.67     1 C
                                    3.46%     1 P:x            -7.062  1.00     3 N
                                    3.04%     1 P:y            -9.020  1.33     5 O
                                    2.98%     1 P:y            -9.020  1.33     6 O
                                    2.97%     2 S               2.394  0.00     8 H
                                    2.31%     2 S               2.394  0.00     7 H
                                    2.12%     2 S             -13.620  2.00     2 C
                                    1.94%     1 P:x            -9.020  1.33     5 O
                                   -1.89%     2 P:x             9.437  0.00     6 O
                                    1.67%     1 P:x            -9.020  1.33     4 O
                                    1.66%     1 P:y            -9.020  1.33     4 O
                                    1.18%     1 P:z            -7.062  1.00     3 N
      -0.206  0.00    26 A         44.79%     2 S               2.394  0.00     8 H
                                   28.11%     2 S               2.394  0.00     7 H
                                   26.87%     1 S              -6.532  1.00     8 H
                                   15.91%     1 S              -6.532  1.00     7 H
                                   -9.53%     3 S              10.158  0.00     1 C
                                   -6.21%     2 P:z             4.589  0.00     1 C
                                   -3.49%     2 P:z             4.589  0.00     2 C
                                    2.62%     2 S             -13.620  2.00     1 C
                                   -1.97%     3 S              10.158  0.00     2 C
                                    1.64%     1 P:x            -5.239  0.67     2 C
                                   -1.58%     2 S             -13.620  2.00     2 C
                                    1.57%     1 P:z            -5.239  0.67     1 C
                                   -1.40%     3 S              40.869  0.00     8 H
                                    1.04%     1 P:y            11.051  0.00     8 H
                                   -1.01%     3 S              40.869  0.00     7 H
       0.607  0.00    27 A         44.75%     1 S              -6.532  1.00     7 H
                                  -39.65%     2 P:y             4.589  0.00     1 C
                                   35.39%     1 S              -6.532  1.00     8 H
                                   25.69%     2 S               2.394  0.00     7 H
                                    8.55%     2 S               2.394  0.00     8 H
                                   -6.76%     2 P:x             4.589  0.00     1 C
                                    6.20%     2 P:z             4.589  0.00     2 C
                                    5.27%     1 P:y            -5.239  0.67     1 C
                                    5.15%     2 P:y             4.589  0.00     2 C
                                    4.24%     2 S             -18.450  2.00     3 N
                                    2.05%     3 S              40.869  0.00     8 H
                                   -1.93%     2 P:z             4.589  0.00     1 C
                                    1.37%     1 P:z            -9.020  1.33     5 O
                                   -1.17%     3 S              21.524  0.00     4 O



 =======================================================================
 Electrostatic potential at the Nuclei due to electrons and other nuclei
 =======================================================================
  
         Atom                  Potential
         ----                  ---------
     1)   C                  14.71997782
     2)   C                  14.64974622
     3)   N                  18.18644922
     4)   O                  22.35232945
     5)   O                  22.35698717
     6)   O                  22.35773674
     7)   H                   1.03984728
     8)   H                   1.03855285
 Mulliken charges used for AMS results%charges...


    =====================
     CALCULATION RESULTS
    =====================

Energy (hartree)            -1.71762629


--------------
Atomic charges
--------------
  Index   Atom    Charge
      1      C    0.4223
      2      C    0.3694
      3      N    0.5580
      4      O   -0.3792
      5      O   -0.3418
      6      O   -0.4079
      7      H   -0.0980
      8      H   -0.1226


Dipole moment vector    (Debye):    -0.62405640   -0.00303639   -3.81008541
              magnitude (Debye):     3.86085566


-----------------------
Molecular orbitals info
-----------------------
n orbitals:              178
n spin:                    2

Note: only printing virtual orbitals with
      energy smaller than HOMO + 100. eV

                     spin-alpha   spin-beta
HOMO (eV):              -7.0944     -6.9715
LUMO (eV):              -3.9130     -6.1076
HOMO-LUMO gap (eV):      3.1814      0.8638

Smallest gap (eV):       0.8638

          |======= spin-alpha =======|       |======= spin-beta ========|

   Index   Energy (eV)    Occupation          Energy (eV)    Occupation
     111       92.8667         0.000              93.0822         0.000       
     110       92.4874         0.000              92.6751         0.000       
     109       91.9625         0.000              92.0732         0.000       
     108       91.0799         0.000              91.3848         0.000       
     107       90.1231         0.000              90.3192         0.000       
     106       89.2901         0.000              89.3985         0.000       
     105       87.3046         0.000              87.5968         0.000       
     104       86.0740         0.000              86.1910         0.000       
     103       84.3428         0.000              84.6148         0.000       
     102       81.5704         0.000              81.9933         0.000       
     101       79.2944         0.000              79.5670         0.000       
     100       77.8241         0.000              77.8889         0.000       
      99       76.6203         0.000              76.7053         0.000       
      98       75.1271         0.000              75.3694         0.000       
      97       73.6978         0.000              73.8201         0.000       
      96       71.8601         0.000              71.9247         0.000       
      95       68.9220         0.000              68.9961         0.000       
      94       67.2090         0.000              67.4494         0.000       
      93       65.4155         0.000              65.5120         0.000       
      92       64.2650         0.000              64.4281         0.000       
      91       62.7636         0.000              62.9782         0.000       
      90       60.8925         0.000              61.0199         0.000       
      89       59.7502         0.000              60.0071         0.000       
      88       58.9082         0.000              59.1281         0.000       
      87       57.7467         0.000              57.9137         0.000       
      86       57.3777         0.000              57.4640         0.000       
      85       56.0510         0.000              56.1530         0.000       
      84       54.5478         0.000              54.7090         0.000       
      83       52.8181         0.000              53.3091         0.000       
      82       50.8659         0.000              51.0117         0.000       
      81       50.2755         0.000              50.4527         0.000       
      80       49.6176         0.000              49.7679         0.000       
      79       47.5993         0.000              47.7150         0.000       
      78       47.1301         0.000              47.4079         0.000       
      77       45.0682         0.000              45.1058         0.000       
      76       43.0617         0.000              43.4480         0.000       
      75       42.8578         0.000              43.0457         0.000       
      74       41.9376         0.000              42.3805         0.000       
      73       40.8728         0.000              41.1571         0.000       
      72       39.0035         0.000              39.2483         0.000       
      71       37.1150         0.000              37.2956         0.000       
      70       35.0175         0.000              35.2337         0.000       
      69       34.7326         0.000              35.0348         0.000       
      68       34.6183         0.000              34.7067         0.000       
      67       32.8820         0.000              33.0603         0.000       
      66       31.7838         0.000              32.0462         0.000       
      65       30.8855         0.000              31.0642         0.000       
      64       30.1983         0.000              30.3273         0.000       
      63       29.5780         0.000              29.7679         0.000       
      62       28.6913         0.000              28.9395         0.000       
      61       27.1913         0.000              27.3743         0.000       
      60       26.3299         0.000              26.4706         0.000       
      59       24.4404         0.000              24.5190         0.000       
      58       24.0115         0.000              24.2105         0.000       
      57       23.7424         0.000              23.8854         0.000       
      56       23.0189         0.000              23.1327         0.000       
      55       20.6316         0.000              20.7232         0.000       
      54       19.5993         0.000              19.6825         0.000       
      53       18.2340         0.000              18.3907         0.000       
      52       17.8512         0.000              17.9044         0.000       
      51       17.0486         0.000              17.1510         0.000       
      50       16.6005         0.000              16.7277         0.000       
      49       15.3029         0.000              15.4926         0.000       
      48       15.0020         0.000              15.1853         0.000       
      47       14.2930         0.000              14.5769         0.000       
      46       12.8956         0.000              12.9515         0.000       
      45       12.4119         0.000              12.5363         0.000       
      44       11.2914         0.000              11.3382         0.000       
      43       10.9311         0.000              11.0144         0.000       
      42       10.6483         0.000              10.7593         0.000       
      41       10.0177         0.000              10.1732         0.000       
      40        9.4614         0.000               9.5346         0.000       
      39        8.6849         0.000               8.7470         0.000       
      38        7.8114         0.000               7.9354         0.000       
      37        6.8795         0.000               6.9881         0.000       
      36        6.7097         0.000               6.8612         0.000       
      35        6.1817         0.000               6.2218         0.000       
      34        5.8378         0.000               6.1263         0.000       
      33        5.0355         0.000               5.3534         0.000       
      32        3.9877         0.000               4.0435         0.000       
      31        3.1811         0.000               3.5001         0.000       
      30        3.0590         0.000               3.1562         0.000       
      29        2.8064         0.000               2.8122         0.000       
      28        1.7324         0.000               1.7756         0.000       
      27        0.5782         0.000               0.6073         0.000       
      26       -0.3010         0.000              -0.2062         0.000       
      25       -1.3828         0.000              -0.9785         0.000       
      24       -3.9130         0.000 < LUMO       -3.6663         0.000       
      23       -7.0944         1.000 < HOMO       -6.1076         0.000 < LUMO
      22       -7.3775         1.000              -6.9715         1.000 < HOMO
      21       -7.5819         1.000              -7.3414         1.000       
      20       -8.2633         1.000              -8.2457         1.000       
      19       -8.7195         1.000              -8.5401         1.000       
      18      -11.1298         1.000             -10.4829         1.000       
      17      -11.4810         1.000             -11.2723         1.000       
      16      -12.1181         1.000             -11.9427         1.000       
      15      -13.0695         1.000             -13.0231         1.000       
      14      -13.7697         1.000             -13.5984         1.000       
      13      -13.9965         1.000             -13.9396         1.000       
      12      -14.4446         1.000             -14.3945         1.000       
      11      -18.3500         1.000             -18.1353         1.000       
      10      -20.8453         1.000             -20.4816         1.000       
       9      -27.0167         1.000             -26.7567         1.000       
       8      -27.4079         1.000             -27.2487         1.000       
       7      -31.6614         1.000             -31.6502         1.000       
       6     -272.1029         1.000            -271.8616         1.000       
       5     -273.8605         1.000            -273.8894         1.000       
       4     -387.9018         1.000            -387.9039         1.000       
       3     -512.7901         1.000            -512.5929         1.000       
       2     -512.8468         1.000            -512.7990         1.000       
       1     -512.9216         1.000            -512.8937         1.000       

AMS application finished. Exiting.
NORMAL TERMINATION
     Total cpu time:      87.79
  Total system time:       0.70
 Total elapsed time:      89.01
