srun: Step created for StepId=663081.73

 *******************************************************************************
 *                                                                             *
 *  --------------------------------                                           *
 *   Amsterdam Modeling Suite (AMS)              2026.103                      *
 *  --------------------------------                                           *
 *                                               r260501 2026-05-01 873454b5   *
 *                                                                             *
 *                                                                             *
 *                              =================                              *
 *                              |               |                              *
 *                              |     A M S     |                              *
 *                              |               |                              *
 *                              =================                              *
 *                                                                             *
 *                                                                             *
 *   Online information and documentation:  https://www.scm.com/support/       *
 *   E-mail:  support@scm.com   info@scm.com                                   *
 *                                                                             *
 *   Scientific publications using AMS results must be properly referenced     *
 *   See the User Manuals (or the web site) for recommended citations          *
 *   The terms and conditions of the End User License Agreement apply to       *
 *   the use of AMS, https://www.scm.com/license-terms/                        *
 *                                                                             *
 **********************  x86_64_linux_intel / intelmpi  ************************
 
 Licensed to: Jong-June Jeon / University of Seoul 2026-06-02 13:44:15
 SCM User ID: u30731
  
 AMS 2026.103  RunTime: Jun03-2026 23:47:48  ShM Nodes: 1  Procs: 1

 AMS jobname: c5_fragB_opt
 AMS jobid  : 266868238

 Start   directory: /gpfs/home1/yeseo1ee/projects/eda-asm-prediction/ADF_800/adf_outputs/batch_005/qmrxn20_sn2_A_A_D_E_A_D/
 Results directory: /gpfs/home1/yeseo1ee/projects/eda-asm-prediction/ADF_800/adf_outputs/batch_005/qmrxn20_sn2_A_A_D_E_A_D/c5_fragB_opt.results/
 Scratch directory: /tmp/amstmp_c5_fragB_opt_kid0.266868238/

 RNG seed: -55637171 -2128354249 -1716727302 623266243 1196093672 -654765799 -246881 -844286383



                      ************************************************************************
                      *  ADF 2026.103  RunTime: Jun03-2026 23:47:48  ShM Nodes: 1  Procs: 1  *
                      ************************************************************************
  

       ***************************
       *  GEOMETRY OPTIMIZATION  *
       ***************************

Optimization Method                    Quasi Newton
Optimization Coordinates               Delocalized Coordinates
Optimize lattice                       F
 
 ------------------------------------------------------
 Convergence criteria (Hartree,Angstrom)
 ------------------------------------------------------
 Maximum gradient               0.000100000000
 Maximum rms gradient           0.000066666667
 Maximum step allowed           0.010000000000
 Maximum rms step allowed       0.006666666667
 Maximum energy change allowe   0.000130000000
 Maximum stress energy allowe   0.000500000000
 
Initial model Hessian                  Automatic Hessian
 
------------------------------------
Quasi-Newton Optimizer Parameters
------------------------------------
Hessian Update Method                  BFGS
Maximum number of steps                  200
First GDIIS cycle                          0
Maximum GDIIS vectors                      0
Trust radius (bohr)                        0.200000
Trust radius varies                        T
Constraints converged at all steps         T
Use projector                              T
 
 Rigid motions settings for: old optimizer
 Atomic rotations (x,y,z):     T T T
 Atomic translations (x,y,z):  T T T
 Tolerance:                  1.000000000000000E-006

--------
Geometry
--------
Formula: C3H8BrN
Atoms
  Index Symbol   x (angstrom)   y (angstrom)   z (angstrom)
      1      C     0.68788112     0.05371005    -0.03748979
      2      H     1.70306022     1.93522212    -0.15062909
      3     Br     2.92749085    -0.42851846     0.35389678
      4      C     0.67827079     1.57319584    -0.04982537
      5      H     0.66383948    -0.45919492    -0.98266946
      6      H     0.39591562    -0.48778341     0.83999632
      7      C     0.09543055     2.07658773     1.27061586
      8      H    -0.91290173     1.67109279     1.35275067
      9      H     0.70100064     1.74333977     2.12037286
     10      H     0.06136044     3.17242859     1.28538099
     11      N    -0.06690686     2.00332255    -1.23820405
     12      H    -0.25581901     2.99698097    -1.15272290
     13      H    -0.94394371     1.48430774    -1.14797373

Total System Charge              0.00000


----------------
ADF Engine Input
----------------
 
   Basis
     Type TZ2P
     Core None
   End
   XC
     GGA BLYP
     Dispersion GRIMME3 BJDAMP
   End
   Symmetry NOSYM
   NumericalQuality Normal
   Unrestricted No
   SCF
     Iterations 200
     Converge 1.0e-6
   End
   Save TAPE21
 

 Title: *** (NO TITLE) ***

 Using automatic Hessian for delocalized coordinates.
 *** GO1_GOStep1 ***

 Energy gradients wrt nuclear displacements
 ==========================================

     Atom      Cartesian (a.u./angstrom)
                 X         Y         Z
 ----------------------------------------
     1 C    -0.116816  0.001061 -0.007029
     2 H    -0.002844 -0.000636  0.001715
     3 Br    0.047649 -0.002407  0.007083
     4 C    -0.009441  0.005388 -0.011941
     5 H     0.015008  0.004711  0.011970
     6 H     0.023875  0.004706 -0.009260
     7 C    -0.004852 -0.007190 -0.003306
     8 H     0.011345 -0.003192 -0.011045
     9 H     0.000694  0.001654 -0.002977
    10 H     0.003271  0.000199 -0.001012
    11 N     0.005066  0.023783  0.002399
    12 H     0.010384 -0.010100  0.004262
    13 H     0.016661 -0.017976  0.019141
 ----------------------------------------
 
----------------------------------------------------------------------
Geometry Convergence after Step   1       (Hartree/Angstrom,Angstrom)
----------------------------------------------------------------------
current energy                               -2.32774457 Hartree
energy change                      -2.32774457     0.00013000    F
constrained gradient max            0.11687643     0.00010000    F
constrained gradient rms            0.02237594     0.00006667    F
gradient max                        0.11687643
gradient rms                        0.02237594
cart. step max                      0.10214895     0.01000000    F
cart. step rms                      0.02770243     0.00666667    F
 

--------
Geometry
--------
Formula: C3H8BrN
Atoms
  Index Symbol   x (angstrom)   y (angstrom)   z (angstrom)
      1      C     0.73967843     0.05659398    -0.03670184
      2      H     1.70196952     1.96304440    -0.14136810
      3     Br     2.92569401    -0.53066741     0.35200549
      4      C     0.68390974     1.57897175    -0.03822998
      5      H     0.68723521    -0.44394677    -0.99440116
      6      H     0.40831289    -0.48686677     0.83508841
      7      C     0.09255200     2.08557904     1.28976210
      8      H    -0.91659207     1.67858117     1.41035208
      9      H     0.71050958     1.77122776     2.13934513
     10      H     0.03989738     3.18070239     1.29655803
     11      N    -0.07849180     1.99460912    -1.24303590
     12      H    -0.28680165     2.99153765    -1.18099256
     13      H    -0.97319484     1.49532504    -1.22488264

Total System Charge              0.00000

 *** GO1_GOStep2 ***

 Energy gradients wrt nuclear displacements
 ==========================================

     Atom      Cartesian (a.u./angstrom)
                 X         Y         Z
 ----------------------------------------
     1 C    -0.097122  0.009690 -0.010174
     2 H    -0.001250 -0.001951  0.003310
     3 Br    0.048252 -0.012833  0.007913
     4 C     0.008038  0.006196 -0.004542
     5 H     0.013613  0.000645  0.003995
     6 H     0.020066  0.000800 -0.000054
     7 C    -0.003394 -0.001989 -0.000305
     8 H     0.004485 -0.001704 -0.004837
     9 H    -0.000103  0.001188 -0.001490
    10 H     0.001399  0.000065  0.000100
    11 N    -0.000038  0.011344 -0.001444
    12 H     0.002280 -0.002942  0.002006
    13 H     0.003774 -0.008508  0.005522
 ----------------------------------------

 dE(predicted):    -0.61870E-02, dE(actual):    -0.67409E-02, Trust radius:    0.400000, all in a.u.
 
----------------------------------------------------------------------
Geometry Convergence after Step   2       (Hartree/Angstrom,Angstrom)
----------------------------------------------------------------------
current energy                               -2.33448543 Hartree
energy change                      -0.00674086     0.00013000    F
constrained gradient max            0.09716494     0.00010000    F
constrained gradient rms            0.01844165     0.00006667    F
gradient max                        0.09716494
gradient rms                        0.01844165
cart. step max                      0.07978791     0.01000000    F
cart. step rms                      0.02847028     0.00666667    F
 

--------
Geometry
--------
Formula: C3H8BrN
Atoms
  Index Symbol   x (angstrom)   y (angstrom)   z (angstrom)
      1      C     0.81374478     0.05718074    -0.03826618
      2      H     1.69347809     1.99476845    -0.14500739
      3     Br     2.90522680    -0.57863740     0.37587122
      4      C     0.68842598     1.57510924    -0.02614552
      5      H     0.69615177    -0.40875509    -1.01465625
      6      H     0.36281731    -0.47550153     0.79680271
      7      C     0.09786022     2.08503715     1.31319842
      8      H    -0.90704732     1.67329220     1.49014000
      9      H     0.74123566     1.79759566     2.15599197
     10      H     0.01845081     3.17849978     1.30474615
     11      N    -0.08396415     1.96585538    -1.24902574
     12      H    -0.29506634     2.96848803    -1.22009386
     13      H    -0.99663522     1.50175876    -1.28005644

Total System Charge              0.00000

 *** GO1_GOStep3 ***

 Energy gradients wrt nuclear displacements
 ==========================================

     Atom      Cartesian (a.u./angstrom)
                 X         Y         Z
 ----------------------------------------
     1 C    -0.061502  0.020839 -0.013888
     2 H     0.001392 -0.003275  0.002125
     3 Br    0.049006 -0.018309  0.008862
     4 C     0.010899 -0.000850  0.002311
     5 H     0.004921 -0.001078 -0.002518
     6 H     0.008245 -0.000620  0.006368
     7 C    -0.001550  0.002231  0.002402
     8 H    -0.002153  0.000280  0.002166
     9 H    -0.000207  0.000169  0.000839
    10 H    -0.000598 -0.000269  0.000440
    11 N    -0.001789 -0.003355 -0.004024
    12 H    -0.004909  0.001895 -0.000014
    13 H    -0.001755  0.002342 -0.005067
 ----------------------------------------

 dE(predicted):    -0.53373E-02, dE(actual):    -0.68770E-02, Trust radius:    0.800000, all in a.u.
 
----------------------------------------------------------------------
Geometry Convergence after Step   3       (Hartree/Angstrom,Angstrom)
----------------------------------------------------------------------
current energy                               -2.34136246 Hartree
energy change                      -0.00687703     0.00013000    F
constrained gradient max            0.06156471     0.00010000    F
constrained gradient rms            0.01398163     0.00006667    F
gradient max                        0.06156471
gradient rms                        0.01398163
cart. step max                      0.13235394     0.01000000    F
cart. step rms                      0.05155061     0.00666667    F
 

--------
Geometry
--------
Formula: C3H8BrN
Atoms
  Index Symbol   x (angstrom)   y (angstrom)   z (angstrom)
      1      C     0.90809549     0.05246115    -0.04387226
      2      H     1.67318430     2.04398769    -0.18201690
      3     Br     2.81942880    -0.58747376     0.50822516
      4      C     0.69741697     1.56389915    -0.02693024
      5      H     0.76098964    -0.34986575    -1.05061759
      6      H     0.25403012    -0.45708126     0.67476330
      7      C     0.12601510     2.07163929     1.32823871
      8      H    -0.85935937     1.63646319     1.57314484
      9      H     0.81344067     1.82259782     2.15028014
     10      H     0.00125325     3.16079362     1.30422085
     11      N    -0.11567502     1.92178106    -1.24297667
     12      H    -0.28615577     2.93577234    -1.26949296
     13      H    -1.05798580     1.51971680    -1.25946727

Total System Charge              0.00000

 *** GO1_GOStep4 ***

 Energy gradients wrt nuclear displacements
 ==========================================

     Atom      Cartesian (a.u./angstrom)
                 X         Y         Z
 ----------------------------------------
     1 C    -0.004159  0.021230 -0.006247
     2 H     0.002875 -0.001334  0.001151
     3 Br    0.035473 -0.016867  0.008363
     4 C     0.008655 -0.014826  0.003151
     5 H    -0.008761  0.000616 -0.004576
     6 H    -0.007536  0.001882  0.003893
     7 C    -0.001187  0.004361  0.002366
     8 H    -0.006530  0.001880  0.007689
     9 H     0.000417 -0.000954  0.002012
    10 H    -0.002214 -0.000412  0.000285
    11 N    -0.002690 -0.011825 -0.003333
    12 H    -0.009534  0.006112 -0.002382
    13 H    -0.004811  0.010136 -0.012372
 ----------------------------------------

 dE(predicted):    -0.47733E-02, dE(actual):    -0.58609E-02, Trust radius:    1.000000, all in a.u.
 
----------------------------------------------------------------------
Geometry Convergence after Step   4       (Hartree/Angstrom,Angstrom)
----------------------------------------------------------------------
current energy                               -2.34722339 Hartree
energy change                      -0.00586093     0.00013000    F
constrained gradient max            0.03534038     0.00010000    F
constrained gradient rms            0.00922914     0.00006667    F
gradient max                        0.03534038
gradient rms                        0.00922914
cart. step max                      0.18999678     0.01000000    F
cart. step rms                      0.06245749     0.00666667    F
 

--------
Geometry
--------
Formula: C3H8BrN
Atoms
  Index Symbol   x (angstrom)   y (angstrom)   z (angstrom)
      1      C     0.92987783     0.04498857    -0.06792278
      2      H     1.64996196     2.06299277    -0.23522293
      3     Br     2.68185984    -0.51870121     0.69822194
      4      C     0.69296230     1.55817072    -0.04140451
      5      H     0.90727335    -0.33504560    -1.09609890
      6      H     0.17585917    -0.49594033     0.52430742
      7      C     0.16600265     2.06343075     1.33049904
      8      H    -0.80358396     1.61561695     1.61276981
      9      H     0.88569728     1.82458294     2.12758216
     10      H     0.02564470     3.15085916     1.30917138
     11      N    -0.16806621     1.89614642    -1.22607947
     12      H    -0.27679862     2.91543450    -1.30348801
     13      H    -1.13201188     1.55215572    -1.16883606

Total System Charge              0.00000

 *** GO1_GOStep5 ***

 Energy gradients wrt nuclear displacements
 ==========================================

     Atom      Cartesian (a.u./angstrom)
                 X         Y         Z
 ----------------------------------------
     1 C     0.019518  0.012260  0.004140
     2 H     0.001625  0.002430  0.001181
     3 Br    0.002791 -0.003653 -0.001837
     4 C     0.013583 -0.013112  0.003164
     5 H    -0.006877 -0.004072 -0.005514
     6 H    -0.006696 -0.003551  0.002733
     7 C    -0.000713  0.005250  0.000952
     8 H    -0.006130  0.001781  0.007921
     9 H     0.000860 -0.001179  0.002005
    10 H    -0.002416 -0.000276  0.000716
    11 N    -0.001572 -0.011670 -0.001139
    12 H    -0.008167  0.006315 -0.002079
    13 H    -0.005805  0.009477 -0.012245
 ----------------------------------------

 dE(predicted):    -0.27598E-02, dE(actual):    -0.36693E-02, Trust radius:    1.000000, all in a.u.
 
----------------------------------------------------------------------
Geometry Convergence after Step   5       (Hartree/Angstrom,Angstrom)
----------------------------------------------------------------------
current energy                               -2.35089273 Hartree
energy change                      -0.00366934     0.00013000    F
constrained gradient max            0.01937589     0.00010000    F
constrained gradient rms            0.00675040     0.00006667    F
gradient max                        0.01937589
gradient rms                        0.00675040
cart. step max                      0.21721834     0.01000000    F
cart. step rms                      0.06763713     0.00666667    F
 

--------
Geometry
--------
Formula: C3H8BrN
Atoms
  Index Symbol   x (angstrom)   y (angstrom)   z (angstrom)
      1      C     0.93079473     0.05041173    -0.09679252
      2      H     1.63238465     2.07472363    -0.30046747
      3     Br     2.52871669    -0.46607729     0.91544028
      4      C     0.68748393     1.56484781    -0.07024460
      5      H     1.06833574    -0.31130590    -1.11990398
      6      H     0.10976847    -0.51281395     0.36631288
      7      C     0.20985230     2.05245867     1.31673264
      8      H    -0.74216658     1.58090259     1.60632158
      9      H     0.95513866     1.81190437     2.08759364
     10      H     0.05899840     3.13865454     1.31155235
     11      N    -0.22603586     1.88429122    -1.20531269
     12      H    -0.29410505     2.90012100    -1.31722201
     13      H    -1.18448766     1.56657294    -1.03051102

Total System Charge              0.00000

 *** GO1_GOStep6 ***

 Energy gradients wrt nuclear displacements
 ==========================================

     Atom      Cartesian (a.u./angstrom)
                 X         Y         Z
 ----------------------------------------
     1 C     0.020192  0.002436  0.011967
     2 H    -0.001020  0.003323  0.001469
     3 Br   -0.014353  0.005999 -0.008554
     4 C     0.009042 -0.005766 -0.000722
     5 H    -0.004260 -0.003806 -0.002873
     6 H    -0.001302 -0.005065  0.001309
     7 C    -0.001165  0.001208 -0.000637
     8 H    -0.002218  0.000643  0.003501
     9 H     0.001827 -0.001057  0.001139
    10 H    -0.000840 -0.000139  0.000472
    11 N     0.000611 -0.003686 -0.001738
    12 H    -0.003001  0.002716 -0.000061
    13 H    -0.003514  0.003194 -0.005271
 ----------------------------------------

 dE(predicted):    -0.27532E-02, dE(actual):    -0.23643E-02, Trust radius:    1.000000, all in a.u.
 
----------------------------------------------------------------------
Geometry Convergence after Step   6       (Hartree/Angstrom,Angstrom)
----------------------------------------------------------------------
current energy                               -2.35325700 Hartree
energy change                      -0.00236427     0.00013000    F
constrained gradient max            0.01995545     0.00010000    F
constrained gradient rms            0.00550472     0.00006667    F
gradient max                        0.01995545
gradient rms                        0.00550472
cart. step max                      0.11669309     0.01000000    F
cart. step rms                      0.03500698     0.00666667    F
 

--------
Geometry
--------
Formula: C3H8BrN
Atoms
  Index Symbol   x (angstrom)   y (angstrom)   z (angstrom)
      1      C     0.92171027     0.05791795    -0.12082853
      2      H     1.63353389     2.07229987    -0.33169498
      3     Br     2.46913688    -0.48611872     1.00225710
      4      C     0.68904434     1.57386604    -0.08069733
      5      H     1.15356593    -0.28631057    -1.12821181
      6      H     0.08047599    -0.51053752     0.28250387
      7      C     0.22451773     2.05878103     1.30344407
      8      H    -0.72033258     1.56924030     1.57176614
      9      H     0.96813245     1.82447054     2.07444798
     10      H     0.06500621     3.14379420     1.29750386
     11      N    -0.25247436     1.87559773    -1.18155049
     12      H    -0.31006112     2.88589979    -1.31162287
     13      H    -1.18757722     1.55579071    -0.91381794

Total System Charge              0.00000

 *** GO1_GOStep7 ***

 Energy gradients wrt nuclear displacements
 ==========================================

     Atom      Cartesian (a.u./angstrom)
                 X         Y         Z
 ----------------------------------------
     1 C     0.000169 -0.000393  0.002405
     2 H    -0.002010  0.001447  0.001079
     3 Br   -0.004636  0.002769 -0.003254
     4 C    -0.003091  0.000939 -0.002536
     5 H    -0.001011 -0.001898  0.000664
     6 H     0.003153 -0.001618  0.000194
     7 C    -0.003003 -0.000273 -0.000603
     8 H     0.001859 -0.000077 -0.001997
     9 H     0.001078  0.000103 -0.000547
    10 H     0.000473  0.000310  0.000310
    11 N     0.002715  0.003555 -0.000145
    12 H     0.002105 -0.002036  0.001410
    13 H     0.002197 -0.002830  0.003019
 ----------------------------------------

 dE(predicted):    -0.97740E-03, dE(actual):    -0.10102E-02, Trust radius:    1.000000, all in a.u.
 
----------------------------------------------------------------------
Geometry Convergence after Step   7       (Hartree/Angstrom,Angstrom)
----------------------------------------------------------------------
current energy                               -2.35426719 Hartree
energy change                      -0.00101019     0.00013000    F
constrained gradient max            0.00487458     0.00010000    F
constrained gradient rms            0.00201520     0.00006667    F
gradient max                        0.00487458
gradient rms                        0.00201520
cart. step max                      0.03903012     0.01000000    F
cart. step rms                      0.01343766     0.00666667    F
 

--------
Geometry
--------
Formula: C3H8BrN
Atoms
  Index Symbol   x (angstrom)   y (angstrom)   z (angstrom)
      1      C     0.92727190     0.05980335    -0.12496045
      2      H     1.63359297     2.06990844    -0.34200282
      3     Br     2.44176353    -0.49864771     1.03471660
      4      C     0.68963401     1.57439134    -0.08059013
      5      H     1.18765065    -0.26711207    -1.13072122
      6      H     0.06683601    -0.50397318     0.24347375
      7      C     0.23350519     2.05967993     1.30640713
      8      H    -0.70786728     1.56698227     1.58364516
      9      H     0.98096554     1.83242436     2.07518660
     10      H     0.06717298     3.14353690     1.29646871
     11      N    -0.26439428     1.86682730    -1.17603016
     12      H    -0.32174234     2.87532557    -1.32321888
     13      H    -1.19971049     1.55554487    -0.89887520

Total System Charge              0.00000

 *** GO1_GOStep8 ***

 Energy gradients wrt nuclear displacements
 ==========================================

     Atom      Cartesian (a.u./angstrom)
                 X         Y         Z
 ----------------------------------------
     1 C     0.002225 -0.001757  0.003221
     2 H    -0.000496  0.000033  0.000690
     3 Br   -0.004071  0.002385 -0.002577
     4 C    -0.003034  0.000902 -0.002306
     5 H    -0.000767 -0.000155  0.000477
     6 H     0.001678  0.000176 -0.000135
     7 C    -0.001678 -0.000851  0.000120
     8 H     0.001330 -0.000097 -0.001529
     9 H     0.000504  0.000199 -0.000290
    10 H     0.000436  0.000105  0.000012
    11 N     0.001539  0.002180 -0.000591
    12 H     0.001005 -0.001168  0.000819
    13 H     0.001330 -0.001952  0.002090
 ----------------------------------------

 dE(predicted):    -0.12907E-03, dE(actual):    -0.19472E-03, Trust radius:    1.000000, all in a.u.
 
----------------------------------------------------------------------
Geometry Convergence after Step   8       (Hartree/Angstrom,Angstrom)
----------------------------------------------------------------------
current energy                               -2.35446192 Hartree
energy change                      -0.00019472     0.00013000    F
constrained gradient max            0.00420408     0.00010000    F
constrained gradient rms            0.00156497     0.00006667    F
gradient max                        0.00420408
gradient rms                        0.00156497
cart. step max                      0.01667660     0.01000000    F
cart. step rms                      0.00715330     0.00666667    F
 

--------
Geometry
--------
Formula: C3H8BrN
Atoms
  Index Symbol   x (angstrom)   y (angstrom)   z (angstrom)
      1      C     0.92833568     0.05832132    -0.12859202
      2      H     1.63313424     2.06477062    -0.34291994
      3     Br     2.44566282    -0.51532432     1.03733483
      4      C     0.68865303     1.57217171    -0.07495752
      5      H     1.20357422    -0.25688080    -1.13402252
      6      H     0.06346289    -0.50630140     0.23044503
      7      C     0.23497608     2.06275202     1.31237003
      8      H    -0.70604028     1.57211322     1.59992516
      9      H     0.98258050     1.84318195     2.08277328
     10      H     0.06384005     3.14571424     1.29445611
     11      N    -0.26960725     1.86163858    -1.17296904
     12      H    -0.32243360     2.86884788    -1.33702153
     13      H    -1.21145998     1.56368633    -0.90332278

Total System Charge              0.00000

 *** GO1_GOStep9 ***

 Energy gradients wrt nuclear displacements
 ==========================================

     Atom      Cartesian (a.u./angstrom)
                 X         Y         Z
 ----------------------------------------
     1 C     0.000644 -0.001341  0.000045
     2 H     0.000895 -0.000848  0.000015
     3 Br    0.000006  0.000392 -0.000550
     4 C    -0.000809  0.000144 -0.000045
     5 H     0.000528  0.000515  0.000170
     6 H    -0.000100  0.000902  0.000479
     7 C     0.000082  0.000335  0.000748
     8 H    -0.000058 -0.000073 -0.000055
     9 H    -0.000439  0.000326  0.000039
    10 H    -0.000064 -0.000048 -0.000088
    11 N     0.000433 -0.000376 -0.000611
    12 H    -0.000846  0.000325  0.000007
    13 H    -0.000271 -0.000252 -0.000153
 ----------------------------------------

 dE(predicted):    -0.98112E-04, dE(actual):    -0.12126E-03, Trust radius:    1.000000, all in a.u.
 
----------------------------------------------------------------------
Geometry Convergence after Step   9       (Hartree/Angstrom,Angstrom)
----------------------------------------------------------------------
current energy                               -2.35458317 Hartree
energy change                      -0.00012126     0.00013000    T
constrained gradient max            0.00136131     0.00010000    F
constrained gradient rms            0.00047855     0.00006667    F
gradient max                        0.00136131
gradient rms                        0.00047855
cart. step max                      0.01660386     0.01000000    F
cart. step rms                      0.00641219     0.00666667    T
 

--------
Geometry
--------
Formula: C3H8BrN
Atoms
  Index Symbol   x (angstrom)   y (angstrom)   z (angstrom)
      1      C     0.92979646     0.05856899    -0.13125886
      2      H     1.62845977     2.06886853    -0.34851317
      3     Br     2.43216897    -0.51731710     1.05393869
      4      C     0.68757648     1.57215389    -0.07601900
      5      H     1.21823877    -0.25356991    -1.13385971
      6      H     0.06175090    -0.50978760     0.21418133
      7      C     0.23798398     2.06206039     1.31217975
      8      H    -0.69996464     1.56815362     1.60432845
      9      H     0.98984316     1.84575027     2.07934771
     10      H     0.06237422     3.14434202     1.29382204
     11      N    -0.27571188     1.85903324    -1.16979080
     12      H    -0.31987945     2.86466509    -1.34419724
     13      H    -1.21795834     1.57176991    -0.89066010

Total System Charge              0.00000

 *** GO1_GOStep10 ***

 Energy gradients wrt nuclear displacements
 ==========================================

     Atom      Cartesian (a.u./angstrom)
                 X         Y         Z
 ----------------------------------------
     1 C     0.000300 -0.001329 -0.000029
     2 H     0.000433 -0.000361 -0.000216
     3 Br   -0.000331  0.000411 -0.000116
     4 C    -0.000459  0.000260 -0.000009
     5 H     0.000409  0.000505  0.000245
     6 H     0.000029  0.000422  0.000342
     7 C     0.000247  0.000154  0.000260
     8 H    -0.000093 -0.000041 -0.000091
     9 H    -0.000233  0.000222 -0.000028
    10 H    -0.000114 -0.000013 -0.000105
    11 N     0.000502 -0.000130 -0.000303
    12 H    -0.000585  0.000160  0.000089
    13 H    -0.000106 -0.000261 -0.000041
 ----------------------------------------

 dE(predicted):    -0.14872E-04, dE(actual):    -0.36944E-04, Trust radius:    1.000000, all in a.u.
 
----------------------------------------------------------------------
Geometry Convergence after Step  10       (Hartree/Angstrom,Angstrom)
----------------------------------------------------------------------
current energy                               -2.35462012 Hartree
energy change                      -0.00003694     0.00013000    T
constrained gradient max            0.00133752     0.00010000    F
constrained gradient rms            0.00033910     0.00006667    F
gradient max                        0.00133752
gradient rms                        0.00033910
cart. step max                      0.01180724     0.01000000    F
cart. step rms                      0.00401720     0.00666667    T
 

--------
Geometry
--------
Formula: C3H8BrN
Atoms
  Index Symbol   x (angstrom)   y (angstrom)   z (angstrom)
      1      C     0.93087412     0.05883143    -0.13153080
      2      H     1.62397880     2.07263516    -0.34965712
      3     Br     2.43160837    -0.51845101     1.05728503
      4      C     0.68598795     1.57185830    -0.07553878
      5      H     1.22141297    -0.25309613    -1.13368856
      6      H     0.06329350    -0.51287059     0.20982991
      7      C     0.23757775     2.06099933     1.31284004
      8      H    -0.69834227     1.56486197     1.60778617
      9      H     0.99208382     1.84672905     2.07812900
     10      H     0.05899196     3.14283778     1.29423824
     11      N    -0.27894137     1.85662897    -1.16822886
     12      H    -0.31060810     2.86014995    -1.35550055
     13      H    -1.22323909     1.58357715    -0.88246463

Total System Charge              0.00000

 *** GO1_GOStep11 ***

 Energy gradients wrt nuclear displacements
 ==========================================

     Atom      Cartesian (a.u./angstrom)
                 X         Y         Z
 ----------------------------------------
     1 C     0.000015 -0.000535  0.000142
     2 H    -0.000104  0.000078 -0.000293
     3 Br   -0.000051  0.000141  0.000202
     4 C    -0.000222  0.000260  0.000155
     5 H     0.000128  0.000180  0.000177
     6 H     0.000082 -0.000032  0.000028
     7 C     0.000246  0.000021 -0.000093
     8 H    -0.000118  0.000007 -0.000031
     9 H    -0.000052  0.000136 -0.000034
    10 H    -0.000172  0.000039 -0.000142
    11 N     0.000480 -0.000045 -0.000243
    12 H    -0.000233  0.000007  0.000131
    13 H     0.000003 -0.000258  0.000000
 ----------------------------------------

 dE(predicted):    -0.81617E-05, dE(actual):    -0.20987E-04, Trust radius:    1.000000, all in a.u.
 
----------------------------------------------------------------------
Geometry Convergence after Step  11       (Hartree/Angstrom,Angstrom)
----------------------------------------------------------------------
current energy                               -2.35464110 Hartree
energy change                      -0.00002099     0.00013000    T
constrained gradient max            0.00054185     0.00010000    F
constrained gradient rms            0.00016811     0.00006667    F
gradient max                        0.00054185
gradient rms                        0.00016811
cart. step max                      0.01277711     0.01000000    F
cart. step rms                      0.00384222     0.00666667    T
 

--------
Geometry
--------
Formula: C3H8BrN
Atoms
  Index Symbol   x (angstrom)   y (angstrom)   z (angstrom)
      1      C     0.93153153     0.05900146    -0.13138161
      2      H     1.62133094     2.07412833    -0.34903557
      3     Br     2.43572069    -0.51631576     1.05571176
      4      C     0.68454659     1.57134061    -0.07499208
      5      H     1.22093829    -0.25406700    -1.13365259
      6      H     0.06584969    -0.51498128     0.21117581
      7      C     0.23606988     2.05950537     1.31354637
      8      H    -0.69911341     1.56245718     1.60921441
      9      H     0.99142316     1.84522467     2.07810371
     10      H     0.05669606     3.14123598     1.29566967
     11      N    -0.28148247     1.85485259    -1.16721191
     12      H    -0.30075984     2.85595494    -1.36759069
     13      H    -1.22807270     1.59635426    -0.87605819

Total System Charge              0.00000

 *** GO1_GOStep12 ***

 Energy gradients wrt nuclear displacements
 ==========================================

     Atom      Cartesian (a.u./angstrom)
                 X         Y         Z
 ----------------------------------------
     1 C    -0.000206  0.000282  0.000101
     2 H    -0.000256  0.000178 -0.000178
     3 Br    0.000165  0.000038  0.000309
     4 C     0.000121  0.000107  0.000329
     5 H     0.000046 -0.000157  0.000081
     6 H     0.000095 -0.000261 -0.000074
     7 C     0.000088 -0.000053 -0.000279
     8 H    -0.000096  0.000037  0.000040
     9 H     0.000038  0.000084 -0.000021
    10 H    -0.000185  0.000070 -0.000120
    11 N     0.000250 -0.000045 -0.000222
    12 H    -0.000023 -0.000096  0.000083
    13 H    -0.000038 -0.000185 -0.000046
 ----------------------------------------

 dE(predicted):    -0.43908E-05, dE(actual):    -0.83094E-05, Trust radius:    1.000000, all in a.u.
 
----------------------------------------------------------------------
Geometry Convergence after Step  12       (Hartree/Angstrom,Angstrom)
----------------------------------------------------------------------
current energy                               -2.35464941 Hartree
energy change                      -0.00000831     0.00013000    T
constrained gradient max            0.00033345     0.00010000    F
constrained gradient rms            0.00014295     0.00006667    F
gradient max                        0.00033345
gradient rms                        0.00014295
cart. step max                      0.00650939     0.01000000    T
cart. step rms                      0.00215706     0.00666667    T
 

--------
Geometry
--------
Formula: C3H8BrN
Atoms
  Index Symbol   x (angstrom)   y (angstrom)   z (angstrom)
      1      C     0.93211384     0.05901116    -0.13102851
      2      H     1.62087745     2.07403543    -0.34819867
      3     Br     2.43931036    -0.51464239     1.05298940
      4      C     0.68406161     1.57100485    -0.07470781
      5      H     1.21951272    -0.25434784    -1.13381449
      6      H     0.06741546    -0.51517104     0.21363080
      7      C     0.23492235     2.05874898     1.31384349
      8      H    -0.70067818     1.56192819     1.60840050
      9      H     0.98949788     1.84341221     2.07885967
     10      H     0.05636477     3.14059698     1.29665496
     11      N    -0.28260684     1.85385941    -1.16660621
     12      H    -0.29598541     2.85354141    -1.37410008
     13      H    -1.23012761     1.60271402    -0.87242396

Total System Charge              0.00000

 *** GO1_GOStep13 ***

 Energy gradients wrt nuclear displacements
 ==========================================

     Atom      Cartesian (a.u./angstrom)
                 X         Y         Z
 ----------------------------------------
     1 C    -0.000070  0.000466  0.000126
     2 H    -0.000149  0.000082 -0.000053
     3 Br    0.000171  0.000051  0.000219
     4 C     0.000143 -0.000096  0.000268
     5 H     0.000039 -0.000194  0.000047
     6 H     0.000067 -0.000171 -0.000056
     7 C    -0.000064 -0.000021 -0.000236
     8 H    -0.000045  0.000028  0.000020
     9 H     0.000006  0.000094 -0.000019
    10 H    -0.000153  0.000059 -0.000093
    11 N     0.000062 -0.000043 -0.000177
    12 H     0.000018 -0.000113 -0.000002
    13 H    -0.000026 -0.000142 -0.000045
 ----------------------------------------

 dE(predicted):    -0.13892E-05, dE(actual):    -0.20114E-05, Trust radius:    1.000000, all in a.u.
 
----------------------------------------------------------------------
Geometry Convergence after Step  13       (Hartree/Angstrom,Angstrom)
----------------------------------------------------------------------
current energy                               -2.35465143 Hartree
energy change                      -0.00000201     0.00013000    T
constrained gradient max            0.00045815     0.00010000    F
constrained gradient rms            0.00011875     0.00006667    F
gradient max                        0.00045815
gradient rms                        0.00011875
cart. step max                      0.00264963     0.01000000    T
cart. step rms                      0.00091591     0.00666667    T
 

--------
Geometry
--------
Formula: C3H8BrN
Atoms
  Index Symbol   x (angstrom)   y (angstrom)   z (angstrom)
      1      C     0.93241090     0.05896621    -0.13094186
      2      H     1.62097054     2.07377950    -0.34798254
      3     Br     2.44063151    -0.51357478     1.05191430
      4      C     0.68393842     1.57093042    -0.07472428
      5      H     1.21919652    -0.25412973    -1.13394786
      6      H     0.06805051    -0.51498620     0.21484793
      7      C     0.23458261     2.05844268     1.31397064
      8      H    -0.70172846     1.56230515     1.60735537
      9      H     0.98822673     1.84183750     2.07950295
     10      H     0.05723787     3.14046756     1.29734489
     11      N    -0.28318334     1.85337961    -1.16630894
     12      H    -0.29475756     2.85246338    -1.37674971
     13      H    -1.23089786     1.60481005    -0.87078178

Total System Charge              0.00000

 *** GO1_GOStep14 ***

 Energy gradients wrt nuclear displacements
 ==========================================

     Atom      Cartesian (a.u./angstrom)
                 X         Y         Z
 ----------------------------------------
     1 C     0.000022  0.000304  0.000086
     2 H    -0.000021  0.000010  0.000012
     3 Br    0.000091  0.000112  0.000140
     4 C     0.000081 -0.000129  0.000145
     5 H     0.000086 -0.000102  0.000059
     6 H     0.000059 -0.000060  0.000031
     7 C    -0.000086  0.000011 -0.000121
     8 H    -0.000023  0.000009 -0.000017
     9 H    -0.000047  0.000112 -0.000001
    10 H    -0.000117  0.000036 -0.000083
    11 N    -0.000041 -0.000093 -0.000137
    12 H    -0.000010 -0.000093 -0.000065
    13 H     0.000006 -0.000117 -0.000050
 ----------------------------------------
 
----------------------------------------------------------------------
Geometry Convergence after Step  14       (Hartree/Angstrom,Angstrom)
----------------------------------------------------------------------
current energy                               -2.35465153 Hartree
energy change                      -0.00000011     0.00013000    T
constrained gradient max            0.00029593     0.00010000    F
constrained gradient rms            0.00006636     0.00006667    T
gradient max                        0.00029593
gradient rms                        0.00006636
cart. step max                      0.00076833     0.01000000    T
cart. step rms                      0.00030320     0.00666667    T
 

--------
Geometry
--------
Formula: C3H8BrN
Atoms
  Index Symbol   x (angstrom)   y (angstrom)   z (angstrom)
      1      C     0.93259954     0.05886972    -0.13091194
      2      H     1.62093062     2.07380586    -0.34809392
      3     Br     2.44091233    -0.51337287     1.05176473
      4      C     0.68391077     1.57092419    -0.07478772
      5      H     1.21932531    -0.25394903    -1.13398461
      6      H     0.06829363    -0.51497815     0.21511229
      7      C     0.23452917     2.05841003     1.31397311
      8      H    -0.70224007     1.56279332     1.60678904
      9      H     0.98770477     1.84106917     2.07973031
     10      H     0.05792433     3.14054864     1.29757021
     11      N    -0.28340039     1.85324539    -1.16614797
     12      H    -0.29471643     2.85217982    -1.37729164
     13      H    -1.23109518     1.60514527    -0.87022280

Total System Charge              0.00000

 *** GO1_GOStep15 ***

 Energy gradients wrt nuclear displacements
 ==========================================

     Atom      Cartesian (a.u./angstrom)
                 X         Y         Z
 ----------------------------------------
     1 C     0.000072  0.000117  0.000078
     2 H     0.000004  0.000010  0.000014
     3 Br    0.000053  0.000125  0.000118
     4 C     0.000030 -0.000105  0.000049
     5 H     0.000100 -0.000036  0.000080
     6 H     0.000067 -0.000014  0.000068
     7 C    -0.000081  0.000037 -0.000062
     8 H    -0.000029  0.000003 -0.000035
     9 H    -0.000069  0.000114 -0.000004
    10 H    -0.000105  0.000029 -0.000084
    11 N    -0.000037 -0.000079 -0.000093
    12 H    -0.000027 -0.000090 -0.000085
    13 H     0.000020 -0.000111 -0.000045
 ----------------------------------------
 
----------------------------------------------------------------------
Geometry Convergence after Step  15       (Hartree/Angstrom,Angstrom)
----------------------------------------------------------------------
current energy                               -2.35465170 Hartree
energy change                      -0.00000017     0.00013000    T
constrained gradient max            0.00010998     0.00010000    F
constrained gradient rms            0.00003023     0.00006667    T
gradient max                        0.00010998
gradient rms                        0.00003023
cart. step max                      0.00050128     0.01000000    T
cart. step rms                      0.00015797     0.00666667    T
 

--------
Geometry
--------
Formula: C3H8BrN
Atoms
  Index Symbol   x (angstrom)   y (angstrom)   z (angstrom)
      1      C     0.93265093     0.05883523    -0.13092028
      2      H     1.62084941     2.07391214    -0.34820353
      3     Br     2.44093192    -0.51329513     1.05181189
      4      C     0.68388294     1.57097378    -0.07481596
      5      H     1.21943725    -0.25385757    -1.13399846
      6      H     0.06837135    -0.51501452     0.21512675
      7      C     0.23455853     2.05843411     1.31400090
      8      H    -0.70249842     1.56319540     1.60656185
      9      H     0.98752098     1.84061164     2.07982190
     10      H     0.05842560     3.14064992     1.29773979
     11      N    -0.28345126     1.85318092    -1.16610294
     12      H    -0.29487686     2.85209326    -1.37732085
     13      H    -1.23112396     1.60497218    -0.87020197

Total System Charge              0.00000

 *** GO1_GOStep16 ***

 Energy gradients wrt nuclear displacements
 ==========================================

     Atom      Cartesian (a.u./angstrom)
                 X         Y         Z
 ----------------------------------------
     1 C     0.000066  0.000009  0.000060
     2 H    -0.000003  0.000022  0.000004
     3 Br    0.000043  0.000130  0.000119
     4 C     0.000005 -0.000034  0.000007
     5 H     0.000104 -0.000012  0.000090
     6 H     0.000078 -0.000005  0.000079
     7 C    -0.000062  0.000045 -0.000031
     8 H    -0.000040  0.000004 -0.000040
     9 H    -0.000074  0.000110 -0.000004
    10 H    -0.000103  0.000027 -0.000087
    11 N    -0.000007 -0.000088 -0.000068
    12 H    -0.000028 -0.000095 -0.000085
    13 H     0.000019 -0.000113 -0.000046
 ----------------------------------------
 
---------------------------------------------------------
Geometry Convergence after Step  16       ** CONVERGED **
---------------------------------------------------------
current energy                               -2.35465168 Hartree
energy change                       0.00000002     0.00013000    T
constrained gradient max            0.00003342     0.00010000    T
constrained gradient rms            0.00000991     0.00006667    T
gradient max                        0.00003342
gradient rms                        0.00000991
cart. step max                      0.00022921     0.01000000    T
cart. step rms                      0.00007899     0.00666667    T
 
Geometry optimization converged

Optimized geometry:

--------
Geometry
--------
Formula: C3H8BrN
Atoms
  Index Symbol   x (angstrom)   y (angstrom)   z (angstrom)
      1      C     0.93265093     0.05883523    -0.13092028
      2      H     1.62084941     2.07391214    -0.34820353
      3     Br     2.44093192    -0.51329513     1.05181189
      4      C     0.68388294     1.57097378    -0.07481596
      5      H     1.21943725    -0.25385757    -1.13399846
      6      H     0.06837135    -0.51501452     0.21512675
      7      C     0.23455853     2.05843411     1.31400090
      8      H    -0.70249842     1.56319540     1.60656185
      9      H     0.98752098     1.84061164     2.07982190
     10      H     0.05842560     3.14064992     1.29773979
     11      N    -0.28345126     1.85318092    -1.16610294
     12      H    -0.29487686     2.85209326    -1.37732085
     13      H    -1.23112396     1.60497218    -0.87020197

Total System Charge              0.00000

Performing a single point calculation on the final geometry ...

 *** adf ***



 ===========================
 A T T A C H E D   F I L E S
 ===========================
  
 Restart/tmp/amstmp_c5_fragB_opt_kid0.266868238/GO1_GOStep16.rkf*** GO1_GOStep16 ***



 ===============================
 M O D E L   P A R A M E T E R S
 ===============================
  
 DENSITY FUNCTIONAL POTENTIAL (scf)
    LDA:                               Exchange only                           == Not Default ==
    Gradient Corrections:              Becke88 LYP                             == Not Default ==

 SPIN  (restricted / unrestr.)
    Molecule:                          Restricted                               
    Fragments:                         Restricted                               

 OTHER ASPECTS
    Relativistic Corrections:          scalar (ZORA,MAPA)                       

    Nuclear Charge Density Model:      Point Charge Nuclei                      
    Core Treatment:                    Frozen Orbital(s)                        

    Hyperfine or Zeeman Interaction:   ---                                      

 Settings for Grimme D3 dispersion correction

      damping                        BJ
      s6                          1.000
      s8                          2.700
      a1                          0.430
      a2                          4.236

 Other (technical) parameters

      alpha                      14.000
      version                         4
 



 ===============
 G E O M E T R Y  ***  3D  Molecule  ***
 ===============
  

 ATOMS
 =====                            X Y Z                    CHARGE
                                (Angstrom)             Nucl     +Core       At.Mass
                       --------------------------    ----------------       -------
    1  C               0.9327    0.0588   -0.1309      6.00      6.00       12.0000
    2  H               1.6208    2.0739   -0.3482      1.00      1.00        1.0078
    3  Br              2.4409   -0.5133    1.0518     35.00     35.00       78.9183
    4  C               0.6839    1.5710   -0.0748      6.00      6.00       12.0000
    5  H               1.2194   -0.2539   -1.1340      1.00      1.00        1.0078
    6  H               0.0684   -0.5150    0.2151      1.00      1.00        1.0078
    7  C               0.2346    2.0584    1.3140      6.00      6.00       12.0000
    8  H              -0.7025    1.5632    1.6066      1.00      1.00        1.0078
    9  H               0.9875    1.8406    2.0798      1.00      1.00        1.0078
   10  H               0.0584    3.1406    1.2977      1.00      1.00        1.0078
   11  N              -0.2835    1.8532   -1.1661      7.00      7.00       14.0031
   12  H              -0.2949    2.8521   -1.3773      1.00      1.00        1.0078
   13  H              -1.2311    1.6050   -0.8702      1.00      1.00        1.0078


 FRAGMENTS
 =========                                     Atoms in this Fragment     Cart. coord.s (Angstrom)
                                               -------------------------------------------------------
    1  C                                                 1  C            0.9327    0.0588   -0.1309
    2  C                                                 4  C            0.6839    1.5710   -0.0748
    3  C                                                 7  C            0.2346    2.0584    1.3140
    4  H                                                 2  H            1.6208    2.0739   -0.3482
    5  H                                                 5  H            1.2194   -0.2539   -1.1340
    6  H                                                 6  H            0.0684   -0.5150    0.2151
    7  H                                                 8  H           -0.7025    1.5632    1.6066
    8  H                                                 9  H            0.9875    1.8406    2.0798
    9  H                                                10  H            0.0584    3.1406    1.2977
   10  H                                                12  H           -0.2949    2.8521   -1.3773
   11  H                                                13  H           -1.2311    1.6050   -0.8702
   12  Br                                                3  Br           2.4409   -0.5133    1.0518
   13  N                                                11  N           -0.2835    1.8532   -1.1661


 Interatomic Distance Matrix (Angstrom)
 --------------------------------------

   1)     0.000
   2)     2.140   0.000
   3)     2.000   3.054   0.000
   4)     1.533   1.098   2.950   0.000
   5)     1.089   2.489   2.517   2.177   0.000
   6)     1.094   3.071   2.516   2.194   1.793   0.000
   7)     2.564   2.164   3.399   1.539   3.508   2.803   0.000
   8)     2.821   3.079   3.808   2.179   3.809   2.617   1.100   0.000
   9)     2.840   2.520   2.951   2.193   3.843   3.142   1.096   1.777   0.000
  10)     3.508   2.508   4.369   2.177   4.334   3.813   1.097   1.778   1.779   0.000
  11)     2.402   2.084   4.236   1.485   2.588   2.764   2.542   2.819   3.486   2.801
          0.000
  12)     3.296   2.310   4.971   2.073   3.464   3.742   2.855   3.276   3.824   2.714
          1.021   0.000
  13)     2.760   2.937   4.655   2.074   3.087   2.713   2.669   2.533   3.699   2.953
          1.023   1.640   0.000

 Min. Distance =    1.0211
 Max. Distance =    4.9710



 =====================================
 S Y M M E T R Y ,   E L E C T R O N S
 =====================================
  
 Symmetry: NOSYM

 Irreducible Representations, including subspecies
 -------------------------------------------------
 A


 Configuration of Valence Electrons
 ==================================
 ( determined in the SCF procedure )

 Total:   68

 Net Charge: 0 (Nuclei minus Electrons)

 Aufbau principle for MO occupations will be applied through SCF cycle no.     100
 Thereafter, the program will assign electrons to MOs that are spatially
 similar to the occupied MOs in a "reference" cycle ("KeepOrbitals").
 The reference cycle is always the PREVIOUS cycle: it will evolve with
 the SCF procedure.
 ***************************************************************************************************



                                      ****************************************
                                      *  B U I L D : (Fragments, Functions)  *
                                      ****************************************
  



 =======
 S F O s  ***  (Symmetrized Fragment Orbitals)  ***
 =======
  
 SFOs are linear combinations of (valence) Fragment Orbitals (FOs), such that the SFOs transform as the
 irreducible representations of the (molecular) symmetry group. Each SFO is therefore characterized by
 an irrep of the molecule and by a few (or only one) generating FOs.
 The SFOs constitute a symmetry-adapted basis for the Fock matrix. The MO eigenvector coefficients in
 this basis provide a direct interpretation of the MOs in terms of Frontier Orbital Theory.

 The SFOs are combined with auxiliary Core Functions (CFs) to ensure orthogonalization on the (frozen)
 Core Orbitals (COs). The Core-orthogonalized SFOs (CSFOs) constitute the true Fock basis.

 The FOs, and hence also the (C)SFOs are combinations of the elementary basis functions (BAS). The basis
 functions that participate in the description of the SFOs depend on the irrep. The indices of the
 involved functions are printed below for each irrep.
 (The complete list of primitive basis functions is printed in another section)

 Total nr. of (C)SFOs (summation over all irreps) :   248

 NOTE: a (C)SFO that is defined as a combination of more than one FO is usually NOT normalized.



                                       === A ===
 Nr. of SFOs :  248
 Cartesian basis functions that participate in this irrep (total number =   279) :
      1     2     3     4     5     6     9    12     7    10
     13     8    11    14    15    16    17    18    19    20
     21    22    23    24    25    26    27    28    29    30
     31    32    33    34    35    36    39    42    37    40
     43    38    41    44    45    46    47    48    49    50
     51    52    53    54    55    56    57    58    59    60
     61    62    63    64    65    66    69    72    67    70
     73    68    71    74    75    76    77    78    79    80
     81    82    83    84    85    86    87    88    89    90
     91    92    93    94    95    96    97    98    99   100
    101   102   103   104   105   106   107   108   109   110
    111   112   113   114   115   116   117   118   119   120
    121   122   123   124   125   126   127   128   129   130
    131   132   133   134   135   136   137   138   139   140
    141   142   143   144   145   146   147   148   149   150
    151   152   153   154   155   156   157   158   159   160
    161   162   163   164   165   166   167   168   169   170
    171   172   173   174   175   176   177   178   179   180
    181   182   183   184   185   186   187   188   189   196
    197   222   223   224   190   193   198   201   225   228
    231   191   194   199   202   226   229   232   192   195
    200   203   227   230   233   204   210   216   234   205
    211   217   235   206   212   218   236   207   213   219
    237   208   214   220   238   209   215   221   239   240
    241   242   243   244   245   246   247   248   249   250
    251   252   253   254   255   258   261   256   259   262
    257   260   263   264   265   266   267   268   269   270
    271   272   273   274   275   276   277   278   279

    SFO  (index         Fragment          Generating    Expansion in Fragment Orbitals
  indx  incl.CFs)   Occup   Orb.Energy   FragmentType  Coeff.   Orbital     on Fragment
 --------------------------------------------------------------------------------------
     1       1      2.000     -10.066 au  C             1.00      1 S               1
                        (    -273.921 eV)
     2       2      2.000      -0.501 au  C             1.00      2 S               1
                        (     -13.620 eV)
     3       3       --         0.373 au  C             1.00      3 S               1
                        (      10.158 eV)
     4       4       --         5.405 au  C             1.00      4 S               1
                        (     147.073 eV)
     5       5       --        49.848 au  C             1.00      5 S               1
                        (    1356.422 eV)
     6       6      0.667      -0.193 au  C             1.00      1 P:x             1
                        (      -5.239 eV)
     7       7       --         0.169 au  C             1.00      2 P:x             1
                        (       4.589 eV)
     8       8       --         2.013 au  C             1.00      3 P:x             1
                        (      54.789 eV)
     9       9      0.667      -0.193 au  C             1.00      1 P:y             1
                        (      -5.239 eV)
    10      10       --         0.169 au  C             1.00      2 P:y             1
                        (       4.589 eV)
    11      11       --         2.013 au  C             1.00      3 P:y             1
                        (      54.789 eV)
    12      12      0.667      -0.193 au  C             1.00      1 P:z             1
                        (      -5.239 eV)
    13      13       --         0.169 au  C             1.00      2 P:z             1
                        (       4.589 eV)
    14      14       --         2.013 au  C             1.00      3 P:z             1
                        (      54.789 eV)
    15      15       --         1.243 au  C             1.00      1 D:z2            1
                        (      33.824 eV)
    16      16       --         1.243 au  C             1.00      1 D:x2-y2         1
                        (      33.824 eV)
    17      17       --         1.243 au  C             1.00      1 D:xy            1
                        (      33.824 eV)
    18      18       --         1.243 au  C             1.00      1 D:xz            1
                        (      33.824 eV)
    19      19       --         1.243 au  C             1.00      1 D:yz            1
                        (      33.824 eV)
    20      20       --         4.016 au  C             1.00      1 F:z3            1
                        (     109.271 eV)
    21      21       --         4.016 au  C             1.00      1 F:z             1
                        (     109.271 eV)
    22      22       --         4.016 au  C             1.00      1 F:xyz           1
                        (     109.271 eV)
    23      23       --         4.016 au  C             1.00      1 F:z2x           1
                        (     109.271 eV)
    24      24       --         4.016 au  C             1.00      1 F:z2y           1
                        (     109.271 eV)
    25      25       --         4.016 au  C             1.00      1 F:x             1
                        (     109.271 eV)
    26      26       --         4.016 au  C             1.00      1 F:y             1
                        (     109.271 eV)
    27      27      2.000     -10.066 au  C             1.00      1 S               2
                        (    -273.921 eV)
    28      28      2.000      -0.501 au  C             1.00      2 S               2
                        (     -13.620 eV)
    29      29       --         0.373 au  C             1.00      3 S               2
                        (      10.158 eV)
    30      30       --         5.405 au  C             1.00      4 S               2
                        (     147.073 eV)
    31      31       --        49.848 au  C             1.00      5 S               2
                        (    1356.422 eV)
    32      32      0.667      -0.193 au  C             1.00      1 P:x             2
                        (      -5.239 eV)
    33      33       --         0.169 au  C             1.00      2 P:x             2
                        (       4.589 eV)
    34      34       --         2.013 au  C             1.00      3 P:x             2
                        (      54.789 eV)
    35      35      0.667      -0.193 au  C             1.00      1 P:y             2
                        (      -5.239 eV)
    36      36       --         0.169 au  C             1.00      2 P:y             2
                        (       4.589 eV)
    37      37       --         2.013 au  C             1.00      3 P:y             2
                        (      54.789 eV)
    38      38      0.667      -0.193 au  C             1.00      1 P:z             2
                        (      -5.239 eV)
    39      39       --         0.169 au  C             1.00      2 P:z             2
                        (       4.589 eV)
    40      40       --         2.013 au  C             1.00      3 P:z             2
                        (      54.789 eV)
    41      41       --         1.243 au  C             1.00      1 D:z2            2
                        (      33.824 eV)
    42      42       --         1.243 au  C             1.00      1 D:x2-y2         2
                        (      33.824 eV)
    43      43       --         1.243 au  C             1.00      1 D:xy            2
                        (      33.824 eV)
    44      44       --         1.243 au  C             1.00      1 D:xz            2
                        (      33.824 eV)
    45      45       --         1.243 au  C             1.00      1 D:yz            2
                        (      33.824 eV)
    46      46       --         4.016 au  C             1.00      1 F:z3            2
                        (     109.271 eV)
    47      47       --         4.016 au  C             1.00      1 F:z             2
                        (     109.271 eV)
    48      48       --         4.016 au  C             1.00      1 F:xyz           2
                        (     109.271 eV)
    49      49       --         4.016 au  C             1.00      1 F:z2x           2
                        (     109.271 eV)
    50      50       --         4.016 au  C             1.00      1 F:z2y           2
                        (     109.271 eV)
    51      51       --         4.016 au  C             1.00      1 F:x             2
                        (     109.271 eV)
    52      52       --         4.016 au  C             1.00      1 F:y             2
                        (     109.271 eV)
    53      53      2.000     -10.066 au  C             1.00      1 S               3
                        (    -273.921 eV)
    54      54      2.000      -0.501 au  C             1.00      2 S               3
                        (     -13.620 eV)
    55      55       --         0.373 au  C             1.00      3 S               3
                        (      10.158 eV)
    56      56       --         5.405 au  C             1.00      4 S               3
                        (     147.073 eV)
    57      57       --        49.848 au  C             1.00      5 S               3
                        (    1356.422 eV)
    58      58      0.667      -0.193 au  C             1.00      1 P:x             3
                        (      -5.239 eV)
    59      59       --         0.169 au  C             1.00      2 P:x             3
                        (       4.589 eV)
    60      60       --         2.013 au  C             1.00      3 P:x             3
                        (      54.789 eV)
    61      61      0.667      -0.193 au  C             1.00      1 P:y             3
                        (      -5.239 eV)
    62      62       --         0.169 au  C             1.00      2 P:y             3
                        (       4.589 eV)
    63      63       --         2.013 au  C             1.00      3 P:y             3
                        (      54.789 eV)
    64      64      0.667      -0.193 au  C             1.00      1 P:z             3
                        (      -5.239 eV)
    65      65       --         0.169 au  C             1.00      2 P:z             3
                        (       4.589 eV)
    66      66       --         2.013 au  C             1.00      3 P:z             3
                        (      54.789 eV)
    67      67       --         1.243 au  C             1.00      1 D:z2            3
                        (      33.824 eV)
    68      68       --         1.243 au  C             1.00      1 D:x2-y2         3
                        (      33.824 eV)
    69      69       --         1.243 au  C             1.00      1 D:xy            3
                        (      33.824 eV)
    70      70       --         1.243 au  C             1.00      1 D:xz            3
                        (      33.824 eV)
    71      71       --         1.243 au  C             1.00      1 D:yz            3
                        (      33.824 eV)
    72      72       --         4.016 au  C             1.00      1 F:z3            3
                        (     109.271 eV)
    73      73       --         4.016 au  C             1.00      1 F:z             3
                        (     109.271 eV)
    74      74       --         4.016 au  C             1.00      1 F:xyz           3
                        (     109.271 eV)
    75      75       --         4.016 au  C             1.00      1 F:z2x           3
                        (     109.271 eV)
    76      76       --         4.016 au  C             1.00      1 F:z2y           3
                        (     109.271 eV)
    77      77       --         4.016 au  C             1.00      1 F:x             3
                        (     109.271 eV)
    78      78       --         4.016 au  C             1.00      1 F:y             3
                        (     109.271 eV)
    79      79      1.000      -0.240 au  H             1.00      1 S               4
                        (      -6.532 eV)
    80      80       --         0.088 au  H             1.00      2 S               4
                        (       2.394 eV)
    81      81       --         1.502 au  H             1.00      3 S               4
                        (      40.869 eV)
    82      82       --         0.406 au  H             1.00      1 P:x             4
                        (      11.051 eV)
    83      83       --         0.406 au  H             1.00      1 P:y             4
                        (      11.051 eV)
    84      84       --         0.406 au  H             1.00      1 P:z             4
                        (      11.051 eV)
    85      85       --         2.569 au  H             1.00      1 D:z2            4
                        (      69.917 eV)
    86      86       --         2.569 au  H             1.00      1 D:x2-y2         4
                        (      69.917 eV)
    87      87       --         2.569 au  H             1.00      1 D:xy            4
                        (      69.917 eV)
    88      88       --         2.569 au  H             1.00      1 D:xz            4
                        (      69.917 eV)
    89      89       --         2.569 au  H             1.00      1 D:yz            4
                        (      69.917 eV)
    90      90      1.000      -0.240 au  H             1.00      1 S               5
                        (      -6.532 eV)
    91      91       --         0.088 au  H             1.00      2 S               5
                        (       2.394 eV)
    92      92       --         1.502 au  H             1.00      3 S               5
                        (      40.869 eV)
    93      93       --         0.406 au  H             1.00      1 P:x             5
                        (      11.051 eV)
    94      94       --         0.406 au  H             1.00      1 P:y             5
                        (      11.051 eV)
    95      95       --         0.406 au  H             1.00      1 P:z             5
                        (      11.051 eV)
    96      96       --         2.569 au  H             1.00      1 D:z2            5
                        (      69.917 eV)
    97      97       --         2.569 au  H             1.00      1 D:x2-y2         5
                        (      69.917 eV)
    98      98       --         2.569 au  H             1.00      1 D:xy            5
                        (      69.917 eV)
    99      99       --         2.569 au  H             1.00      1 D:xz            5
                        (      69.917 eV)
   100     100       --         2.569 au  H             1.00      1 D:yz            5
                        (      69.917 eV)
   101     101      1.000      -0.240 au  H             1.00      1 S               6
                        (      -6.532 eV)
   102     102       --         0.088 au  H             1.00      2 S               6
                        (       2.394 eV)
   103     103       --         1.502 au  H             1.00      3 S               6
                        (      40.869 eV)
   104     104       --         0.406 au  H             1.00      1 P:x             6
                        (      11.051 eV)
   105     105       --         0.406 au  H             1.00      1 P:y             6
                        (      11.051 eV)
   106     106       --         0.406 au  H             1.00      1 P:z             6
                        (      11.051 eV)
   107     107       --         2.569 au  H             1.00      1 D:z2            6
                        (      69.917 eV)
   108     108       --         2.569 au  H             1.00      1 D:x2-y2         6
                        (      69.917 eV)
   109     109       --         2.569 au  H             1.00      1 D:xy            6
                        (      69.917 eV)
   110     110       --         2.569 au  H             1.00      1 D:xz            6
                        (      69.917 eV)
   111     111       --         2.569 au  H             1.00      1 D:yz            6
                        (      69.917 eV)
   112     112      1.000      -0.240 au  H             1.00      1 S               7
                        (      -6.532 eV)
   113     113       --         0.088 au  H             1.00      2 S               7
                        (       2.394 eV)
   114     114       --         1.502 au  H             1.00      3 S               7
                        (      40.869 eV)
   115     115       --         0.406 au  H             1.00      1 P:x             7
                        (      11.051 eV)
   116     116       --         0.406 au  H             1.00      1 P:y             7
                        (      11.051 eV)
   117     117       --         0.406 au  H             1.00      1 P:z             7
                        (      11.051 eV)
   118     118       --         2.569 au  H             1.00      1 D:z2            7
                        (      69.917 eV)
   119     119       --         2.569 au  H             1.00      1 D:x2-y2         7
                        (      69.917 eV)
   120     120       --         2.569 au  H             1.00      1 D:xy            7
                        (      69.917 eV)
   121     121       --         2.569 au  H             1.00      1 D:xz            7
                        (      69.917 eV)
   122     122       --         2.569 au  H             1.00      1 D:yz            7
                        (      69.917 eV)
   123     123      1.000      -0.240 au  H             1.00      1 S               8
                        (      -6.532 eV)
   124     124       --         0.088 au  H             1.00      2 S               8
                        (       2.394 eV)
   125     125       --         1.502 au  H             1.00      3 S               8
                        (      40.869 eV)
   126     126       --         0.406 au  H             1.00      1 P:x             8
                        (      11.051 eV)
   127     127       --         0.406 au  H             1.00      1 P:y             8
                        (      11.051 eV)
   128     128       --         0.406 au  H             1.00      1 P:z             8
                        (      11.051 eV)
   129     129       --         2.569 au  H             1.00      1 D:z2            8
                        (      69.917 eV)
   130     130       --         2.569 au  H             1.00      1 D:x2-y2         8
                        (      69.917 eV)
   131     131       --         2.569 au  H             1.00      1 D:xy            8
                        (      69.917 eV)
   132     132       --         2.569 au  H             1.00      1 D:xz            8
                        (      69.917 eV)
   133     133       --         2.569 au  H             1.00      1 D:yz            8
                        (      69.917 eV)
   134     134      1.000      -0.240 au  H             1.00      1 S               9
                        (      -6.532 eV)
   135     135       --         0.088 au  H             1.00      2 S               9
                        (       2.394 eV)
   136     136       --         1.502 au  H             1.00      3 S               9
                        (      40.869 eV)
   137     137       --         0.406 au  H             1.00      1 P:x             9
                        (      11.051 eV)
   138     138       --         0.406 au  H             1.00      1 P:y             9
                        (      11.051 eV)
   139     139       --         0.406 au  H             1.00      1 P:z             9
                        (      11.051 eV)
   140     140       --         2.569 au  H             1.00      1 D:z2            9
                        (      69.917 eV)
   141     141       --         2.569 au  H             1.00      1 D:x2-y2         9
                        (      69.917 eV)
   142     142       --         2.569 au  H             1.00      1 D:xy            9
                        (      69.917 eV)
   143     143       --         2.569 au  H             1.00      1 D:xz            9
                        (      69.917 eV)
   144     144       --         2.569 au  H             1.00      1 D:yz            9
                        (      69.917 eV)
   145     145      1.000      -0.240 au  H             1.00      1 S              10
                        (      -6.532 eV)
   146     146       --         0.088 au  H             1.00      2 S              10
                        (       2.394 eV)
   147     147       --         1.502 au  H             1.00      3 S              10
                        (      40.869 eV)
   148     148       --         0.406 au  H             1.00      1 P:x            10
                        (      11.051 eV)
   149     149       --         0.406 au  H             1.00      1 P:y            10
                        (      11.051 eV)
   150     150       --         0.406 au  H             1.00      1 P:z            10
                        (      11.051 eV)
   151     151       --         2.569 au  H             1.00      1 D:z2           10
                        (      69.917 eV)
   152     152       --         2.569 au  H             1.00      1 D:x2-y2        10
                        (      69.917 eV)
   153     153       --         2.569 au  H             1.00      1 D:xy           10
                        (      69.917 eV)
   154     154       --         2.569 au  H             1.00      1 D:xz           10
                        (      69.917 eV)
   155     155       --         2.569 au  H             1.00      1 D:yz           10
                        (      69.917 eV)
   156     156      1.000      -0.240 au  H             1.00      1 S              11
                        (      -6.532 eV)
   157     157       --         0.088 au  H             1.00      2 S              11
                        (       2.394 eV)
   158     158       --         1.502 au  H             1.00      3 S              11
                        (      40.869 eV)
   159     159       --         0.406 au  H             1.00      1 P:x            11
                        (      11.051 eV)
   160     160       --         0.406 au  H             1.00      1 P:y            11
                        (      11.051 eV)
   161     161       --         0.406 au  H             1.00      1 P:z            11
                        (      11.051 eV)
   162     162       --         2.569 au  H             1.00      1 D:z2           11
                        (      69.917 eV)
   163     163       --         2.569 au  H             1.00      1 D:x2-y2        11
                        (      69.917 eV)
   164     164       --         2.569 au  H             1.00      1 D:xy           11
                        (      69.917 eV)
   165     165       --         2.569 au  H             1.00      1 D:xz           11
                        (      69.917 eV)
   166     166       --         2.569 au  H             1.00      1 D:yz           11
                        (      69.917 eV)
   167     167      2.000    -488.642 au  Br            1.00      1 S              12
                        (  -13296.634 eV)
   168     168      2.000     -63.585 au  Br            1.00      2 S              12
                        (   -1730.246 eV)
   169     169      2.000      -8.709 au  Br            1.00      3 S              12
                        (    -236.987 eV)
   170     170      2.000      -0.733 au  Br            1.00      4 S              12
                        (     -19.946 eV)
   171     171       --         0.224 au  Br            1.00      5 S              12
                        (       6.099 eV)
   172     172       --         2.414 au  Br            1.00      6 S              12
                        (      65.683 eV)
   173     173       --        13.546 au  Br            1.00      7 S              12
                        (     368.609 eV)
   174     174       --       615.209 au  Br            1.00      8 S              12
                        (   16740.684 eV)
   175     175      2.000     -56.116 au  Br            1.00      1 P:x            12
                        (   -1526.987 eV)
   176     176      2.000      -6.365 au  Br            1.00      2 P:x            12
                        (    -173.205 eV)
   177     177      1.667      -0.284 au  Br            1.00      3 P:x            12
                        (      -7.716 eV)
   178     178       --         0.137 au  Br            1.00      4 P:x            12
                        (       3.720 eV)
   179     179       --         1.208 au  Br            1.00      5 P:x            12
                        (      32.874 eV)
   180     180       --         8.734 au  Br            1.00      6 P:x            12
                        (     237.661 eV)
   181     181       --        95.627 au  Br            1.00      7 P:x            12
                        (    2602.141 eV)
   182     182      2.000     -56.116 au  Br            1.00      1 P:y            12
                        (   -1526.987 eV)
   183     183      2.000      -6.365 au  Br            1.00      2 P:y            12
                        (    -173.205 eV)
   184     184      1.667      -0.284 au  Br            1.00      3 P:y            12
                        (      -7.716 eV)
   185     185       --         0.137 au  Br            1.00      4 P:y            12
                        (       3.720 eV)
   186     186       --         1.208 au  Br            1.00      5 P:y            12
[...]
                                   -1.73%     2 S               2.394  0.00     6 H
                                    1.56%     1 P:z            -7.062  1.00    13 N
                                    1.54%     2 D:x2-y2         7.341  0.00    12 Br
                                    1.52%     1 P:z            -5.239  0.67     3 C
                                    1.11%     2 S             -13.620  2.00     1 C
                                    1.05%     2 D:xz            7.341  0.00    12 Br
                                    1.04%     2 S             -18.450  2.00    13 N
                                    1.03%     1 P:z            11.051  0.00     8 H
                                   -1.02%     1 S              -6.532  1.00    11 H
       3.371  0.00    45 A         29.18%     1 P:z            -5.239  0.67     3 C
                                   14.86%     2 P:z             4.589  0.00     1 C
                                   14.29%     1 P:x            -5.239  0.67     2 C
                                   13.02%     2 P:z             4.589  0.00     3 C
                                   10.27%     2 P:x             4.589  0.00     1 C
                                   -9.45%     2 P:z             4.589  0.00     2 C
                                    9.32%     4 P:x             3.720  0.00    12 Br
                                   -7.88%     2 P:x             4.589  0.00     2 C
                                    5.56%     2 S             -13.620  2.00     2 C
                                   -5.45%     5 S               6.099  0.00    12 Br
                                    5.00%     2 S               2.394  0.00     6 H
                                    4.96%     1 S              -6.532  1.00     4 H
                                   -4.34%     3 S              10.158  0.00     2 C
                                    3.73%     2 P:z             7.649  0.00    13 N
                                    3.23%     1 S              -6.532  1.00     6 H
                                    3.19%     1 P:y            -5.239  0.67     2 C
                                    3.14%     2 D:xz            7.341  0.00    12 Br
                                    3.10%     1 P:z            -5.239  0.67     2 C
                                   -2.98%     2 S               2.394  0.00     7 H
                                    2.89%     1 S              -6.532  1.00     7 H
                                   -2.78%     2 P:y             7.649  0.00    13 N
                                   -2.71%     2 S               2.394  0.00     8 H
                                    2.55%     1 P:y            -5.239  0.67     3 C
                                    2.29%     2 P:y             4.589  0.00     3 C
                                   -2.21%     2 P:y             4.589  0.00     1 C
                                    2.18%     4 P:y             3.720  0.00    12 Br
                                   -1.82%     2 S               2.394  0.00     9 H
                                    1.69%     1 P:z            -7.062  1.00    13 N
                                    1.64%     4 P:z             3.720  0.00    12 Br
                                    1.27%     2 D:yz            7.341  0.00    12 Br
                                    1.21%     1 P:z            11.051  0.00     8 H
                                    1.14%     1 S              -6.532  1.00     9 H
                                   -1.11%     2 P:y             4.589  0.00     2 C
                                    1.05%     2 S               2.394  0.00    11 H
       3.669  0.00    46 A         14.83%     2 P:x             4.589  0.00     1 C
                                    9.65%     1 P:y            -5.239  0.67     2 C
                                    6.50%     1 P:x            -5.239  0.67     1 C
                                    6.35%     1 P:z            -5.239  0.67     2 C
                                    6.04%     2 S               2.394  0.00     7 H
                                    6.00%     2 P:x             4.589  0.00     3 C
                                    4.39%     1 P:y            -5.239  0.67     1 C
                                    4.39%     2 P:z             4.589  0.00     1 C
                                    4.30%     2 S             -13.620  2.00     2 C
                                   -4.07%     3 S              10.158  0.00     2 C
                                    3.89%     2 D:xy            7.341  0.00    12 Br
                                    3.88%     2 P:z             4.589  0.00     2 C
                                    3.86%     2 S             -13.620  2.00     1 C
                                    3.67%     1 P:y            -7.062  1.00    13 N
                                   -3.62%     2 P:x             4.589  0.00     2 C
                                    3.16%     2 P:z             4.589  0.00     3 C
                                   -2.90%     3 S              10.158  0.00     3 C
                                    2.88%     1 P:x            -5.239  0.67     2 C
                                   -2.83%     2 P:y             4.589  0.00     1 C
                                    2.63%     1 S              -6.532  1.00    10 H
                                    2.57%     1 S              -6.532  1.00     7 H
                                    2.40%     1 P:z            -7.062  1.00    13 N
                                   -2.09%     3 S              10.158  0.00     1 C
                                    1.91%     1 S              -6.532  1.00     4 H
                                    1.58%     2 P:y             7.649  0.00    13 N
                                    1.57%     1 S              -6.532  1.00     8 H
                                    1.53%     2 S             -13.620  2.00     3 C
                                    1.52%     4 P:x             3.720  0.00    12 Br
                                    1.51%     2 S               2.394  0.00     6 H
                                    1.29%     2 D:xz            7.341  0.00    12 Br
                                    1.26%     1 S              -6.532  1.00     5 H
                                    1.25%     2 S               2.394  0.00     8 H
                                    1.15%     2 S               2.394  0.00     5 H
                                    1.09%     1 P:x            -5.239  0.67     3 C
       3.931  0.00    47 A         25.56%     4 P:x             3.720  0.00    12 Br
                                   23.12%     4 P:y             3.720  0.00    12 Br
                                   17.88%     1 S              -6.532  1.00     8 H
                                   11.98%     1 P:z            -5.239  0.67     3 C
                                    8.13%     1 P:x            -5.239  0.67     2 C
                                    6.90%     1 P:y            -5.239  0.67     2 C
                                    6.58%     2 P:z             4.589  0.00     1 C
                                    6.30%     4 P:z             3.720  0.00    12 Br
                                   -3.78%     2 P:x             4.589  0.00     3 C
                                    3.60%     2 P:x             4.589  0.00     1 C
                                   -3.48%     5 S               6.099  0.00    12 Br
                                   -3.34%     3 S              10.158  0.00     1 C
                                   -3.29%     2 S               2.394  0.00     8 H
                                   -2.87%     2 P:z             4.589  0.00     3 C
                                    2.59%     2 S               2.394  0.00     6 H
                                    2.58%     1 P:x            -5.239  0.67     3 C
                                   -2.47%     2 P:x             4.589  0.00     2 C
                                    2.10%     1 P:x            -7.062  1.00    13 N
                                   -2.10%     3 S              10.158  0.00     2 C
                                   -2.10%     1 P:x            -5.239  0.67     1 C
                                   -1.98%     2 P:y             4.589  0.00     3 C
                                   -1.95%     2 P:y             4.589  0.00     2 C
                                    1.83%     2 S             -18.450  2.00    13 N
                                    1.81%     2 S             -13.620  2.00     2 C
                                    1.74%     1 P:z            -7.062  1.00    13 N
                                   -1.39%     1 P:z            -5.239  0.67     1 C
                                   -1.33%     2 S               2.394  0.00     4 H
                                    1.13%     2 P:y             7.649  0.00    13 N
                                    1.07%     1 P:z            11.051  0.00    11 H

 Energy gradients wrt nuclear displacements
 ==========================================

     Atom      Cartesian (a.u./angstrom)
                 X         Y         Z
 ----------------------------------------
     1 C     0.000066  0.000009  0.000060
     2 H    -0.000003  0.000022  0.000004
     3 Br    0.000043  0.000130  0.000119
     4 C     0.000005 -0.000034  0.000007
     5 H     0.000104 -0.000012  0.000090
     6 H     0.000078 -0.000005  0.000079
     7 C    -0.000062  0.000045 -0.000031
     8 H    -0.000040  0.000004 -0.000040
     9 H    -0.000074  0.000110 -0.000004
    10 H    -0.000103  0.000027 -0.000087
    11 N    -0.000007 -0.000088 -0.000068
    12 H    -0.000028 -0.000095 -0.000085
    13 H     0.000019 -0.000113 -0.000046
 ----------------------------------------



 =======================================================================
 Electrostatic potential at the Nuclei due to electrons and other nuclei
 =======================================================================
  
         Atom                  Potential
         ----                  ---------
     1)   C                  14.74110849
     2)   H                   1.11179747
     3)   Br                180.54578002
     4)   C                  14.73908790
     5)   H                   1.09951643
     6)   H                   1.09358976
     7)   C                  14.79256344
     8)   H                   1.11293493
     9)   H                   1.11644360
    10)   H                   1.11424736
    11)   N                  18.42314340
    12)   H                   1.04947045
    13)   H                   1.05103416
 Mulliken charges used for AMS results%charges...


    =====================
     CALCULATION RESULTS
    =====================

Energy (hartree)            -2.35465168

Gradients (hartree/bohr)
  Index   Atom            d/dx            d/dy            d/dz
      1      C    0.0000347794    0.0000049857    0.0000320134
      2      H   -0.0000014355    0.0000118135    0.0000021573
      3     Br    0.0000227506    0.0000687345    0.0000629484
      4      C    0.0000028404   -0.0000181715    0.0000037242
      5      H    0.0000552193   -0.0000061884    0.0000478725
      6      H    0.0000410962   -0.0000028668    0.0000416587
      7      C   -0.0000327567    0.0000237092   -0.0000161500
      8      H   -0.0000210135    0.0000022869   -0.0000211143
      9      H   -0.0000389246    0.0000582124   -0.0000019913
     10      H   -0.0000542910    0.0000141970   -0.0000461004
     11      N   -0.0000038320   -0.0000467540   -0.0000357968
     12      H   -0.0000146803   -0.0000502987   -0.0000448069
     13      H    0.0000102478   -0.0000596598   -0.0000244146


--------------
Atomic charges
--------------
  Index   Atom    Charge
      1      C    0.6136
      2      H   -0.1615
      3     Br   -0.2946
      4      C    0.3253
      5      H   -0.1789
      6      H   -0.1814
      7      C    0.6901
      8      H   -0.2217
      9      H   -0.1944
     10      H   -0.2339
     11      N   -0.0746
     12      H   -0.0429
     13      H   -0.0451


Dipole moment vector    (Debye):    -1.84863116    1.62534987   -0.17584557
              magnitude (Debye):     2.46781706


-----------------------
Molecular orbitals info
-----------------------
n orbitals:              248
n spin:                    1

Note: only printing virtual orbitals with
      energy smaller than HOMO + 100. eV

HOMO (eV):              -5.8613
LUMO (eV):              -1.3307
HOMO-LUMO gap (eV):      4.5305

   Index   Energy (eV)    Occupation
     166       93.9028         0.000       
     165       92.8542         0.000       
     164       92.8250         0.000       
     163       91.6506         0.000       
     162       89.3093         0.000       
     161       88.9608         0.000       
     160       86.4666         0.000       
     159       85.9592         0.000       
     158       84.0564         0.000       
     157       83.5016         0.000       
     156       83.1590         0.000       
     155       82.0625         0.000       
     154       81.7113         0.000       
     153       81.3027         0.000       
     152       80.4086         0.000       
     151       79.9971         0.000       
     150       79.0386         0.000       
     149       78.7731         0.000       
     148       77.6988         0.000       
     147       77.3043         0.000       
     146       76.4275         0.000       
     145       76.3230         0.000       
     144       75.6850         0.000       
     143       75.3201         0.000       
     142       74.1166         0.000       
     141       72.6671         0.000       
     140       72.2222         0.000       
     139       70.7615         0.000       
     138       69.5714         0.000       
     137       68.0705         0.000       
     136       66.6942         0.000       
     135       65.5866         0.000       
     134       64.7436         0.000       
     133       62.9584         0.000       
     132       62.5554         0.000       
     131       60.7765         0.000       
     130       59.6094         0.000       
     129       59.2956         0.000       
     128       58.1673         0.000       
     127       55.7924         0.000       
     126       55.3112         0.000       
     125       55.0739         0.000       
     124       53.0929         0.000       
     123       52.4467         0.000       
     122       50.9059         0.000       
     121       50.7681         0.000       
     120       50.2039         0.000       
     119       49.2979         0.000       
     118       47.9096         0.000       
     117       45.8522         0.000       
     116       45.1762         0.000       
     115       44.8445         0.000       
     114       43.6199         0.000       
     113       43.1893         0.000       
     112       41.1739         0.000       
     111       39.6526         0.000       
     110       38.9020         0.000       
     109       38.3950         0.000       
     108       37.5609         0.000       
     107       37.1405         0.000       
     106       36.7576         0.000       
     105       36.0288         0.000       
     104       35.1501         0.000       
     103       34.3310         0.000       
     102       34.1071         0.000       
     101       33.8965         0.000       
     100       33.1578         0.000       
      99       32.9937         0.000       
      98       32.0447         0.000       
      97       30.7549         0.000       
      96       30.6239         0.000       
      95       30.4384         0.000       
      94       29.1812         0.000       
      93       28.9485         0.000       
      92       28.2275         0.000       
      91       27.5795         0.000       
      90       27.3500         0.000       
      89       26.9976         0.000       
      88       26.3924         0.000       
      87       25.3076         0.000       
      86       25.1568         0.000       
      85       24.7741         0.000       
      84       24.5540         0.000       
      83       24.2510         0.000       
      82       24.1155         0.000       
      81       22.7975         0.000       
      80       21.4796         0.000       
      79       20.3991         0.000       
      78       20.1888         0.000       
      77       18.9091         0.000       
      76       17.1165         0.000       
      75       15.9889         0.000       
      74       15.6336         0.000       
      73       15.2302         0.000       
      72       14.1406         0.000       
      71       13.0638         0.000       
      70       12.8934         0.000       
      69       12.5426         0.000       
      68       11.5328         0.000       
      67       11.3204         0.000       
      66       10.9841         0.000       
      65       10.7704         0.000       
      64       10.6006         0.000       
      63       10.2569         0.000       
      62        9.5746         0.000       
      61        9.3719         0.000       
      60        9.2650         0.000       
      59        8.7880         0.000       
      58        8.3958         0.000       
      57        7.4225         0.000       
      56        7.0357         0.000       
      55        6.8388         0.000       
      54        6.0610         0.000       
      53        5.8377         0.000       
      52        5.5104         0.000       
      51        5.1803         0.000       
      50        5.0878         0.000       
      49        4.8680         0.000       
      48        4.7251         0.000       
      47        3.9310         0.000       
      46        3.6694         0.000       
      45        3.3707         0.000       
      44        3.0525         0.000       
      43        2.2161         0.000       
      42        1.7777         0.000       
      41        1.6334         0.000       
      40        1.4877         0.000       
      39        0.7629         0.000       
      38        0.3869         0.000       
      37        0.2239         0.000       
      36       -0.3198         0.000       
      35       -1.3307         0.000 < LUMO
      34       -5.8613         2.000 < HOMO
      33       -6.4398         2.000       
      32       -6.5427         2.000       
      31       -8.5250         2.000       
      30       -8.7973         2.000       
      29       -8.9334         2.000       
      28       -9.7230         2.000       
      27      -10.3444         2.000       
      26      -11.0397         2.000       
      25      -11.3342         2.000       
      24      -12.4027         2.000       
      23      -14.4770         2.000       
      22      -16.8125         2.000       
      21      -18.2877         2.000       
      20      -20.1591         2.000       
      19      -22.2791         2.000       
      18      -65.2761         2.000       
      17      -65.2809         2.000       
      16      -65.5281         2.000       
      15      -65.5340         2.000       
      14      -65.6166         2.000       
      13     -171.8558         2.000       
      12     -171.8615         2.000       
      11     -172.1956         2.000       
      10     -235.7433         2.000       
       9     -269.8374         2.000       
       8     -271.2143         2.000       
       7     -271.3041         2.000       
       6     -381.3817         2.000       
       5    -1525.9642         2.000       
       4    -1525.9660         2.000       
       3    -1526.0800         2.000       
       2    -1729.0923         2.000       
       1   -13295.5857         2.000       

AMS application finished. Exiting.
NORMAL TERMINATION
     Total cpu time:     485.51
  Total system time:       2.74
 Total elapsed time:     489.89
NORMAL TERMINATION
