
 *******************************************************************************
 *                                                                             *
 *  --------------------------------                                           *
 *   Amsterdam Modeling Suite (AMS)              2026.103                      *
 *  --------------------------------                                           *
 *                                               r260501 2026-05-01 873454b5   *
 *                                                                             *
 *                                                                             *
 *                              =================                              *
 *                              |               |                              *
 *                              |     A M S     |                              *
 *                              |               |                              *
 *                              =================                              *
 *                                                                             *
 *                                                                             *
 *   Online information and documentation:  https://www.scm.com/support/       *
 *   E-mail:  support@scm.com   info@scm.com                                   *
 *                                                                             *
 *   Scientific publications using AMS results must be properly referenced     *
 *   See the User Manuals (or the web site) for recommended citations          *
 *   The terms and conditions of the End User License Agreement apply to       *
 *   the use of AMS, https://www.scm.com/license-terms/                        *
 *                                                                             *
 **********************  x86_64_linux_intel / intelmpi  ************************
 
 Licensed to: Jong-June Jeon / University of Seoul 2026-05-13 16:10:32
 SCM User ID: u30731
  
 AMS 2026.103  RunTime: May31-2026 00:02:00  ShM Nodes: 1  Procs: 1

 AMS jobname: c3_eda
 AMS jobid  : 45990874

 Start   directory: /gpfs/home1/yeseo1ee/projects/eda-asm-prediction/adf_outputs/batch_001/dipolar_002141/
 Results directory: /gpfs/home1/yeseo1ee/projects/eda-asm-prediction/adf_outputs/batch_001/dipolar_002141/c3_eda.results/
 Scratch directory: /tmp/amstmp_c3_eda_kid0.45990874/

 RNG seed: 1203093571 -1397081432 463486602 304304202 1635111610 538951012 -1435454976 1370096507



                      ************************************************************************
                      *  ADF 2026.103  RunTime: May31-2026 00:02:01  ShM Nodes: 1  Procs: 1  *
                      ************************************************************************
  

       ****************************
       * SINGLE POINT CALCULATION *
       ****************************

--------
Geometry
--------
Formula: C16H18BrN3O6
Atoms
  Index Symbol   x (angstrom)   y (angstrom)   z (angstrom)
      1      C     3.92443000    -1.44227000     2.53957000 adf.f=fA
      2      N     3.17948000    -0.56357000     1.66104000 adf.f=fA
      3      C     2.68594000    -0.99650000     0.49543000 adf.f=fA
      4      O     2.86944000    -2.14557000     0.06091000 adf.f=fA
      5      C     1.82279000    -0.04980000    -0.28848000 adf.f=fA
      6      C     1.95630000     1.40335000    -0.09962000 adf.f=fA
      7      O     2.29282000     1.92566000     0.95521000 adf.f=fA
      8      O     1.68760000     2.09120000    -1.19963000 adf.f=fA
      9      C     1.60834000     3.52047000    -1.09742000 adf.f=fA
     10      N     1.37121000    -0.63736000    -1.42397000 adf.f=fA
     11      C     0.26209000    -0.41986000    -2.16758000 adf.f=fA
     12      C    -0.10945000    -1.49547000    -3.15569000 adf.f=fA
     13      C    -0.17021000     0.88813000    -2.56397000 adf.f=fA
     14      N    -0.63354000     1.85300000    -3.01935000 adf.f=fA
     15      H     4.82727000    -1.83022000     2.04265000 adf.f=fA
     16      H     3.31274000    -2.30431000     2.85226000 adf.f=fA
     17      H     4.22455000    -0.87823000     3.43083000 adf.f=fA
     18      H     2.94789000     0.38924000     1.93913000 adf.f=fA
     19      H     0.88120000     3.80103000    -0.32354000 adf.f=fA
     20      H     1.27278000     3.86883000    -2.08034000 adf.f=fA
     21      H     2.59504000     3.93995000    -0.85618000 adf.f=fA
     22      H     1.66048000    -1.62738000    -1.40591000 adf.f=fA
     23      H     0.42224000    -1.34658000    -4.10988000 adf.f=fA
     24      H     0.14738000    -2.48631000    -2.75656000 adf.f=fA
     25      H    -1.18757000    -1.45779000    -3.36479000 adf.f=fA
     26      C    -1.22840000    -0.63713000    -0.37959000 adf.f=fB
     27     Br    -2.78114000     0.33371000    -0.89233000 adf.f=fB
     28      C    -1.40516000    -2.17751000    -0.30820000 adf.f=fB
     29      C    -2.27778000    -2.46247000     0.93036000 adf.f=fB
     30      C    -1.49106000    -2.18368000     1.97531000 adf.f=fB
     31      C    -0.15634000    -1.73091000     1.36202000 adf.f=fB
     32      O    -0.10901000    -2.54261000     0.17221000 adf.f=fB
     33      C    -0.42118000    -0.34093000     0.73005000 adf.f=fB
     34      C    -0.42395000     0.89868000     1.50297000 adf.f=fB
     35      O    -0.74008000     1.99907000     1.08552000 adf.f=fB
     36      O    -0.00868000     0.68144000     2.76528000 adf.f=fB
     37      C     0.07884000     1.82898000     3.61961000 adf.f=fB
     38      H    -1.66642000    -2.68884000    -1.23916000 adf.f=fB
     39      H    -3.32290000    -2.76724000     0.90422000 adf.f=fB
     40      H    -1.71834000    -2.18815000     3.04049000 adf.f=fB
     41      H     0.73956000    -1.84029000     1.97678000 adf.f=fB
     42      H    -0.90924000     2.29572000     3.74275000 adf.f=fB
     43      H     0.78183000     2.56340000     3.20253000 adf.f=fB
     44      H     0.44477000     1.45936000     4.58451000 adf.f=fB

Total System Charge              0.00000


----------------
ADF Engine Input
----------------
 
   Basis
     Type TZ2P
     Core None
   End
   XC
     GGA BLYP
     Dispersion GRIMME3 BJDAMP
   End
   Symmetry NOSYM
   NumericalQuality Normal
   Unrestricted No
   SCF
     Iterations 200
     Converge 1.0e-6
   End
   fragments
     fA c1_fragA_ts.results/adf.rkf
     fB c2_fragB_ts.results/adf.rkf
   end
   etsnocv
     enocv 0.05
     ekmin 0.5
   end
   print etslowdin
   Save TAPE21
 

 Title: *** (NO TITLE) ***

 *** adf ***



 ===========================
 A T T A C H E D   F I L E S
 ===========================
  



 ===============================
 M O D E L   P A R A M E T E R S
 ===============================
  
 DENSITY FUNCTIONAL POTENTIAL (scf)
    LDA:                               Exchange only                           == Not Default ==
    Gradient Corrections:              Becke88 LYP                             == Not Default ==

 SPIN  (restricted / unrestr.)
    Molecule:                          Restricted                               
    Fragments:                         Restricted                               

 OTHER ASPECTS
    Relativistic Corrections:          scalar (ZORA,MAPA)                       

    Nuclear Charge Density Model:      Point Charge Nuclei                      
    Core Treatment:                    Frozen Orbital(s)                        

    Hyperfine or Zeeman Interaction:   ---                                      

 Settings for Grimme D3 dispersion correction

      damping                        BJ
      s6                          1.000
      s8                          2.700
      a1                          0.430
      a2                          4.236

 Other (technical) parameters

      alpha                      14.000
      version                         4
 


 Fragment File(s)
 ----------------
 fA:
         file : c1_fragA_ts.results/adf.rkf
         jobid: 481104248
         title: *** adf ***
 fB:
         file : c2_fragB_ts.results/adf.rkf
         jobid: 2098370243
         title: *** adf ***



 ===============
 G E O M E T R Y  ***  3D  Molecule  ***
 ===============
  

 ATOMS
 =====                            X Y Z                    CHARGE
                                (Angstrom)             Nucl     +Core       At.Mass
                       --------------------------    ----------------       -------
    1  C               3.9244   -1.4423    2.5396      6.00      6.00       12.0000
    2  N               3.1795   -0.5636    1.6610      7.00      7.00       14.0031
    3  C               2.6859   -0.9965    0.4954      6.00      6.00       12.0000
    4  O               2.8694   -2.1456    0.0609      8.00      8.00       15.9949
    5  C               1.8228   -0.0498   -0.2885      6.00      6.00       12.0000
    6  C               1.9563    1.4034   -0.0996      6.00      6.00       12.0000
    7  O               2.2928    1.9257    0.9552      8.00      8.00       15.9949
    8  O               1.6876    2.0912   -1.1996      8.00      8.00       15.9949
    9  C               1.6083    3.5205   -1.0974      6.00      6.00       12.0000
   10  N               1.3712   -0.6374   -1.4240      7.00      7.00       14.0031
   11  C               0.2621   -0.4199   -2.1676      6.00      6.00       12.0000
   12  C              -0.1095   -1.4955   -3.1557      6.00      6.00       12.0000
   13  C              -0.1702    0.8881   -2.5640      6.00      6.00       12.0000
   14  N              -0.6335    1.8530   -3.0194      7.00      7.00       14.0031
   15  H               4.8273   -1.8302    2.0427      1.00      1.00        1.0078
   16  H               3.3127   -2.3043    2.8523      1.00      1.00        1.0078
   17  H               4.2245   -0.8782    3.4308      1.00      1.00        1.0078
   18  H               2.9479    0.3892    1.9391      1.00      1.00        1.0078
   19  H               0.8812    3.8010   -0.3235      1.00      1.00        1.0078
   20  H               1.2728    3.8688   -2.0803      1.00      1.00        1.0078
   21  H               2.5950    3.9400   -0.8562      1.00      1.00        1.0078
   22  H               1.6605   -1.6274   -1.4059      1.00      1.00        1.0078
   23  H               0.4222   -1.3466   -4.1099      1.00      1.00        1.0078
   24  H               0.1474   -2.4863   -2.7566      1.00      1.00        1.0078
   25  H              -1.1876   -1.4578   -3.3648      1.00      1.00        1.0078
   26  C              -1.2284   -0.6371   -0.3796      6.00      6.00       12.0000
   27  Br             -2.7811    0.3337   -0.8923     35.00     35.00       78.9183
   28  C              -1.4052   -2.1775   -0.3082      6.00      6.00       12.0000
   29  C              -2.2778   -2.4625    0.9304      6.00      6.00       12.0000
   30  C              -1.4911   -2.1837    1.9753      6.00      6.00       12.0000
   31  C              -0.1563   -1.7309    1.3620      6.00      6.00       12.0000
   32  O              -0.1090   -2.5426    0.1722      8.00      8.00       15.9949
   33  C              -0.4212   -0.3409    0.7300      6.00      6.00       12.0000
   34  C              -0.4239    0.8987    1.5030      6.00      6.00       12.0000
   35  O              -0.7401    1.9991    1.0855      8.00      8.00       15.9949
   36  O              -0.0087    0.6814    2.7653      8.00      8.00       15.9949
   37  C               0.0788    1.8290    3.6196      6.00      6.00       12.0000
   38  H              -1.6664   -2.6888   -1.2392      1.00      1.00        1.0078
   39  H              -3.3229   -2.7672    0.9042      1.00      1.00        1.0078
   40  H              -1.7183   -2.1881    3.0405      1.00      1.00        1.0078
   41  H               0.7396   -1.8403    1.9768      1.00      1.00        1.0078
   42  H              -0.9092    2.2957    3.7428      1.00      1.00        1.0078
   43  H               0.7818    2.5634    3.2025      1.00      1.00        1.0078
   44  H               0.4448    1.4594    4.5845      1.00      1.00        1.0078


 FRAGMENTS
 =========                                     Atoms in this Fragment     Cart. coord.s (Angstrom)
                                               -------------------------------------------------------
    1  fA                                                1  C            3.9244   -1.4423    2.5396
                                                         3  C            2.6859   -0.9965    0.4954
                                                         5  C            1.8228   -0.0498   -0.2885
                                                         6  C            1.9563    1.4034   -0.0996
                                                         9  C            1.6083    3.5205   -1.0974
                                                        11  C            0.2621   -0.4199   -2.1676
                                                        12  C           -0.1095   -1.4955   -3.1557
                                                        13  C           -0.1702    0.8881   -2.5640
                                                         2  N            3.1795   -0.5636    1.6610
                                                        10  N            1.3712   -0.6374   -1.4240
                                                        14  N           -0.6335    1.8530   -3.0194
                                                         4  O            2.8694   -2.1456    0.0609
                                                         7  O            2.2928    1.9257    0.9552
                                                         8  O            1.6876    2.0912   -1.1996
                                                        15  H            4.8273   -1.8302    2.0427
                                                        16  H            3.3127   -2.3043    2.8523
                                                        17  H            4.2245   -0.8782    3.4308
                                                        18  H            2.9479    0.3892    1.9391
                                                        19  H            0.8812    3.8010   -0.3235
                                                        20  H            1.2728    3.8688   -2.0803
                                                        21  H            2.5950    3.9400   -0.8562
                                                        22  H            1.6605   -1.6274   -1.4059
                                                        23  H            0.4222   -1.3466   -4.1099
                                                        24  H            0.1474   -2.4863   -2.7566
                                                        25  H           -1.1876   -1.4578   -3.3648
    2  fB                                               26  C           -1.2284   -0.6371   -0.3796
                                                        28  C           -1.4052   -2.1775   -0.3082
                                                        29  C           -2.2778   -2.4625    0.9304
                                                        30  C           -1.4911   -2.1837    1.9753
                                                        31  C           -0.1563   -1.7309    1.3620
                                                        33  C           -0.4212   -0.3409    0.7300
                                                        34  C           -0.4239    0.8987    1.5030
                                                        37  C            0.0788    1.8290    3.6196
                                                        27  Br          -2.7811    0.3337   -0.8923
                                                        32  O           -0.1090   -2.5426    0.1722
                                                        35  O           -0.7401    1.9991    1.0855
                                                        36  O           -0.0087    0.6814    2.7653
                                                        38  H           -1.6664   -2.6888   -1.2392
                                                        39  H           -3.3229   -2.7672    0.9042
                                                        40  H           -1.7183   -2.1881    3.0405
                                                        41  H            0.7396   -1.8403    1.9768
                                                        42  H           -0.9092    2.2957    3.7428
                                                        43  H            0.7818    2.5634    3.2025
                                                        44  H            0.4448    1.4594    4.5845



 =====================================
 S Y M M E T R Y ,   E L E C T R O N S
 =====================================
  
 Symmetry: NOSYM

 Irreducible Representations, including subspecies
 -------------------------------------------------
 A


 Configuration of Valence Electrons
 ==================================
 ( determined in the SCF procedure )

 Total:   218

 Net Charge: 0 (Nuclei minus Electrons)

 Aufbau principle for MO occupations will be applied through SCF cycle no.     100
 Thereafter, the program will assign electrons to MOs that are spatially
 similar to the occupied MOs in a "reference" cycle ("KeepOrbitals").
 The reference cycle is always the PREVIOUS cycle: it will evolve with
 the SCF procedure.
 ***************************************************************************************************



                                      ****************************************
                                      *  B U I L D : (Fragments, Functions)  *
                                      ****************************************
  

 The individual fragments are copies of the corresponding 'Master' fragments defined on the fragment files.
 However, they may have been rotated (and translated) with respect to the Master. The local coordinate axes
 of each fragment (which define for instance the spatial orientation in the current molecule of a fragment
 P:x orbital) are not necessarily those of the molecule.
 The local frame (if different from the molecular one) is printed to enable an interpretation of the expan-
 sion of an MO in Fragment Orbitals.



                                              ************************
                                              *  Fragment Type : fA  *
                                              ************************
  

 Fragment no.    1   (in the list of all fragments)
 -----------------
 The local coordinate frame is identical to the molecular frame.

 Check Atomic Coordinates:

                  Master (on file)          After Computed Tranformation               As specified on Input
           ----------------------------     ----------------------------     ---------------------------------
     1)     3.92443  -1.44227   2.53957      3.92443  -1.44227   2.53957       1   3.92443  -1.44227   2.53957
     2)     2.68594  -0.99650   0.49543      2.68594  -0.99650   0.49543       3   2.68594  -0.99650   0.49543
     3)     1.82279  -0.04980  -0.28848      1.82279  -0.04980  -0.28848       5   1.82279  -0.04980  -0.28848
     4)     1.95630   1.40335  -0.09962      1.95630   1.40335  -0.09962       6   1.95630   1.40335  -0.09962
     5)     1.60834   3.52047  -1.09742      1.60834   3.52047  -1.09742       9   1.60834   3.52047  -1.09742
     6)     0.26209  -0.41986  -2.16758      0.26209  -0.41986  -2.16758      11   0.26209  -0.41986  -2.16758
     7)    -0.10945  -1.49547  -3.15569     -0.10945  -1.49547  -3.15569      12  -0.10945  -1.49547  -3.15569
     8)    -0.17021   0.88813  -2.56397     -0.17021   0.88813  -2.56397      13  -0.17021   0.88813  -2.56397
     9)     3.17948  -0.56357   1.66104      3.17948  -0.56357   1.66104       2   3.17948  -0.56357   1.66104
    10)     1.37121  -0.63736  -1.42397      1.37121  -0.63736  -1.42397      10   1.37121  -0.63736  -1.42397
    11)    -0.63354   1.85300  -3.01935     -0.63354   1.85300  -3.01935      14  -0.63354   1.85300  -3.01935
    12)     2.86944  -2.14557   0.06091      2.86944  -2.14557   0.06091       4   2.86944  -2.14557   0.06091
    13)     2.29282   1.92566   0.95521      2.29282   1.92566   0.95521       7   2.29282   1.92566   0.95521
    14)     1.68760   2.09120  -1.19963      1.68760   2.09120  -1.19963       8   1.68760   2.09120  -1.19963
    15)     4.82727  -1.83022   2.04265      4.82727  -1.83022   2.04265      15   4.82727  -1.83022   2.04265
    16)     3.31274  -2.30431   2.85226      3.31274  -2.30431   2.85226      16   3.31274  -2.30431   2.85226
    17)     4.22455  -0.87823   3.43083      4.22455  -0.87823   3.43083      17   4.22455  -0.87823   3.43083
    18)     2.94789   0.38924   1.93913      2.94789   0.38924   1.93913      18   2.94789   0.38924   1.93913
    19)     0.88120   3.80103  -0.32354      0.88120   3.80103  -0.32354      19   0.88120   3.80103  -0.32354
    20)     1.27278   3.86883  -2.08034      1.27278   3.86883  -2.08034      20   1.27278   3.86883  -2.08034
    21)     2.59504   3.93995  -0.85618      2.59504   3.93995  -0.85618      21   2.59504   3.93995  -0.85618
    22)     1.66048  -1.62738  -1.40591      1.66048  -1.62738  -1.40591      22   1.66048  -1.62738  -1.40591
    23)     0.42224  -1.34658  -4.10988      0.42224  -1.34658  -4.10988      23   0.42224  -1.34658  -4.10988
    24)     0.14738  -2.48631  -2.75656      0.14738  -2.48631  -2.75656      24   0.14738  -2.48631  -2.75656
    25)    -1.18757  -1.45779  -3.36479     -1.18757  -1.45779  -3.36479      25  -1.18757  -1.45779  -3.36479



                                              ************************
                                              *  Fragment Type : fB  *
                                              ************************
  

 Fragment no.    2   (in the list of all fragments)
 -----------------
 The local coordinate frame is identical to the molecular frame.

 Check Atomic Coordinates:

                  Master (on file)          After Computed Tranformation               As specified on Input
           ----------------------------     ----------------------------     ---------------------------------
     1)    -1.22840  -0.63713  -0.37959     -1.22840  -0.63713  -0.37959      26  -1.22840  -0.63713  -0.37959
     2)    -1.40516  -2.17751  -0.30820     -1.40516  -2.17751  -0.30820      28  -1.40516  -2.17751  -0.30820
     3)    -2.27778  -2.46247   0.93036     -2.27778  -2.46247   0.93036      29  -2.27778  -2.46247   0.93036
     4)    -1.49106  -2.18368   1.97531     -1.49106  -2.18368   1.97531      30  -1.49106  -2.18368   1.97531
     5)    -0.15634  -1.73091   1.36202     -0.15634  -1.73091   1.36202      31  -0.15634  -1.73091   1.36202
     6)    -0.42118  -0.34093   0.73005     -0.42118  -0.34093   0.73005      33  -0.42118  -0.34093   0.73005
     7)    -0.42395   0.89868   1.50297     -0.42395   0.89868   1.50297      34  -0.42395   0.89868   1.50297
     8)     0.07884   1.82898   3.61961      0.07884   1.82898   3.61961      37   0.07884   1.82898   3.61961
     9)    -2.78114   0.33371  -0.89233     -2.78114   0.33371  -0.89233      27  -2.78114   0.33371  -0.89233
    10)    -0.10901  -2.54261   0.17221     -0.10901  -2.54261   0.17221      32  -0.10901  -2.54261   0.17221
    11)    -0.74008   1.99907   1.08552     -0.74008   1.99907   1.08552      35  -0.74008   1.99907   1.08552
    12)    -0.00868   0.68144   2.76528     -0.00868   0.68144   2.76528      36  -0.00868   0.68144   2.76528
    13)    -1.66642  -2.68884  -1.23916     -1.66642  -2.68884  -1.23916      38  -1.66642  -2.68884  -1.23916
    14)    -3.32290  -2.76724   0.90422     -3.32290  -2.76724   0.90422      39  -3.32290  -2.76724   0.90422
    15)    -1.71834  -2.18815   3.04049     -1.71834  -2.18815   3.04049      40  -1.71834  -2.18815   3.04049
    16)     0.73956  -1.84029   1.97678      0.73956  -1.84029   1.97678      41   0.73956  -1.84029   1.97678
    17)    -0.90924   2.29572   3.74275     -0.90924   2.29572   3.74275      42  -0.90924   2.29572   3.74275
    18)     0.78183   2.56340   3.20253      0.78183   2.56340   3.20253      43   0.78183   2.56340   3.20253
    19)     0.44477   1.45936   4.58451      0.44477   1.45936   4.58451      44   0.44477   1.45936   4.58451



 =======
 S F O s  ***  (Symmetrized Fragment Orbitals)  ***
 =======
  
 SFOs are linear combinations of (valence) Fragment Orbitals (FOs), such that the SFOs transform as the
 irreducible representations of the (molecular) symmetry group. Each SFO is therefore characterized by
 an irrep of the molecule and by a few (or only one) generating FOs.
 The SFOs constitute a symmetry-adapted basis for the Fock matrix. The MO eigenvector coefficients in
 this basis provide a direct interpretation of the MOs in terms of Frontier Orbital Theory.

 The SFOs are combined with auxiliary Core Functions (CFs) to ensure orthogonalization on the (frozen)
 Core Orbitals (COs). The Core-orthogonalized SFOs (CSFOs) constitute the true Fock basis.

 The FOs, and hence also the (C)SFOs are combinations of the elementary basis functions (BAS). The basis
 functions that participate in the description of the SFOs depend on the irrep. The indices of the
 involved functions are printed below for each irrep.
 (The complete list of primitive basis functions is printed in another section)

 Total nr. of (C)SFOs (summation over all irreps) :   904

 NOTE: a (C)SFO that is defined as a combination of more than one FO is usually NOT normalized.



                                       === A ===
 Nr. of SFOs :  904
 Cartesian basis functions that participate in this irrep (total number =  1029) :
      1     2     3     4     5     6     9    12     7    10
     13     8    11    14    15    16    17    18    19    20
     21    22    23    24    25    26    27    28    29    30
     31    32    33    34    35    36    39    42    37    40
     43    38    41    44    45    46    47    48    49    50
     51    52    53    54    55    56    57    58    59    60
     61    62    63    64    65    66    69    72    67    70
     73    68    71    74    75    76    77    78    79    80
     81    82    83    84    85    86    87    88    89    90
     91    92    93    94    95    96    99   102    97   100
    103    98   101   104   105   106   107   108   109   110
    111   112   113   114   115   116   117   118   119   120
    121   122   123   124   125   126   129   132   127   130
    133   128   131   134   135   136   137   138   139   140
    141   142   143   144   145   146   147   148   149   150
    151   152   153   154   155   156   159   162   157   160
    163   158   161   164   165   166   167   168   169   170
    171   172   173   174   175   176   177   178   179   180
    181   182   183   184   185   186   189   192   187   190
    193   188   191   194   195   196   197   198   199   200
    201   202   203   204   205   206   207   208   209   210
    211   212   213   214   215   216   219   222   217   220
    223   218   221   224   225   226   227   228   229   230
    231   232   233   234   235   236   237   238   239   240
    241   242   243   244   245   246   249   252   247   250
    253   248   251   254   255   256   257   258   259   260
    261   262   263   264   265   266   267   268   269   270
    271   272   273   274   275   276   279   282   277   280
    283   278   281   284   285   286   287   288   289   290
    291   292   293   294   295   296   297   298   299   300
    301   302   303   304   305   306   309   312   307   310
    313   308   311   314   315   316   317   318   319   320
    321   322   323   324   325   326   327   328   329   330
    331   332   333   334   335   336   339   342   337   340
    343   338   341   344   345   346   347   348   349   350
    351   352   353   354   355   356   357   358   359   360
    361   362   363   364   365   366   369   372   367   370
    373   368   371   374   375   376   377   378   379   380
    381   382   383   384   385   386   387   388   389   390
    391   392   393   394   395   396   399   402   397   400
    403   398   401   404   405   406   407   408   409   410
    411   412   413   414   415   416   417   418   419   420
    421   422   423   424   425   426   427   428   429   430
    431   432   433   434   435   436   437   438   439   440
    441   442   443   444   445   446   447   448   449   450
    451   452   453   454   455   456   457   458   459   460
    461   462   463   464   465   466   467   468   469   470
    471   472   473   474   475   476   477   478   479   480
    481   482   483   484   485   486   487   488   489   490
    491   492   493   494   495   496   497   498   499   500
    501   502   503   504   505   506   507   508   509   510
    511   512   513   514   515   516   517   518   519   520
    521   522   523   524   525   526   527   528   529   530
    531   532   533   534   535   536   537   538   539   540
    541   542   543   544   545   546   547   548   549   550
    551   552   553   554   555   556   557   558   561   564
    559   562   565   560   563   566   567   568   569   570
    571   572   573   574   575   576   577   578   579   580
    581   582   583   584   585   586   587   588   591   594
    589   592   595   590   593   596   597   598   599   600
    601   602   603   604   605   606   607   608   609   610
    611   612   613   614   615   616   617   618   621   624
    619   622   625   620   623   626   627   628   629   630
    631   632   633   634   635   636   637   638   639   640
    641   642   643   644   645   646   647   648   651   654
    649   652   655   650   653   656   657   658   659   660
    661   662   663   664   665   666   667   668   669   670
    671   672   673   674   675   676   677   678   681   684
    679   682   685   680   683   686   687   688   689   690
    691   692   693   694   695   696   697   698   699   700
    701   702   703   704   705   706   707   708   711   714
    709   712   715   710   713   716   717   718   719   720
    721   722   723   724   725   726   727   728   729   730
    731   732   733   734   735   736   737   738   741   744
    739   742   745   740   743   746   747   748   749   750
    751   752   753   754   755   756   757   758   759   760
    761   762   763   764   765   766   767   768   771   774
    769   772   775   770   773   776   777   778   779   780
    781   782   783   784   785   786   787   788   789   790
    791   792   793   794   795   802   803   828   829   830
    796   799   804   807   831   834   837   797   800   805
    808   832   835   838   798   801   806   809   833   836
    839   810   816   822   840   811   817   823   841   812
    818   824   842   813   819   825   843   814   820   826
    844   815   821   827   845   846   847   848   849   850
    851   852   853   854   855   856   857   858   859   860
    861   864   867   862   865   868   863   866   869   870
    871   872   873   874   875   876   877   878   879   880
    881   882   883   884   885   886   887   888   889   890
    891   894   897   892   895   898   893   896   899   900
    901   902   903   904   905   906   907   908   909   910
    911   912   913   914   915   916   917   918   919   920
    921   924   927   922   925   928   923   926   929   930
    931   932   933   934   935   936   937   938   939   940
    941   942   943   944   945   946   947   948   949   950
    951   952   953   954   955   956   957   958   959   960
    961   962   963   964   965   966   967   968   969   970
    971   972   973   974   975   976   977   978   979   980
    981   982   983   984   985   986   987   988   989   990
    991   992   993   994   995   996   997   998   999  1000
   1001  1002  1003  1004  1005  1006  1007  1008  1009  1010
   1011  1012  1013  1014  1015  1016  1017  1018  1019  1020
   1021  1022  1023  1024  1025  1026  1027  1028  1029

    SFO  (index         Fragment          Generating    Expansion in Fragment Orbitals
  indx  incl.CFs)   Occup   Orb.Energy   FragmentType  Coeff.   Orbital     on Fragment
 --------------------------------------------------------------------------------------
     1       1      2.000     -18.850 au  fA            1.00      1 A               1
                        (    -512.936 eV)
     2       2      2.000     -18.788 au  fA            1.00      2 A               1
                        (    -511.249 eV)
     3       3      2.000     -18.767 au  fA            1.00      3 A               1
                        (    -510.676 eV)
     4       4      2.000     -14.130 au  fA            1.00      4 A               1
                        (    -384.487 eV)
     5       5      2.000     -14.050 au  fA            1.00      5 A               1
                        (    -382.324 eV)
     6       6      2.000     -14.025 au  fA            1.00      6 A               1
                        (    -381.650 eV)
     7       7      2.000     -10.057 au  fA            1.00      7 A               1
                        (    -273.659 eV)
     8       8      2.000     -10.024 au  fA            1.00      8 A               1
                        (    -272.773 eV)
     9       9      2.000     -10.016 au  fA            1.00      9 A               1
                        (    -272.551 eV)
    10      10      2.000      -9.981 au  fA            1.00     10 A               1
                        (    -271.596 eV)
    11      11      2.000      -9.980 au  fA            1.00     11 A               1
                        (    -271.565 eV)
    12      12      2.000      -9.968 au  fA            1.00     12 A               1
                        (    -271.257 eV)
    13      13      2.000      -9.958 au  fA            1.00     13 A               1
                        (    -270.971 eV)
    14      14      2.000      -9.955 au  fA            1.00     14 A               1
                        (    -270.902 eV)
    15      15      2.000      -1.031 au  fA            1.00     15 A               1
                        (     -28.068 eV)
    16      16      2.000      -0.961 au  fA            1.00     16 A               1
                        (     -26.163 eV)
    17      17      2.000      -0.940 au  fA            1.00     17 A               1
                        (     -25.576 eV)
    18      18      2.000      -0.924 au  fA            1.00     18 A               1
                        (     -25.135 eV)
    19      19      2.000      -0.848 au  fA            1.00     19 A               1
                        (     -23.083 eV)
    20      20      2.000      -0.831 au  fA            1.00     20 A               1
                        (     -22.623 eV)
    21      21      2.000      -0.750 au  fA            1.00     21 A               1
                        (     -20.412 eV)
    22      22      2.000      -0.695 au  fA            1.00     22 A               1
                        (     -18.912 eV)
    23      23      2.000      -0.668 au  fA            1.00     23 A               1
                        (     -18.173 eV)
    24      24      2.000      -0.637 au  fA            1.00     24 A               1
                        (     -17.330 eV)
    25      25      2.000      -0.619 au  fA            1.00     25 A               1
                        (     -16.846 eV)
    26      26      2.000      -0.554 au  fA            1.00     26 A               1
                        (     -15.072 eV)
    27      27      2.000      -0.537 au  fA            1.00     27 A               1
                        (     -14.620 eV)
    28      28      2.000      -0.519 au  fA            1.00     28 A               1
                        (     -14.127 eV)
    29      29      2.000      -0.510 au  fA            1.00     29 A               1
                        (     -13.874 eV)
    30      30      2.000      -0.464 au  fA            1.00     30 A               1
                        (     -12.625 eV)
    31      31      2.000      -0.449 au  fA            1.00     31 A               1
                        (     -12.221 eV)
    32      32      2.000      -0.438 au  fA            1.00     32 A               1
                        (     -11.917 eV)
    33      33      2.000      -0.426 au  fA            1.00     33 A               1
                        (     -11.590 eV)
    34      34      2.000      -0.419 au  fA            1.00     34 A               1
                        (     -11.397 eV)
    35      35      2.000      -0.411 au  fA            1.00     35 A               1
                        (     -11.195 eV)
    36      36      2.000      -0.406 au  fA            1.00     36 A               1
                        (     -11.036 eV)
    37      37      2.000      -0.389 au  fA            1.00     37 A               1
                        (     -10.593 eV)
    38      38      2.000      -0.382 au  fA            1.00     38 A               1
                        (     -10.402 eV)
    39      39      2.000      -0.381 au  fA            1.00     39 A               1
                        (     -10.354 eV)
    40      40      2.000      -0.369 au  fA            1.00     40 A               1
                        (     -10.041 eV)
    41      41      2.000      -0.355 au  fA            1.00     41 A               1
                        (      -9.651 eV)
    42      42      2.000      -0.352 au  fA            1.00     42 A               1
                        (      -9.589 eV)
    43      43      2.000      -0.340 au  fA            1.00     43 A               1
                        (      -9.262 eV)
    44      44      2.000      -0.327 au  fA            1.00     44 A               1
                        (      -8.912 eV)
    45      45      2.000      -0.322 au  fA            1.00     45 A               1
                        (      -8.756 eV)
    46      46      2.000      -0.315 au  fA            1.00     46 A               1
                        (      -8.577 eV)
    47      47      2.000      -0.302 au  fA            1.00     47 A               1
                        (      -8.226 eV)
    48      48      2.000      -0.274 au  fA            1.00     48 A               1
                        (      -7.459 eV)
    49      49      2.000      -0.249 au  fA            1.00     49 A               1
                        (      -6.773 eV)
    50      50      2.000      -0.235 au  fA            1.00     50 A               1
                        (      -6.387 eV)
    51      51      2.000      -0.229 au  fA            1.00     51 A               1
                        (      -6.245 eV)
    52      52      2.000      -0.198 au  fA            1.00     52 A               1
                        (      -5.385 eV)
    53      53       --        -0.133 au  fA            1.00     53 A               1
                        (      -3.616 eV)
    54      54       --        -0.031 au  fA            1.00     54 A               1
                        (      -0.838 eV)
    55      55       --        -0.027 au  fA            1.00     55 A               1
                        (      -0.724 eV)
    56      56       --        -0.020 au  fA            1.00     56 A               1
                        (      -0.540 eV)
    57      57       --        -0.005 au  fA            1.00     57 A               1
                        (      -0.131 eV)
    58      58       --         0.005 au  fA            1.00     58 A               1
                        (       0.125 eV)
    59      59       --         0.016 au  fA            1.00     59 A               1
                        (       0.437 eV)
    60      60       --         0.020 au  fA            1.00     60 A               1
                        (       0.537 eV)
    61      61       --         0.032 au  fA            1.00     61 A               1
                        (       0.860 eV)
    62      62       --         0.035 au  fA            1.00     62 A               1
                        (       0.946 eV)
    63      63       --         0.040 au  fA            1.00     63 A               1
                        (       1.097 eV)
    64      64       --         0.051 au  fA            1.00     64 A               1
                        (       1.379 eV)
    65      65       --         0.053 au  fA            1.00     65 A               1
                        (       1.430 eV)
    66      66       --         0.058 au  fA            1.00     66 A               1
                        (       1.578 eV)
    67      67       --         0.061 au  fA            1.00     67 A               1
                        (       1.658 eV)
    68      68       --         0.067 au  fA            1.00     68 A               1
                        (       1.812 eV)
    69      69       --         0.071 au  fA            1.00     69 A               1
                        (       1.942 eV)
    70      70       --         0.087 au  fA            1.00     70 A               1
                        (       2.376 eV)
    71      71       --         0.113 au  fA            1.00     71 A               1
                        (       3.064 eV)
    72      72       --         0.120 au  fA            1.00     72 A               1
                        (       3.257 eV)
    73      73       --         0.129 au  fA            1.00     73 A               1
                        (       3.500 eV)
    74      74       --         0.140 au  fA            1.00     74 A               1
                        (       3.807 eV)
    75      75       --         0.149 au  fA            1.00     75 A               1
                        (       4.041 eV)
    76      76       --         0.151 au  fA            1.00     76 A               1
                        (       4.109 eV)
    77      77       --         0.160 au  fA            1.00     77 A               1
                        (       4.361 eV)
    78      78       --         0.164 au  fA            1.00     78 A               1
                        (       4.457 eV)
    79      79       --         0.174 au  fA            1.00     79 A               1
                        (       4.732 eV)
    80      80       --         0.179 au  fA            1.00     80 A               1
                        (       4.877 eV)
    81      81       --         0.183 au  fA            1.00     81 A               1
                        (       4.979 eV)
    82      82       --         0.187 au  fA            1.00     82 A               1
                        (       5.076 eV)
    83      83       --         0.198 au  fA            1.00     83 A               1
                        (       5.388 eV)
    84      84       --         0.214 au  fA            1.00     84 A               1
                        (       5.829 eV)
    85      85       --         0.217 au  fA            1.00     85 A               1
                        (       5.901 eV)
    86      86       --         0.223 au  fA            1.00     86 A               1
                        (       6.055 eV)
    87      87       --         0.237 au  fA            1.00     87 A               1
                        (       6.450 eV)
    88      88       --         0.247 au  fA            1.00     88 A               1
                        (       6.727 eV)
    89      89       --         0.251 au  fA            1.00     89 A               1
                        (       6.837 eV)
    90      90       --         0.263 au  fA            1.00     90 A               1
                        (       7.170 eV)
    91      91       --         0.271 au  fA            1.00     91 A               1
                        (       7.374 eV)
    92      92       --         0.279 au  fA            1.00     92 A               1
                        (       7.598 eV)
    93      93       --         0.287 au  fA            1.00     93 A               1
                        (       7.800 eV)
    94      94       --         0.291 au  fA            1.00     94 A               1
                        (       7.908 eV)
    95      95       --         0.309 au  fA            1.00     95 A               1
                        (       8.397 eV)
    96      96       --         0.313 au  fA            1.00     96 A               1
                        (       8.522 eV)
    97      97       --         0.317 au  fA            1.00     97 A               1
                        (       8.630 eV)
    98      98       --         0.327 au  fA            1.00     98 A               1
                        (       8.895 eV)
    99      99       --         0.331 au  fA            1.00     99 A               1
                        (       8.995 eV)
   100     100       --         0.342 au  fA            1.00    100 A               1
                        (       9.294 eV)
   101     101       --         0.346 au  fA            1.00    101 A               1
                        (       9.420 eV)
   102     102       --         0.355 au  fA            1.00    102 A               1
                        (       9.646 eV)
   103     103       --         0.358 au  fA            1.00    103 A               1
                        (       9.729 eV)
   104     104       --         0.362 au  fA            1.00    104 A               1
                        (       9.862 eV)
   105     105       --         0.373 au  fA            1.00    105 A               1
                        (      10.158 eV)
   106     106       --         0.378 au  fA            1.00    106 A               1
                        (      10.284 eV)
   107     107       --         0.387 au  fA            1.00    107 A               1
                        (      10.526 eV)
   108     108       --         0.400 au  fA            1.00    108 A               1
                        (      10.873 eV)
   109     109       --         0.415 au  fA            1.00    109 A               1
                        (      11.279 eV)
   110     110       --         0.418 au  fA            1.00    110 A               1
                        (      11.376 eV)
   111     111       --         0.433 au  fA            1.00    111 A               1
                        (      11.776 eV)
   112     112       --         0.442 au  fA            1.00    112 A               1
                        (      12.035 eV)
   113     113       --         0.448 au  fA            1.00    113 A               1
                        (      12.183 eV)
   114     114       --         0.466 au  fA            1.00    114 A               1
                        (      12.678 eV)
   115     115       --         0.480 au  fA            1.00    115 A               1
                        (      13.058 eV)
   116     116       --         0.488 au  fA            1.00    116 A               1
                        (      13.287 eV)
   117     117       --         0.498 au  fA            1.00    117 A               1
                        (      13.541 eV)
   118     118       --         0.510 au  fA            1.00    118 A               1
                        (      13.876 eV)
   119     119       --         0.519 au  fA            1.00    119 A               1
                        (      14.136 eV)
   120     120       --         0.536 au  fA            1.00    120 A               1
                        (      14.578 eV)
   121     121       --         0.542 au  fA            1.00    121 A               1
                        (      14.760 eV)
   122     122       --         0.563 au  fA            1.00    122 A               1
                        (      15.332 eV)
   123     123       --         0.571 au  fA            1.00    123 A               1
                        (      15.525 eV)
   124     124       --         0.580 au  fA            1.00    124 A               1
                        (      15.795 eV)
   125     125       --         0.608 au  fA            1.00    125 A               1
                        (      16.534 eV)
   126     126       --         0.617 au  fA            1.00    126 A               1
                        (      16.787 eV)
   127     127       --         0.635 au  fA            1.00    127 A               1
                        (      17.275 eV)
   128     128       --         0.647 au  fA            1.00    128 A               1
                        (      17.597 eV)
   129     129       --         0.661 au  fA            1.00    129 A               1
                        (      17.989 eV)
   130     130       --         0.679 au  fA            1.00    130 A               1
                        (      18.471 eV)
   131     131       --         0.696 au  fA            1.00    131 A               1
                        (      18.934 eV)
   132     132       --         0.717 au  fA            1.00    132 A               1
                        (      19.517 eV)
   133     133       --         0.737 au  fA            1.00    133 A               1
                        (      20.047 eV)
   134     134       --         0.761 au  fA            1.00    134 A               1
                        (      20.717 eV)
   135     135       --         0.773 au  fA            1.00    135 A               1
                        (      21.044 eV)
   136     136       --         0.805 au  fA            1.00    136 A               1
                        (      21.904 eV)
   137     137       --         0.809 au  fA            1.00    137 A               1
                        (      22.011 eV)
   138     138       --         0.824 au  fA            1.00    138 A               1
                        (      22.424 eV)
   139     139       --         0.825 au  fA            1.00    139 A               1
                        (      22.449 eV)
   140     140       --         0.840 au  fA            1.00    140 A               1
                        (      22.869 eV)
   141     141       --         0.845 au  fA            1.00    141 A               1
                        (      22.993 eV)
   142     142       --         0.871 au  fA            1.00    142 A               1
                        (      23.713 eV)
   143     143       --         0.883 au  fA            1.00    143 A               1
                        (      24.017 eV)
   144     144       --         0.904 au  fA            1.00    144 A               1
                        (      24.596 eV)
   145     145       --         0.912 au  fA            1.00    145 A               1
                        (      24.806 eV)
   146     146       --         0.919 au  fA            1.00    146 A               1
                        (      25.012 eV)
   147     147       --         0.930 au  fA            1.00    147 A               1
                        (      25.299 eV)
   148     148       --         0.954 au  fA            1.00    148 A               1
                        (      25.965 eV)
   149     149       --         0.961 au  fA            1.00    149 A               1
                        (      26.159 eV)
   150     150       --         0.964 au  fA            1.00    150 A               1
                        (      26.220 eV)
   151     151       --         0.969 au  fA            1.00    151 A               1
                        (      26.357 eV)
   152     152       --         0.983 au  fA            1.00    152 A               1
                        (      26.752 eV)
   153     153       --         0.999 au  fA            1.00    153 A               1
                        (      27.178 eV)
   154     154       --         1.014 au  fA            1.00    154 A               1
                        (      27.594 eV)
   155     155       --         1.017 au  fA            1.00    155 A               1
                        (      27.676 eV)
   156     156       --         1.029 au  fA            1.00    156 A               1
                        (      28.012 eV)
   157     157       --         1.039 au  fA            1.00    157 A               1
                        (      28.281 eV)
   158     158       --         1.050 au  fA            1.00    158 A               1
                        (      28.578 eV)
   159     159       --         1.067 au  fA            1.00    159 A               1
                        (      29.022 eV)
   160     160       --         1.072 au  fA            1.00    160 A               1
                        (      29.160 eV)
   161     161       --         1.085 au  fA            1.00    161 A               1
                        (      29.532 eV)
   162     162       --         1.092 au  fA            1.00    162 A               1
                        (      29.709 eV)
   163     163       --         1.104 au  fA            1.00    163 A               1
                        (      30.054 eV)
   164     164       --         1.109 au  fA            1.00    164 A               1
                        (      30.189 eV)
   165     165       --         1.135 au  fA            1.00    165 A               1
                        (      30.884 eV)
   166     166       --         1.148 au  fA            1.00    166 A               1
                        (      31.247 eV)
   167     167       --         1.150 au  fA            1.00    167 A               1
                        (      31.285 eV)
   168     168       --         1.165 au  fA            1.00    168 A               1
                        (      31.711 eV)
   169     169       --         1.185 au  fA            1.00    169 A               1
                        (      32.235 eV)
   170     170       --         1.202 au  fA            1.00    170 A               1
                        (      32.701 eV)
   171     171       --         1.210 au  fA            1.00    171 A               1
                        (      32.917 eV)
   172     172       --         1.236 au  fA            1.00    172 A               1
                        (      33.640 eV)
   173     173       --         1.252 au  fA            1.00    173 A               1
                        (      34.070 eV)
   174     174       --         1.260 au  fA            1.00    174 A               1
                        (      34.297 eV)
   175     175       --         1.268 au  fA            1.00    175 A               1
                        (      34.502 eV)
   176     176       --         1.283 au  fA            1.00    176 A               1
                        (      34.915 eV)
   177     177       --         1.294 au  fA            1.00    177 A               1
                        (      35.223 eV)
   178     178       --         1.309 au  fA            1.00    178 A               1
                        (      35.625 eV)
   179     179       --         1.332 au  fA            1.00    179 A               1
                        (      36.243 eV)
   180     180       --         1.349 au  fA            1.00    180 A               1
                        (      36.703 eV)
   181     181       --         1.374 au  fA            1.00    181 A               1
                        (      37.402 eV)
   182     182       --         1.377 au  fA            1.00    182 A               1
                        (      37.470 eV)
   183     183       --         1.384 au  fA            1.00    183 A               1
                        (      37.661 eV)
   184     184       --         1.397 au  fA            1.00    184 A               1
                        (      38.012 eV)
   185     185       --         1.407 au  fA            1.00    185 A               1
                        (      38.281 eV)
   186     186       --         1.418 au  fA            1.00    186 A               1
                        (      38.586 eV)
   187     187       --         1.430 au  fA            1.00    187 A               1
                        (      38.910 eV)
   188     188       --         1.443 au  fA            1.00    188 A               1
                        (      39.253 eV)
   189     189       --         1.454 au  fA            1.00    189 A               1
                        (      39.567 eV)
   190     190       --         1.478 au  fA            1.00    190 A               1
                        (      40.217 eV)
   191     191       --         1.492 au  fA            1.00    191 A               1
                        (      40.599 eV)
   192     192       --         1.518 au  fA            1.00    192 A               1
                        (      41.293 eV)
   193     193       --         1.526 au  fA            1.00    193 A               1
                        (      41.521 eV)
   194     194       --         1.553 au  fA            1.00    194 A               1
                        (      42.263 eV)
   195     195       --         1.565 au  fA            1.00    195 A               1
                        (      42.592 eV)
   196     196       --         1.575 au  fA            1.00    196 A               1
                        (      42.860 eV)
   197     197       --         1.588 au  fA            1.00    197 A               1
                        (      43.210 eV)
   198     198       --         1.605 au  fA            1.00    198 A               1
                        (      43.685 eV)
   199     199       --         1.632 au  fA            1.00    199 A               1
                        (      44.406 eV)
   200     200       --         1.634 au  fA            1.00    200 A               1
                        (      44.468 eV)
   201     201       --         1.643 au  fA            1.00    201 A               1
                        (      44.704 eV)
   202     202       --         1.656 au  fA            1.00    202 A               1
                        (      45.064 eV)
   203     203       --         1.671 au  fA            1.00    203 A               1
                        (      45.475 eV)
   204     204       --         1.691 au  fA            1.00    204 A               1
                        (      46.021 eV)
   205     205       --         1.708 au  fA            1.00    205 A               1
                        (      46.465 eV)
   206     206       --         1.718 au  fA            1.00    206 A               1
                        (      46.737 eV)
   207     207       --         1.731 au  fA            1.00    207 A               1
                        (      47.107 eV)
   208     208       --         1.749 au  fA            1.00    208 A               1
                        (      47.584 eV)
   209     209       --         1.753 au  fA            1.00    209 A               1
                        (      47.699 eV)
   210     210       --         1.763 au  fA            1.00    210 A               1
                        (      47.963 eV)
   211     211       --         1.782 au  fA            1.00    211 A               1
                        (      48.485 eV)
   212     212       --         1.820 au  fA            1.00    212 A               1
                        (      49.520 eV)
   213     213       --         1.848 au  fA            1.00    213 A               1
                        (      50.280 eV)
   214     214       --         1.867 au  fA            1.00    214 A               1
                        (      50.807 eV)
   215     215       --         1.873 au  fA            1.00    215 A               1
                        (      50.976 eV)
   216     216       --         1.889 au  fA            1.00    216 A               1
                        (      51.402 eV)
   217     217       --         1.894 au  fA            1.00    217 A               1
                        (      51.534 eV)
   218     218       --         1.905 au  fA            1.00    218 A               1
                        (      51.843 eV)
   219     219       --         1.944 au  fA            1.00    219 A               1
                        (      52.889 eV)
   220     220       --         1.953 au  fA            1.00    220 A               1
                        (      53.144 eV)
   221     221       --         1.984 au  fA            1.00    221 A               1
                        (      53.996 eV)
   222     222       --         1.995 au  fA            1.00    222 A               1
                        (      54.288 eV)
   223     223       --         2.009 au  fA            1.00    223 A               1
                        (      54.662 eV)
   224     224       --         2.019 au  fA            1.00    224 A               1
                        (      54.938 eV)
   225     225       --         2.029 au  fA            1.00    225 A               1
                        (      55.224 eV)
   226     226       --         2.043 au  fA            1.00    226 A               1
                        (      55.585 eV)
   227     227       --         2.055 au  fA            1.00    227 A               1
                        (      55.910 eV)
   228     228       --         2.063 au  fA            1.00    228 A               1
                        (      56.140 eV)
   229     229       --         2.079 au  fA            1.00    229 A               1
                        (      56.572 eV)
   230     230       --         2.091 au  fA            1.00    230 A               1
                        (      56.909 eV)
   231     231       --         2.130 au  fA            1.00    231 A               1
                        (      57.973 eV)
   232     232       --         2.145 au  fA            1.00    232 A               1
                        (      58.378 eV)
   233     233       --         2.158 au  fA            1.00    233 A               1
                        (      58.710 eV)
   234     234       --         2.188 au  fA            1.00    234 A               1
                        (      59.529 eV)
   235     235       --         2.209 au  fA            1.00    235 A               1
                        (      60.113 eV)
   236     236       --         2.227 au  fA            1.00    236 A               1
                        (      60.594 eV)
   237     237       --         2.261 au  fA            1.00    237 A               1
                        (      61.530 eV)
   238     238       --         2.272 au  fA            1.00    238 A               1
                        (      61.838 eV)
   239     239       --         2.281 au  fA            1.00    239 A               1
                        (      62.078 eV)
   240     240       --         2.307 au  fA            1.00    240 A               1
                        (      62.771 eV)
   241     241       --         2.313 au  fA            1.00    241 A               1
                        (      62.943 eV)
   242     242       --         2.335 au  fA            1.00    242 A               1
                        (      63.552 eV)
   243     243       --         2.385 au  fA            1.00    243 A               1
                        (      64.895 eV)
   244     244       --         2.393 au  fA            1.00    244 A               1
                        (      65.111 eV)
   245     245       --         2.407 au  fA            1.00    245 A               1
                        (      65.502 eV)
   246     246       --         2.439 au  fA            1.00    246 A               1
                        (      66.368 eV)
   247     247       --         2.466 au  fA            1.00    247 A               1
                        (      67.100 eV)
   248     248       --         2.482 au  fA            1.00    248 A               1
                        (      67.530 eV)
   249     249       --         2.501 au  fA            1.00    249 A               1
                        (      68.043 eV)
   250     250       --         2.518 au  fA            1.00    250 A               1
                        (      68.518 eV)
   251     251       --         2.530 au  fA            1.00    251 A               1
                        (      68.836 eV)
   252     252       --         2.598 au  fA            1.00    252 A               1
                        (      70.705 eV)
   253     253       --         2.618 au  fA            1.00    253 A               1
                        (      71.246 eV)
   254     254       --         2.626 au  fA            1.00    254 A               1
                        (      71.451 eV)
   255     255       --         2.690 au  fA            1.00    255 A               1
                        (      73.186 eV)
   256     256       --         2.700 au  fA            1.00    256 A               1
                        (      73.471 eV)
   257     257       --         2.708 au  fA            1.00    257 A               1
                        (      73.701 eV)
   258     258       --         2.730 au  fA            1.00    258 A               1
                        (      74.283 eV)
   259     259       --         2.738 au  fA            1.00    259 A               1
                        (      74.498 eV)
   260     260       --         2.768 au  fA            1.00    260 A               1
                        (      75.308 eV)
   261     261       --         2.781 au  fA            1.00    261 A               1
                        (      75.662 eV)
   262     262       --         2.789 au  fA            1.00    262 A               1
                        (      75.900 eV)
   263     263       --         2.795 au  fA            1.00    263 A               1
                        (      76.050 eV)
   264     264       --         2.805 au  fA            1.00    264 A               1
                        (      76.335 eV)
   265     265       --         2.812 au  fA            1.00    265 A               1
                        (      76.509 eV)
   266     266       --         2.821 au  fA            1.00    266 A               1
                        (      76.763 eV)
   267     267       --         2.835 au  fA            1.00    267 A               1
                        (      77.140 eV)
   268     268       --         2.839 au  fA            1.00    268 A               1
                        (      77.260 eV)
   269     269       --         2.847 au  fA            1.00    269 A               1
                        (      77.483 eV)
   270     270       --         2.857 au  fA            1.00    270 A               1
                        (      77.737 eV)
   271     271       --         2.863 au  fA            1.00    271 A               1
                        (      77.904 eV)
   272     272       --         2.880 au  fA            1.00    272 A               1
                        (      78.360 eV)
   273     273       --         2.905 au  fA            1.00    273 A               1
                        (      79.058 eV)
   274     274       --         2.913 au  fA            1.00    274 A               1
                        (      79.258 eV)
   275     275       --         2.925 au  fA            1.00    275 A               1
                        (      79.603 eV)
   276     276       --         2.937 au  fA            1.00    276 A               1
                        (      79.921 eV)
   277     277       --         2.966 au  fA            1.00    277 A               1
                        (      80.695 eV)
   278     278       --         2.974 au  fA            1.00    278 A               1
                        (      80.930 eV)
   279     279       --         3.013 au  fA            1.00    279 A               1
                        (      81.988 eV)
   280     280       --         3.024 au  fA            1.00    280 A               1
                        (      82.297 eV)
   281     281       --         3.039 au  fA            1.00    281 A               1
                        (      82.683 eV)
   282     282       --         3.066 au  fA            1.00    282 A               1
                        (      83.419 eV)
   283     283       --         3.086 au  fA            1.00    283 A               1
                        (      83.971 eV)
   284     284       --         3.107 au  fA            1.00    284 A               1
                        (      84.554 eV)
   285     285       --         3.132 au  fA            1.00    285 A               1
                        (      85.230 eV)
   286     286       --         3.161 au  fA            1.00    286 A               1
                        (      86.027 eV)
   287     287       --         3.178 au  fA            1.00    287 A               1
                        (      86.485 eV)
   288     288       --         3.218 au  fA            1.00    288 A               1
                        (      87.554 eV)
   289     289       --         3.247 au  fA            1.00    289 A               1
                        (      88.355 eV)
   290     290       --         3.261 au  fA            1.00    290 A               1
                        (      88.726 eV)
   291     291       --         3.278 au  fA            1.00    291 A               1
                        (      89.208 eV)
   292     292       --         3.282 au  fA            1.00    292 A               1
                        (      89.313 eV)
   293     293       --         3.309 au  fA            1.00    293 A               1
                        (      90.054 eV)
   294     294       --         3.343 au  fA            1.00    294 A               1
                        (      90.979 eV)
   295     295       --         3.347 au  fA            1.00    295 A               1
                        (      91.068 eV)
   296     296       --         3.370 au  fA            1.00    296 A               1
                        (      91.690 eV)
   297     297       --         3.380 au  fA            1.00    297 A               1
                        (      91.964 eV)
   298     298       --         3.382 au  fA            1.00    298 A               1
                        (      92.042 eV)
   299     299       --         3.392 au  fA            1.00    299 A               1
                        (      92.299 eV)
   300     300       --         3.412 au  fA            1.00    300 A               1
                        (      92.834 eV)
   301     301       --         3.417 au  fA            1.00    301 A               1
                        (      92.984 eV)
   302     302       --         3.443 au  fA            1.00    302 A               1
                        (      93.686 eV)
   303     303       --         3.453 au  fA            1.00    303 A               1
                        (      93.966 eV)
   304     304       --         3.455 au  fA            1.00    304 A               1
                        (      94.021 eV)
   305     305       --         3.465 au  fA            1.00    305 A               1
                        (      94.277 eV)
   306     306       --         3.479 au  fA            1.00    306 A               1
                        (      94.656 eV)
   307     307       --         3.490 au  fA            1.00    307 A               1
                        (      94.981 eV)
   308     308       --         3.512 au  fA            1.00    308 A               1
                        (      95.563 eV)
   309     309       --         3.521 au  fA            1.00    309 A               1
                        (      95.814 eV)
   310     310       --         3.565 au  fA            1.00    310 A               1
                        (      97.021 eV)
   311     311       --         3.598 au  fA            1.00    311 A               1
                        (      97.920 eV)
   312     312       --         3.604 au  fA            1.00    312 A               1
                        (      98.065 eV)
   313     313       --         3.620 au  fA            1.00    313 A               1
                        (      98.503 eV)
   314     314       --         3.627 au  fA            1.00    314 A               1
                        (      98.704 eV)
   315     315       --         3.639 au  fA            1.00    315 A               1
                        (      99.016 eV)
   316     316       --         3.665 au  fA            1.00    316 A               1
                        (      99.717 eV)
   317     317       --         3.692 au  fA            1.00    317 A               1
                        (     100.454 eV)
   318     318       --         3.694 au  fA            1.00    318 A               1
                        (     100.519 eV)
   319     319       --         3.715 au  fA            1.00    319 A               1
                        (     101.103 eV)
   320     320       --         3.741 au  fA            1.00    320 A               1
                        (     101.785 eV)
   321     321       --         3.760 au  fA            1.00    321 A               1
                        (     102.325 eV)
   322     322       --         3.772 au  fA            1.00    322 A               1
                        (     102.642 eV)
   323     323       --         3.796 au  fA            1.00    323 A               1
                        (     103.285 eV)
   324     324       --         3.802 au  fA            1.00    324 A               1
                        (     103.462 eV)
   325     325       --         3.813 au  fA            1.00    325 A               1
                        (     103.763 eV)
   326     326       --         3.818 au  fA            1.00    326 A               1
                        (     103.888 eV)
   327     327       --         3.832 au  fA            1.00    327 A               1
                        (     104.273 eV)
   328     328       --         3.836 au  fA            1.00    328 A               1
                        (     104.381 eV)
   329     329       --         3.857 au  fA            1.00    329 A               1
                        (     104.965 eV)
   330     330       --         3.871 au  fA            1.00    330 A               1
                        (     105.336 eV)
   331     331       --         3.894 au  fA            1.00    331 A               1
                        (     105.974 eV)
   332     332       --         3.921 au  fA            1.00    332 A               1
                        (     106.701 eV)
   333     333       --         3.948 au  fA            1.00    333 A               1
                        (     107.436 eV)
   334     334       --         3.960 au  fA            1.00    334 A               1
                        (     107.749 eV)
   335     335       --         3.998 au  fA            1.00    335 A               1
                        (     108.802 eV)
   336     336       --         4.034 au  fA            1.00    336 A               1
                        (     109.772 eV)
   337     337       --         4.048 au  fA            1.00    337 A               1
                        (     110.151 eV)
   338     338       --         4.057 au  fA            1.00    338 A               1
                        (     110.408 eV)
   339     339       --         4.085 au  fA            1.00    339 A               1
                        (     111.149 eV)
   340     340       --         4.112 au  fA            1.00    340 A               1
                        (     111.889 eV)
   341     341       --         4.132 au  fA            1.00    341 A               1
                        (     112.430 eV)
   342     342       --         4.139 au  fA            1.00    342 A               1
                        (     112.632 eV)
   343     343       --         4.180 au  fA            1.00    343 A               1
                        (     113.740 eV)
   344     344       --         4.225 au  fA            1.00    344 A               1
                        (     114.973 eV)
   345     345       --         4.246 au  fA            1.00    345 A               1
                        (     115.542 eV)
   346     346       --         4.259 au  fA            1.00    346 A               1
                        (     115.885 eV)
   347     347       --         4.296 au  fA            1.00    347 A               1
                        (     116.903 eV)
   348     348       --         4.313 au  fA            1.00    348 A               1
                        (     117.352 eV)
   349     349       --         4.327 au  fA            1.00    349 A               1
                        (     117.748 eV)
   350     350       --         4.350 au  fA            1.00    350 A               1
                        (     118.357 eV)
   351     351       --         4.380 au  fA            1.00    351 A               1
                        (     119.191 eV)
   352     352       --         4.382 au  fA            1.00    352 A               1
                        (     119.229 eV)
   353     353       --         4.407 au  fA            1.00    353 A               1
                        (     119.915 eV)
   354     354       --         4.418 au  fA            1.00    354 A               1
                        (     120.227 eV)
   355     355       --         4.422 au  fA            1.00    355 A               1
                        (     120.324 eV)
   356     356       --         4.464 au  fA            1.00    356 A               1
                        (     121.461 eV)
   357     357       --         4.486 au  fA            1.00    357 A               1
                        (     122.075 eV)
   358     358       --         4.502 au  fA            1.00    358 A               1
                        (     122.508 eV)
   359     359       --         4.521 au  fA            1.00    359 A               1
                        (     123.031 eV)
   360     360       --         4.532 au  fA            1.00    360 A               1
                        (     123.330 eV)
   361     361       --         4.552 au  fA            1.00    361 A               1
                        (     123.879 eV)
   362     362       --         4.562 au  fA            1.00    362 A               1
                        (     124.145 eV)
   363     363       --         4.583 au  fA            1.00    363 A               1
                        (     124.723 eV)
   364     364       --         4.609 au  fA            1.00    364 A               1
                        (     125.419 eV)
   365     365       --         4.621 au  fA            1.00    365 A               1
                        (     125.732 eV)
   366     366       --         4.651 au  fA            1.00    366 A               1
                        (     126.562 eV)
   367     367       --         4.680 au  fA            1.00    367 A               1
                        (     127.349 eV)
   368     368       --         4.685 au  fA            1.00    368 A               1
                        (     127.480 eV)
   369     369       --         4.704 au  fA            1.00    369 A               1
                        (     127.992 eV)
   370     370       --         4.741 au  fA            1.00    370 A               1
                        (     129.019 eV)
[...]
     450       62.8600         0.000       
     449       62.5892         0.000       
     448       62.1189         0.000       
     447       62.1059         0.000       
     446       61.9773         0.000       
     445       61.8074         0.000       
     444       61.5041         0.000       
     443       60.9782         0.000       
     442       60.2400         0.000       
     441       60.1618         0.000       
     440       59.8581         0.000       
     439       59.7921         0.000       
     438       59.4046         0.000       
     437       59.1891         0.000       
     436       58.8938         0.000       
     435       58.5664         0.000       
     434       58.2522         0.000       
     433       57.9681         0.000       
     432       57.8433         0.000       
     431       57.5181         0.000       
     430       57.3529         0.000       
     429       57.2502         0.000       
     428       56.9749         0.000       
     427       56.8462         0.000       
     426       56.4683         0.000       
     425       56.4161         0.000       
     424       56.1044         0.000       
     423       55.8716         0.000       
     422       55.6178         0.000       
     421       55.4769         0.000       
     420       55.1986         0.000       
     419       55.1106         0.000       
     418       54.6609         0.000       
     417       54.5041         0.000       
     416       54.1902         0.000       
     415       54.0081         0.000       
     414       53.4224         0.000       
     413       53.1927         0.000       
     412       53.0866         0.000       
     411       52.8308         0.000       
     410       52.4523         0.000       
     409       52.3382         0.000       
     408       52.1796         0.000       
     407       51.7860         0.000       
     406       51.5645         0.000       
     405       51.4546         0.000       
     404       51.2735         0.000       
     403       51.0171         0.000       
     402       50.6565         0.000       
     401       50.3705         0.000       
     400       50.3413         0.000       
     399       50.1917         0.000       
     398       49.5897         0.000       
     397       49.4707         0.000       
     396       49.3350         0.000       
     395       48.9227         0.000       
     394       48.6961         0.000       
     393       48.5478         0.000       
     392       48.3644         0.000       
     391       48.3419         0.000       
     390       48.0313         0.000       
     389       47.7442         0.000       
     388       47.6323         0.000       
     387       47.4906         0.000       
     386       47.0938         0.000       
     385       46.8430         0.000       
     384       46.6143         0.000       
     383       46.2779         0.000       
     382       46.1389         0.000       
     381       46.0088         0.000       
     380       45.6085         0.000       
     379       45.4073         0.000       
     378       45.0945         0.000       
     377       45.0069         0.000       
     376       44.9356         0.000       
     375       44.5613         0.000       
     374       44.4092         0.000       
     373       44.3551         0.000       
     372       43.8479         0.000       
     371       43.4846         0.000       
     370       43.3186         0.000       
     369       43.0550         0.000       
     368       42.7615         0.000       
     367       42.4092         0.000       
     366       42.2666         0.000       
     365       42.0703         0.000       
     364       41.6277         0.000       
     363       41.5718         0.000       
     362       41.2207         0.000       
     361       41.1422         0.000       
     360       40.8808         0.000       
     359       40.5996         0.000       
     358       40.2339         0.000       
     357       40.1115         0.000       
     356       40.0600         0.000       
     355       39.9146         0.000       
     354       39.6374         0.000       
     353       39.4735         0.000       
     352       39.3652         0.000       
     351       39.1064         0.000       
     350       38.9164         0.000       
     349       38.8038         0.000       
     348       38.5108         0.000       
     347       38.2125         0.000       
     346       37.9624         0.000       
     345       37.8961         0.000       
     344       37.6994         0.000       
     343       37.5577         0.000       
     342       37.4827         0.000       
     341       37.1948         0.000       
     340       36.8965         0.000       
     339       36.4695         0.000       
     338       36.3794         0.000       
     337       36.1979         0.000       
     336       35.9767         0.000       
     335       35.9551         0.000       
     334       35.7562         0.000       
     333       35.4358         0.000       
     332       35.3024         0.000       
     331       34.8277         0.000       
     330       34.7099         0.000       
     329       34.5669         0.000       
     328       34.3808         0.000       
     327       34.2055         0.000       
     326       33.7750         0.000       
     325       33.6714         0.000       
     324       33.5194         0.000       
     323       33.1641         0.000       
     322       33.0349         0.000       
     321       32.8931         0.000       
     320       32.7256         0.000       
     319       32.4578         0.000       
     318       32.1826         0.000       
     317       32.0693         0.000       
     316       31.8749         0.000       
     315       31.7045         0.000       
     314       31.5349         0.000       
     313       31.2003         0.000       
     312       31.0568         0.000       
     311       30.9794         0.000       
     310       30.7969         0.000       
     309       30.6922         0.000       
     308       30.4514         0.000       
     307       30.3380         0.000       
     306       29.9756         0.000       
     305       29.7292         0.000       
     304       29.6929         0.000       
     303       29.5144         0.000       
     302       29.2977         0.000       
     301       29.1496         0.000       
     300       28.9454         0.000       
     299       28.7550         0.000       
     298       28.6386         0.000       
     297       28.4507         0.000       
     296       28.3433         0.000       
     295       28.1713         0.000       
     294       27.8671         0.000       
     293       27.8189         0.000       
     292       27.5848         0.000       
     291       27.3619         0.000       
     290       27.2042         0.000       
     289       27.0391         0.000       
     288       26.7815         0.000       
     287       26.7571         0.000       
     286       26.5297         0.000       
     285       26.4453         0.000       
     284       26.2167         0.000       
     283       26.1791         0.000       
     282       25.9654         0.000       
     281       25.9003         0.000       
     280       25.7627         0.000       
     279       25.4868         0.000       
     278       25.4108         0.000       
     277       25.2291         0.000       
     276       24.9128         0.000       
     275       24.8703         0.000       
     274       24.6962         0.000       
     273       24.3625         0.000       
     272       24.1455         0.000       
     271       24.0762         0.000       
     270       23.9128         0.000       
     269       23.8104         0.000       
     268       23.3603         0.000       
     267       22.9662         0.000       
     266       22.8547         0.000       
     265       22.7754         0.000       
     264       22.7377         0.000       
     263       22.5561         0.000       
     262       22.4724         0.000       
     261       21.9591         0.000       
     260       21.8167         0.000       
     259       21.6952         0.000       
     258       21.4707         0.000       
     257       21.3786         0.000       
     256       21.0329         0.000       
     255       20.8842         0.000       
     254       20.6607         0.000       
     253       20.4991         0.000       
     252       20.1459         0.000       
     251       19.7904         0.000       
     250       19.5942         0.000       
     249       19.3487         0.000       
     248       19.3404         0.000       
     247       18.9583         0.000       
     246       18.6316         0.000       
     245       18.4820         0.000       
     244       18.3859         0.000       
     243       18.0306         0.000       
     242       17.7824         0.000       
     241       17.5870         0.000       
     240       17.4401         0.000       
     239       17.3221         0.000       
     238       17.1077         0.000       
     237       16.9372         0.000       
     236       16.5099         0.000       
     235       16.3438         0.000       
     234       16.0937         0.000       
     233       15.8946         0.000       
     232       15.6297         0.000       
     231       15.3959         0.000       
     230       15.2797         0.000       
     229       14.9485         0.000       
     228       14.8787         0.000       
     227       14.6817         0.000       
     226       14.3592         0.000       
     225       14.3108         0.000       
     224       14.1326         0.000       
     223       13.9019         0.000       
     222       13.8102         0.000       
     221       13.6977         0.000       
     220       13.3953         0.000       
     219       13.3053         0.000       
     218       13.1545         0.000       
     217       12.9824         0.000       
     216       12.7930         0.000       
     215       12.7491         0.000       
     214       12.5469         0.000       
     213       12.2657         0.000       
     212       12.0833         0.000       
     211       11.9179         0.000       
     210       11.7114         0.000       
     209       11.4343         0.000       
     208       11.3315         0.000       
     207       11.2167         0.000       
     206       10.9955         0.000       
     205       10.7632         0.000       
     204       10.7083         0.000       
     203       10.6549         0.000       
     202       10.5922         0.000       
     201       10.4433         0.000       
     200       10.3751         0.000       
     199       10.1701         0.000       
     198       10.1299         0.000       
     197       10.1013         0.000       
     196        9.9544         0.000       
     195        9.8999         0.000       
     194        9.7284         0.000       
     193        9.6216         0.000       
     192        9.5954         0.000       
     191        9.2280         0.000       
     190        8.9503         0.000       
     189        8.8691         0.000       
     188        8.8025         0.000       
     187        8.7579         0.000       
     186        8.5735         0.000       
     185        8.4904         0.000       
     184        8.4303         0.000       
     183        8.3845         0.000       
     182        8.2025         0.000       
     181        8.1250         0.000       
     180        8.1044         0.000       
     179        7.7960         0.000       
     178        7.7285         0.000       
     177        7.4644         0.000       
     176        7.3141         0.000       
     175        7.2254         0.000       
     174        7.1374         0.000       
     173        7.0155         0.000       
     172        6.9544         0.000       
     171        6.7221         0.000       
     170        6.6892         0.000       
     169        6.5736         0.000       
     168        6.4333         0.000       
     167        6.2109         0.000       
     166        6.1264         0.000       
     165        5.9314         0.000       
     164        5.8352         0.000       
     163        5.7845         0.000       
     162        5.7339         0.000       
     161        5.5920         0.000       
     160        5.3155         0.000       
     159        5.1876         0.000       
     158        5.0517         0.000       
     157        4.9345         0.000       
     156        4.8598         0.000       
     155        4.7880         0.000       
     154        4.7004         0.000       
     153        4.5073         0.000       
     152        4.4072         0.000       
     151        4.2819         0.000       
     150        4.2173         0.000       
     149        4.1126         0.000       
     148        4.0551         0.000       
     147        3.8614         0.000       
     146        3.7689         0.000       
     145        3.5776         0.000       
     144        3.4661         0.000       
     143        3.2919         0.000       
     142        3.1764         0.000       
     141        3.0591         0.000       
     140        3.0523         0.000       
     139        2.5750         0.000       
     138        2.4710         0.000       
     137        2.3260         0.000       
     136        1.9711         0.000       
     135        1.9143         0.000       
     134        1.8133         0.000       
     133        1.7458         0.000       
     132        1.5942         0.000       
     131        1.5300         0.000       
     130        1.4152         0.000       
     129        1.2642         0.000       
     128        1.2106         0.000       
     127        1.1062         0.000       
     126        1.0095         0.000       
     125        0.8058         0.000       
     124        0.7822         0.000       
     123        0.6856         0.000       
     122        0.4818         0.000       
     121        0.3981         0.000       
     120        0.2667         0.000       
     119        0.1273         0.000       
     118        0.0264         0.000       
     117       -0.2674         0.000       
     116       -0.5372         0.000       
     115       -0.6331         0.000       
     114       -0.9846         0.000       
     113       -0.9951         0.000       
     112       -1.2127         0.000       
     111       -2.4740         0.000       
     110       -3.3662         0.000 < LUMO
     109       -5.8878         2.000 < HOMO
     108       -5.9406         2.000       
     107       -6.2649         2.000       
     106       -6.3856         2.000       
     105       -6.4338         2.000       
     104       -6.5281         2.000       
     103       -6.5606         2.000       
     102       -6.9071         2.000       
     101       -7.2609         2.000       
     100       -7.3289         2.000       
      99       -7.5059         2.000       
      98       -7.7267         2.000       
      97       -8.1675         2.000       
      96       -8.5281         2.000       
      95       -8.6498         2.000       
      94       -8.6545         2.000       
      93       -8.8740         2.000       
      92       -9.0456         2.000       
      91       -9.2037         2.000       
      90       -9.3973         2.000       
      89       -9.6503         2.000       
      88       -9.6954         2.000       
      87       -9.8146         2.000       
      86       -9.9016         2.000       
      85      -10.0956         2.000       
      84      -10.1787         2.000       
      83      -10.3457         2.000       
      82      -10.3884         2.000       
      81      -10.4740         2.000       
      80      -10.5106         2.000       
      79      -10.6279         2.000       
      78      -11.0611         2.000       
      77      -11.1751         2.000       
      76      -11.4160         2.000       
      75      -11.5487         2.000       
      74      -11.5992         2.000       
      73      -11.6230         2.000       
      72      -11.7989         2.000       
      71      -12.0648         2.000       
      70      -12.3736         2.000       
      69      -12.5272         2.000       
      68      -12.7022         2.000       
      67      -13.3882         2.000       
      66      -13.5879         2.000       
      65      -13.8119         2.000       
      64      -14.0938         2.000       
      63      -14.2120         2.000       
      62      -14.7017         2.000       
      61      -14.8155         2.000       
      60      -15.0828         2.000       
      59      -15.5116         2.000       
      58      -16.8317         2.000       
      57      -17.3838         2.000       
      56      -18.0541         2.000       
      55      -18.2986         2.000       
      54      -18.4356         2.000       
      53      -18.9460         2.000       
      52      -19.4269         2.000       
      51      -20.0622         2.000       
      50      -20.5062         2.000       
      49      -21.3129         2.000       
      48      -22.4883         2.000       
      47      -23.2984         2.000       
      46      -24.9953         2.000       
      45      -25.2696         2.000       
      44      -25.7148         2.000       
      43      -26.2708         2.000       
      42      -27.0335         2.000       
      41      -27.7082         2.000       
      40      -28.1431         2.000       
      39      -65.7928         2.000       
      38      -65.8053         2.000       
      37      -66.0605         2.000       
      36      -66.0822         2.000       
      35      -66.1649         2.000       
      34     -172.3708         2.000       
      33     -172.3962         2.000       
      32     -172.7450         2.000       
      31     -236.2760         2.000       
      30     -270.4875         2.000       
      29     -270.5275         2.000       
      28     -270.8680         2.000       
      27     -271.0352         2.000       
      26     -271.0848         2.000       
      25     -271.1782         2.000       
      24     -271.4382         2.000       
      23     -271.5115         2.000       
      22     -271.9765         2.000       
      21     -272.0930         2.000       
      20     -272.1383         2.000       
      19     -272.2230         2.000       
      18     -272.8046         2.000       
      17     -272.9706         2.000       
      16     -273.3643         2.000       
      15     -273.8210         2.000       
      14     -381.5165         2.000       
      13     -382.5444         2.000       
      12     -383.7703         2.000       
      11     -510.8529         2.000       
      10     -510.9631         2.000       
       9     -511.4253         2.000       
       8     -512.0504         2.000       
       7     -512.7992         2.000       
       6     -512.9988         2.000       
       5    -1526.4843         2.000       
       4    -1526.4914         2.000       
       3    -1526.6111         2.000       
       2    -1729.6190         2.000       
       1   -13296.1057         2.000       

AMS application finished. Exiting.
NORMAL TERMINATION
     Total cpu time:     805.61
  Total system time:       2.98
 Total elapsed time:     812.90
NORMAL TERMINATION
