
 *******************************************************************************
 *                                                                             *
 *  --------------------------------                                           *
 *   Amsterdam Modeling Suite (AMS)              2026.103                      *
 *  --------------------------------                                           *
 *                                               r260501 2026-05-01 873454b5   *
 *                                                                             *
 *                                                                             *
 *                              =================                              *
 *                              |               |                              *
 *                              |     A M S     |                              *
 *                              |               |                              *
 *                              =================                              *
 *                                                                             *
 *                                                                             *
 *   Online information and documentation:  https://www.scm.com/support/       *
 *   E-mail:  support@scm.com   info@scm.com                                   *
 *                                                                             *
 *   Scientific publications using AMS results must be properly referenced     *
 *   See the User Manuals (or the web site) for recommended citations          *
 *   The terms and conditions of the End User License Agreement apply to       *
 *   the use of AMS, https://www.scm.com/license-terms/                        *
 *                                                                             *
 **********************  x86_64_linux_intel / intelmpi  ************************
 
 Licensed to: Jong-June Jeon / University of Seoul 2026-05-13 16:10:32
 SCM User ID: u30731
  
 AMS 2026.103  RunTime: May30-2026 23:57:34  ShM Nodes: 1  Procs: 1

 AMS jobname: c4_fragA_opt
 AMS jobid  : 514657829

 Start   directory: /gpfs/home1/yeseo1ee/projects/eda-asm-prediction/adf_outputs/batch_001/dipolar_002141/
 Results directory: /gpfs/home1/yeseo1ee/projects/eda-asm-prediction/adf_outputs/batch_001/dipolar_002141/c4_fragA_opt.results/
 Scratch directory: /tmp/amstmp_c4_fragA_opt_kid0.514657829/

 RNG seed: 1587721204 -667072557 1995810874 -450504680 1842204994 -174092397 -1626181673 226034185



                      ************************************************************************
                      *  ADF 2026.103  RunTime: May30-2026 23:57:34  ShM Nodes: 1  Procs: 1  *
                      ************************************************************************
  

       ***************************
       *  GEOMETRY OPTIMIZATION  *
       ***************************

Optimization Method                    Quasi Newton
Optimization Coordinates               Delocalized Coordinates
Optimize lattice                       F
 
 ------------------------------------------------------
 Convergence criteria (Hartree,Angstrom)
 ------------------------------------------------------
 Maximum gradient               0.000100000000
 Maximum rms gradient           0.000066666667
 Maximum step allowed           0.010000000000
 Maximum rms step allowed       0.006666666667
 Maximum energy change allowe   0.000250000000
 Maximum stress energy allowe   0.000500000000
 
Initial model Hessian                  Automatic Hessian
 
------------------------------------
Quasi-Newton Optimizer Parameters
------------------------------------
Hessian Update Method                  BFGS
Maximum number of steps                  200
First GDIIS cycle                          0
Maximum GDIIS vectors                      0
Trust radius (bohr)                        0.200000
Trust radius varies                        T
Constraints converged at all steps         T
Use projector                              T
 
 Rigid motions settings for: old optimizer
 Atomic rotations (x,y,z):     T T T
 Atomic translations (x,y,z):  T T T
 Tolerance:                  1.000000000000000E-006

--------
Geometry
--------
Formula: C8H11N3O3
Atoms
  Index Symbol   x (angstrom)   y (angstrom)   z (angstrom)
      1      C     3.92443000    -1.44227000     2.53957000
      2      N     3.17948000    -0.56357000     1.66104000
      3      C     2.68594000    -0.99650000     0.49543000
      4      O     2.86944000    -2.14557000     0.06091000
      5      C     1.82279000    -0.04980000    -0.28848000
      6      C     1.95630000     1.40335000    -0.09962000
      7      O     2.29282000     1.92566000     0.95521000
      8      O     1.68760000     2.09120000    -1.19963000
      9      C     1.60834000     3.52047000    -1.09742000
     10      N     1.37121000    -0.63736000    -1.42397000
     11      C     0.26209000    -0.41986000    -2.16758000
     12      C    -0.10945000    -1.49547000    -3.15569000
     13      C    -0.17021000     0.88813000    -2.56397000
     14      N    -0.63354000     1.85300000    -3.01935000
     15      H     4.82727000    -1.83022000     2.04265000
     16      H     3.31274000    -2.30431000     2.85226000
     17      H     4.22455000    -0.87823000     3.43083000
     18      H     2.94789000     0.38924000     1.93913000
     19      H     0.88120000     3.80103000    -0.32354000
     20      H     1.27278000     3.86883000    -2.08034000
     21      H     2.59504000     3.93995000    -0.85618000
     22      H     1.66048000    -1.62738000    -1.40591000
     23      H     0.42224000    -1.34658000    -4.10988000
     24      H     0.14738000    -2.48631000    -2.75656000
     25      H    -1.18757000    -1.45779000    -3.36479000

Total System Charge              0.00000


----------------
ADF Engine Input
----------------
 
   Basis
     Type TZ2P
     Core None
   End
   XC
     GGA BLYP
     Dispersion GRIMME3 BJDAMP
   End
   Symmetry NOSYM
   NumericalQuality Normal
   Unrestricted No
   SCF
     Iterations 200
     Converge 1.0e-6
   End
   Save TAPE21
 

 Title: *** (NO TITLE) ***

Challenging geometry: could not add a dihedral for atom   14
 Using automatic Hessian for delocalized coordinates.
 *** GO1_GOStep1 ***

 Energy gradients wrt nuclear displacements
 ==========================================

     Atom      Cartesian (a.u./angstrom)
                 X         Y         Z
 ----------------------------------------
     1 C    -0.010817  0.011107 -0.012255
     2 N    -0.003735 -0.013658 -0.018797
     3 C     0.021555 -0.008233  0.018558
     4 O    -0.001230  0.028253  0.011075
     5 C    -0.066356 -0.025077 -0.003777
     6 C     0.011092  0.043250 -0.017405
     7 O    -0.009013 -0.015947 -0.032990
     8 O     0.007846 -0.003427  0.045589
     9 C    -0.000740 -0.025346  0.000087
    10 N     0.076301 -0.002238 -0.038252
    11 C    -0.033024 -0.027477  0.064720
    12 C     0.003921  0.008428  0.003906
    13 C     0.000588  0.033774 -0.025841
    14 N     0.011846 -0.018211  0.007440
    15 H     0.004626 -0.001112 -0.001605
    16 H    -0.003166 -0.002917  0.002080
    17 H     0.001231  0.001276  0.003306
    18 H    -0.001389 -0.003199  0.002181
    19 H    -0.004110 -0.000220  0.002260
    20 H    -0.000512  0.003613 -0.004464
    21 H     0.004893  0.001288 -0.001054
    22 H    -0.011345  0.011440 -0.005545
    23 H     0.003540  0.003164 -0.000482
    24 H     0.002629 -0.000574  0.002407
    25 H    -0.004629  0.002043 -0.001142
 ----------------------------------------
 
----------------------------------------------------------------------
Geometry Convergence after Step   1       (Hartree/Angstrom,Angstrom)
----------------------------------------------------------------------
current energy                               -5.51100106 Hartree
energy change                      -5.51100106     0.00025000    F
constrained gradient max            0.07626245     0.00010000    F
constrained gradient rms            0.02019262     0.00006667    F
gradient max                        0.07625753
gradient rms                        0.02019262
cart. step max                      0.18705496     0.01000000    F
cart. step rms                      0.06445446     0.00666667    F
 

--------
Geometry
--------
Formula: C8H11N3O3
Atoms
  Index Symbol   x (angstrom)   y (angstrom)   z (angstrom)
      1      C     3.92423740    -1.49684606     2.50841745
      2      N     3.19132651    -0.57474987     1.65463876
      3      C     2.63535580    -0.97479559     0.49154269
      4      O     2.74728288    -2.13652814     0.03384201
      5      C     1.79702485     0.02150785    -0.25749616
      6      C     1.96499568     1.46862657    -0.06038122
      7      O     2.33412007     1.98341695     1.00387939
      8      O     1.69456007     2.17579004    -1.17176489
      9      C     1.65446592     3.61524101    -1.06578650
     10      N     1.30231321    -0.57536201    -1.38333469
     11      C     0.22742173    -0.43105418    -2.20221421
     12      C    -0.04913429    -1.57369229    -3.15482366
     13      C    -0.28116224     0.82483327    -2.64967440
     14      N    -0.82059496     1.74473562    -3.13450292
     15      H     4.78804502    -1.92436706     1.98043498
     16      H     3.28443008    -2.32936073     2.83705133
     17      H     4.27972206    -0.95211885     3.38934236
     18      H     3.01749170     0.38837727     1.94250581
     19      H     0.94913640     3.91560905    -0.28188228
     20      H     1.31213414     3.96852297    -2.04203263
     21      H     2.65246779     4.00938689    -0.83831544
     22      H     1.61771694    -1.56264357    -1.33257879
     23      H     0.50609806    -1.44847967    -4.09763999
     24      H     0.23868565    -2.53150129    -2.70207923
     25      H    -1.11690047    -1.60490817    -3.40302776

Total System Charge              0.00000

 *** GO1_GOStep2 ***

 Energy gradients wrt nuclear displacements
 ==========================================

     Atom      Cartesian (a.u./angstrom)
                 X         Y         Z
 ----------------------------------------
     1 C    -0.006845  0.006901 -0.006619
     2 N     0.001363 -0.003529 -0.001315
     3 C     0.010921  0.001389  0.003170
     4 O     0.000268  0.002912 -0.002047
     5 C    -0.043019 -0.017511  0.015116
     6 C     0.005855  0.017042 -0.023991
     7 O     0.000950  0.001473  0.003391
     8 O     0.010386  0.005831  0.024170
     9 C    -0.001169 -0.014428 -0.002602
    10 N     0.066755 -0.001112 -0.023493
    11 C    -0.045984 -0.023588  0.039692
    12 C     0.003764  0.007437 -0.000776
    13 C     0.009410  0.001203 -0.015675
    14 N    -0.005604  0.005484 -0.006632
    15 H     0.002491 -0.000983 -0.000552
    16 H    -0.001285 -0.001959  0.001639
    17 H     0.000970  0.000247  0.002019
    18 H    -0.000376 -0.001721  0.002378
    19 H    -0.002361  0.000167  0.000624
    20 H    -0.000526  0.002433 -0.001884
    21 H     0.002226  0.000916 -0.000887
    22 H    -0.009295  0.010053 -0.004709
    23 H     0.001550  0.000775 -0.001176
    24 H     0.001330 -0.000445  0.001184
    25 H    -0.001775  0.001011 -0.001024
 ----------------------------------------

 dE(predicted):    -0.89306E-02, dE(actual):    -0.72885E-02, Trust radius:    0.400000, all in a.u.
 
----------------------------------------------------------------------
Geometry Convergence after Step   2       (Hartree/Angstrom,Angstrom)
----------------------------------------------------------------------
current energy                               -5.51828952 Hartree
energy change                      -0.00728846     0.00025000    F
constrained gradient max            0.06673100     0.00010000    F
constrained gradient rms            0.01394387     0.00006667    F
gradient max                        0.06672823
gradient rms                        0.01394388
cart. step max                      0.13891109     0.01000000    F
cart. step rms                      0.04949402     0.00666667    F
 

--------
Geometry
--------
Formula: C8H11N3O3
Atoms
  Index Symbol   x (angstrom)   y (angstrom)   z (angstrom)
      1      C     3.94368694    -1.50659686     2.54159320
      2      N     3.22027670    -0.58929785     1.66462141
      3      C     2.61451772    -1.00925717     0.52625453
      4      O     2.66533745    -2.19513914     0.10785402
      5      C     1.82180366     0.00934118    -0.24058946
      6      C     1.98285658     1.45202778    -0.07453580
      7      O     2.37500915     1.99908318     0.96864638
      8      O     1.63195209     2.13069184    -1.20276594
      9      C     1.57778510     3.57981583    -1.10790417
     10      N     1.28340532    -0.57734732    -1.35449476
     11      C     0.28370887    -0.39607873    -2.24420718
     12      C    -0.02562993    -1.53440041    -3.20122442
     13      C    -0.21347974     0.88343450    -2.60048355
     14      N    -0.73952760     1.84491391    -3.00902090
     15      H     4.76920811    -1.99208244     2.00731936
     16      H     3.28148122    -2.29407711     2.92436203
     17      H     4.34757659    -0.93701948     3.38293098
     18      H     3.10077725     0.39525786     1.90715416
     19      H     0.91875328     3.88068880    -0.28729476
     20      H     1.17322305     3.91065937    -2.06545384
     21      H     2.57936638     3.98945758    -0.94183683
     22      H     1.59177942    -1.57602971    -1.29277372
     23      H     0.53799231    -1.43615357    -4.14049267
     24      H     0.21956340    -2.50221344    -2.74696415
     25      H    -1.09018333    -1.53003859    -3.45657389

Total System Charge              0.00000

 *** GO1_GOStep3 ***

 Energy gradients wrt nuclear displacements
 ==========================================

     Atom      Cartesian (a.u./angstrom)
                 X         Y         Z
 ----------------------------------------
     1 C    -0.002062  0.001690 -0.000994
     2 N     0.003808  0.000656  0.004530
     3 C     0.003648  0.003902 -0.001668
     4 O     0.003193 -0.010946 -0.003136
     5 C    -0.026978 -0.012607  0.021990
     6 C     0.008923  0.003849 -0.021391
     7 O     0.000842  0.005109  0.014143
     8 O    -0.004425  0.000992 -0.002914
     9 C    -0.000587 -0.005243 -0.000523
    10 N     0.037653  0.022154 -0.017085
    11 C    -0.039851 -0.016544  0.019663
    12 C     0.001622 -0.000133 -0.005367
    13 C     0.013671  0.002773 -0.003303
    14 N     0.000487  0.002219 -0.001605
    15 H     0.000241 -0.000201  0.000615
    16 H     0.000408 -0.000561  0.000778
    17 H     0.000420 -0.000389  0.000421
    18 H    -0.000063 -0.000339  0.000674
    19 H    -0.000291  0.000849 -0.000209
    20 H     0.000367  0.001179  0.000033
    21 H    -0.000237  0.001229 -0.000436
    22 H    -0.001261  0.002252 -0.002330
    23 H    -0.000076 -0.000968 -0.000903
    24 H    -0.000257 -0.000847 -0.000396
    25 H     0.000807 -0.000077 -0.000584
 ----------------------------------------

 dE(predicted):    -0.75615E-02, dE(actual):    -0.65203E-02, Trust radius:    0.800000, all in a.u.
 
----------------------------------------------------------------------
Geometry Convergence after Step   3       (Hartree/Angstrom,Angstrom)
----------------------------------------------------------------------
current energy                               -5.52480981 Hartree
energy change                      -0.00652030     0.00025000    F
constrained gradient max            0.03986636     0.00010000    F
constrained gradient rms            0.00975489     0.00006667    F
gradient max                        0.03987008
gradient rms                        0.00975489
cart. step max                      0.21487834     0.01000000    F
cart. step rms                      0.04723150     0.00666667    F
 

--------
Geometry
--------
Formula: C8H11N3O3
Atoms
  Index Symbol   x (angstrom)   y (angstrom)   z (angstrom)
      1      C     3.92372931    -1.47767433     2.54291581
      2      N     3.19741476    -0.57394324     1.65181877
      3      C     2.58396648    -1.01095332     0.52548201
      4      O     2.61268377    -2.20304136     0.13308196
      5      C     1.82555352     0.00850495    -0.26700146
      6      C     1.96598169     1.44448469    -0.07692257
      7      O     2.39446720     1.97504201     0.95422575
      8      O     1.65069913     2.13886203    -1.20956555
      9      C     1.64476504     3.59061456    -1.09516562
     10      N     1.27349887    -0.58570727    -1.36925192
     11      C     0.30408711    -0.40408640    -2.28034903
     12      C     0.01328701    -1.54224018    -3.24261532
     13      C    -0.31773264     0.84193318    -2.53362069
     14      N    -0.95440594     1.76901444    -2.84532238
     15      H     4.74007684    -1.97905290     2.01039625
     16      H     3.25883221    -2.25099922     2.94690997
     17      H     4.33802182    -0.89108983     3.36668110
     18      H     3.09123462     0.41834366     1.86888218
     19      H     0.98946848     3.90121106    -0.27586039
     20      H     1.25972203     3.94377305    -2.05211243
     21      H     2.65810152     3.96130071    -0.91363022
     22      H     1.59875653    -1.58282676    -1.30601932
     23      H     0.54121181    -1.40597556    -4.19698860
     24      H     0.31609690    -2.50312254    -2.80985502
     25      H    -1.05827807    -1.58273143    -3.46199326

Total System Charge              0.00000

 *** GO1_GOStep4 ***

 Energy gradients wrt nuclear displacements
 ==========================================

     Atom      Cartesian (a.u./angstrom)
                 X         Y         Z
 ----------------------------------------
     1 C    -0.000045 -0.000066  0.001030
     2 N     0.001103  0.003666  0.000951
     3 C     0.001521 -0.002933 -0.003646
     4 O     0.002031 -0.003199  0.001157
     5 C    -0.011205 -0.009161  0.016237
     6 C    -0.004876  0.007185 -0.000119
     7 O     0.003530 -0.003491  0.000435
     8 O     0.003322 -0.001006 -0.003348
     9 C     0.000291 -0.001489 -0.000003
    10 N     0.020890  0.023235 -0.015115
    11 C    -0.025380 -0.011666  0.011118
    12 C     0.001755 -0.002657 -0.004303
    13 C     0.002872  0.009864 -0.004431
    14 N     0.003780 -0.006739  0.000934
    15 H    -0.000396  0.000234  0.000587
    16 H     0.000557  0.000281  0.000075
    17 H     0.000169 -0.000245 -0.000103
    18 H    -0.000433 -0.000264  0.000116
    19 H     0.000186  0.000224 -0.000054
    20 H     0.000174 -0.000207  0.000286
    21 H    -0.000659  0.000529 -0.000017
    22 H     0.000716 -0.000801 -0.001014
    23 H    -0.000208 -0.000671 -0.000381
    24 H    -0.000798 -0.000670 -0.000377
    25 H     0.001100  0.000047 -0.000015
 ----------------------------------------

 dE(predicted):    -0.69585E-02, dE(actual):    -0.37440E-02, Trust radius:    0.800000, all in a.u.
 Residual max backtransformation error   0.1952E-04
 
----------------------------------------------------------------------
Geometry Convergence after Step   4       (Hartree/Angstrom,Angstrom)
----------------------------------------------------------------------
current energy                               -5.52855380 Hartree
energy change                      -0.00374398     0.00025000    F
constrained gradient max            0.02541851     0.00010000    F
constrained gradient rms            0.00630949     0.00006667    F
gradient max                        0.02542037
gradient rms                        0.00630949
cart. step max                      0.19218434     0.01000000    F
cart. step rms                      0.07512135     0.00666667    F
 

--------
Geometry
--------
Formula: C8H11N3O3
Atoms
  Index Symbol   x (angstrom)   y (angstrom)   z (angstrom)
      1      C     3.84518828    -1.53066200     2.54814451
      2      N     3.21889920    -0.58151394     1.62739618
      3      C     2.58093385    -0.98702804     0.50702467
      4      O     2.47101895    -2.18288880     0.15968078
      5      C     1.96293252     0.05524853    -0.35846581
      6      C     2.15816603     1.48093926    -0.19615150
      7      O     2.55037134     2.02741459     0.83515308
      8      O     1.68496603     2.19197367    -1.26522531
      9      C     1.57331277     3.63521089    -1.07122743
     10      N     1.31543422    -0.58541520    -1.37587281
     11      C     0.42978599    -0.36881180    -2.34221288
     12      C     0.07241678    -1.55090196    -3.21625011
     13      C    -0.30893843     0.82012278    -2.52813634
     14      N    -1.05151972     1.69316116    -2.76679916
     15      H     4.61137380    -2.12197837     2.03382355
     16      H     3.10098951    -2.22203809     2.96080277
     17      H     4.30694025    -0.96454499     3.36044090
     18      H     3.21927795     0.42403460     1.80911848
     19      H     0.97436922     3.84689078    -0.18097218
     20      H     1.07352707     3.99598102    -1.97017410
     21      H     2.56845473     4.07486988    -0.95881621
     22      H     1.55726349    -1.60068227    -1.22959231
     23      H     0.54510893    -1.46813240    -4.20417891
     24      H     0.40242115    -2.48481087    -2.74727707
     25      H    -1.01145391    -1.59679842    -3.36611279

Total System Charge              0.00000

 *** GO1_GOStep5 ***

 Energy gradients wrt nuclear displacements
 ==========================================

     Atom      Cartesian (a.u./angstrom)
                 X         Y         Z
 ----------------------------------------
     1 C     0.000661 -0.001990  0.001480
     2 N    -0.001612 -0.000189 -0.000271
     3 C    -0.003845 -0.014466 -0.004801
     4 O    -0.003070  0.020735 -0.004098
     5 C    -0.008211  0.001689  0.008699
     6 C     0.046702 -0.002430 -0.003414
     7 O    -0.022481 -0.000271 -0.009884
     8 O    -0.005432  0.000562  0.006649
     9 C    -0.002410  0.003948  0.001640
    10 N    -0.000846 -0.003325 -0.004495
    11 C     0.006941  0.001903  0.001788
    12 C     0.003995 -0.001402  0.001951
    13 C    -0.000754 -0.009525  0.004088
    14 N    -0.005170  0.003206 -0.002570
    15 H    -0.000505  0.000407 -0.000053
    16 H     0.000242  0.000591 -0.000475
    17 H    -0.000245  0.000410 -0.000667
    18 H    -0.000091  0.000886  0.000131
    19 H     0.000195  0.000200 -0.000568
    20 H    -0.000200 -0.000678  0.000798
    21 H     0.000125 -0.001432  0.000363
    22 H    -0.004062 -0.000950  0.000153
    23 H     0.000179  0.000530  0.000646
    24 H    -0.000854  0.000596  0.001295
    25 H     0.000748  0.000995  0.001610
 ----------------------------------------

 dE(predicted):    -0.44443E-02, dE(actual):    -0.30681E-03, Trust radius:    0.200002, all in a.u.
 
----------------------------------------------------------------------
Geometry Convergence after Step   5       (Hartree/Angstrom,Angstrom)
----------------------------------------------------------------------
current energy                               -5.52886061 Hartree
energy change                      -0.00030681     0.00025000    F
constrained gradient max            0.04673391     0.00010000    F
constrained gradient rms            0.00734832     0.00006667    F
gradient max                        0.04673535
gradient rms                        0.00734832
cart. step max                      0.08696499     0.01000000    F
cart. step rms                      0.03956023     0.00666667    F
 

--------
Geometry
--------
Formula: C8H11N3O3
Atoms
  Index Symbol   x (angstrom)   y (angstrom)   z (angstrom)
      1      C     3.88544680    -1.49535221     2.56883370
      2      N     3.21699643    -0.57589002     1.64883323
      3      C     2.59118747    -1.01114101     0.53227310
      4      O     2.53510069    -2.22023821     0.19699991
      5      C     1.92613672     0.00993742    -0.33069119
      6      C     2.07120104     1.44079856    -0.15168322
      7      O     2.52304919     1.98653935     0.86297648
      8      O     1.64216382     2.14253539    -1.24549342
      9      C     1.57480699     3.59290870    -1.10106071
     10      N     1.29391348    -0.62087804    -1.36418555
     11      C     0.41763819    -0.36773232    -2.33666767
     12      C     0.04570957    -1.50783879    -3.25999172
     13      C    -0.28126595     0.84976160    -2.50204868
     14      N    -0.98791646     1.75640028    -2.72905739
     15      H     4.67420941    -2.05603706     2.05343269
     16      H     3.17248494    -2.21669331     2.98667358
     17      H     4.32661918    -0.90950522     3.37900824
     18      H     3.17713803     0.42896267     1.82847277
     19      H     0.96661692     3.85234762    -0.22953051
     20      H     1.10292605     3.94074630    -2.02055648
     21      H     2.58091486     4.00667458    -0.98507746
     22      H     1.54746372    -1.63556979    -1.24570664
     23      H     0.53554806    -1.39911352    -4.23734766
     24      H     0.34966841    -2.46647070    -2.82407103
     25      H    -1.03651756    -1.52551229    -3.43021434

Total System Charge              0.00000

 *** GO1_GOStep6 ***

 Energy gradients wrt nuclear displacements
 ==========================================

     Atom      Cartesian (a.u./angstrom)
                 X         Y         Z
 ----------------------------------------
     1 C     0.000623 -0.000901  0.000998
     2 N    -0.001036  0.000189 -0.000293
     3 C     0.000506  0.000373 -0.001092
     4 O     0.000563  0.001186  0.000727
     5 C    -0.003480 -0.001058  0.002985
     6 C     0.009946 -0.004720 -0.001320
     7 O    -0.002608  0.001877  0.001796
     8 O    -0.002748  0.000854 -0.002159
     9 C    -0.001333  0.002479  0.000131
    10 N    -0.000591  0.002902 -0.007102
    11 C     0.004843  0.001333  0.000466
    12 C     0.000935 -0.000552  0.000190
    13 C     0.003468 -0.010337  0.003615
    14 N    -0.005746  0.008329 -0.001904
    15 H    -0.000064  0.000224 -0.000214
    16 H    -0.000042  0.000405 -0.000092
    17 H    -0.000026  0.000184 -0.000230
    18 H    -0.000749 -0.000121  0.000477
    19 H     0.000111 -0.000193 -0.000085
    20 H     0.000073 -0.000188  0.000074
    21 H    -0.000106 -0.000231  0.000155
    22 H    -0.002148 -0.003123  0.001167
    23 H     0.000170  0.000157  0.000427
    24 H    -0.000507  0.000585  0.000927
    25 H    -0.000054  0.000348  0.000357
 ----------------------------------------

 dE(predicted):    -0.29839E-02, dE(actual):    -0.26096E-02, Trust radius:    0.400003, all in a.u.
 
----------------------------------------------------------------------
Geometry Convergence after Step   6       (Hartree/Angstrom,Angstrom)
----------------------------------------------------------------------
current energy                               -5.53147026 Hartree
energy change                      -0.00260965     0.00025000    F
constrained gradient max            0.01028258     0.00010000    F
constrained gradient rms            0.00265704     0.00006667    F
gradient max                        0.01028296
gradient rms                        0.00265704
cart. step max                      0.07042466     0.01000000    F
cart. step rms                      0.02684842     0.00666667    F
 

--------
Geometry
--------
Formula: C8H11N3O3
Atoms
  Index Symbol   x (angstrom)   y (angstrom)   z (angstrom)
      1      C     3.90572476    -1.49708319     2.55410554
      2      N     3.23179970    -0.57313277     1.64401656
      3      C     2.55986171    -1.00722802     0.55461536
      4      O     2.48538565    -2.21600614     0.22161601
      5      C     1.87789741     0.01313158    -0.29678282
      6      C     2.00077638     1.44632269    -0.11509330
      7      O     2.46274009     1.99341011     0.89284368
      8      O     1.60357781     2.13942506    -1.22190253
      9      C     1.59388826     3.59224809    -1.10848238
     10      N     1.25804314    -0.62730840    -1.32977988
     11      C     0.38645733    -0.38160152    -2.31188272
     12      C     0.06462019    -1.50632528    -3.27311354
     13      C    -0.29730970     0.84209007    -2.50062862
     14      N    -0.99848019     1.74204110    -2.74447486
     15      H     4.66495849    -2.08364525     2.02301817
     16      H     3.18929003    -2.19649796     3.00304462
     17      H     4.38558760    -0.91317170     3.34370638
     18      H     3.22683974     0.43506202     1.80863469
     19      H     0.99659394     3.89486111    -0.24302884
     20      H     1.13527452     3.93967643    -2.03515997
     21      H     2.61571161     3.96901837    -1.00199832
     22      H     1.55534353    -1.62992614    -1.23295768
     23      H     0.57653874    -1.36001231    -4.23448027
     24      H     0.38197448    -2.47004758    -2.85771216
     25      H    -1.01185523    -1.54566037    -3.47400312

Total System Charge              0.00000

 *** GO1_GOStep7 ***

 Energy gradients wrt nuclear displacements
 ==========================================

     Atom      Cartesian (a.u./angstrom)
                 X         Y         Z
 ----------------------------------------
     1 C    -0.000529 -0.000094  0.000370
     2 N    -0.000373 -0.000614 -0.000315
     3 C    -0.000098 -0.001795  0.000145
     4 O    -0.001673  0.002493 -0.001214
     5 C    -0.000289  0.001013 -0.000265
     6 C    -0.002478  0.000521  0.002015
     7 O    -0.001052  0.000507 -0.002162
     8 O     0.000844 -0.000705 -0.000150
     9 C     0.000896  0.000478 -0.000050
    10 N     0.002233 -0.003435  0.005170
    11 C    -0.002537  0.000083  0.000555
    12 C     0.000637  0.000213 -0.001095
    13 C    -0.004007  0.007356 -0.002703
    14 N     0.004988 -0.007358  0.002380
    15 H     0.000001  0.000141 -0.000133
    16 H    -0.000051 -0.000035  0.000189
    17 H     0.000103  0.000212 -0.000139
    18 H     0.001684  0.000569 -0.000976
    19 H    -0.000329 -0.000392  0.000122
    20 H    -0.000122 -0.000111 -0.000063
    21 H    -0.000118  0.000005 -0.000050
    22 H     0.002451  0.001063 -0.001890
    23 H     0.000125 -0.000289  0.000227
    24 H    -0.000201 -0.000032  0.000253
    25 H    -0.000107  0.000205 -0.000219
 ----------------------------------------

 dE(predicted):    -0.40720E-03, dE(actual):    -0.19231E-03, Trust radius:    0.400003, all in a.u.
 
----------------------------------------------------------------------
Geometry Convergence after Step   7       (Hartree/Angstrom,Angstrom)
----------------------------------------------------------------------
current energy                               -5.53166256 Hartree
energy change                      -0.00019231     0.00025000    T
constrained gradient max            0.00742535     0.00010000    F
constrained gradient rms            0.00187723     0.00006667    F
gradient max                        0.00742499
gradient rms                        0.00187723
cart. step max                      0.07477000     0.01000000    F
cart. step rms                      0.02314194     0.00666667    F
 

--------
Geometry
--------
Formula: C8H11N3O3
Atoms
  Index Symbol   x (angstrom)   y (angstrom)   z (angstrom)
      1      C     3.90702488    -1.49312968     2.54978254
      2      N     3.21632322    -0.57277069     1.64828202
      3      C     2.56832078    -1.00644403     0.54341965
      4      O     2.51902853    -2.21384903     0.19775275
      5      C     1.88719910     0.01523602    -0.30783942
      6      C     2.02139574     1.44669171    -0.12190913
      7      O     2.51171909     1.98320241     0.87908733
      8      O     1.59366561     2.15001301    -1.21142994
      9      C     1.58777293     3.60207419    -1.08600085
     10      N     1.25309118    -0.62363389    -1.33463781
     11      C     0.39064785    -0.38151069    -2.32600776
     12      C     0.04975148    -1.52367433    -3.26028950
     13      C    -0.27029397     0.84901947    -2.54743292
     14      N    -0.95217588     1.75768989    -2.81924486
     15      H     4.69483087    -2.04161710     2.01988453
     16      H     3.20796189    -2.22649950     2.97070333
     17      H     4.35284205    -0.91109253     3.36035976
     18      H     3.17157791     0.43038499     1.83586494
     19      H     1.01671376     3.89899704    -0.20122846
     20      H     1.10224496     3.95680741    -1.99592580
     21      H     2.61238704     3.97772571    -1.00681569
     22      H     1.52089563    -1.63199587    -1.21332128
     23      H     0.55820739    -1.40494787    -4.22733517
     24      H     0.35799527    -2.48218494    -2.82636979
     25      H    -1.02788731    -1.55485170    -3.45522846

Total System Charge              0.00000

 *** GO1_GOStep8 ***

 Energy gradients wrt nuclear displacements
 ==========================================

     Atom      Cartesian (a.u./angstrom)
                 X         Y         Z
 ----------------------------------------
     1 C     0.000469 -0.000062  0.000042
     2 N     0.000530  0.001301 -0.000124
     3 C    -0.002432 -0.000422 -0.000569
     4 O     0.000740  0.000122 -0.001234
     5 C     0.000972  0.000902  0.000757
     6 C    -0.001330  0.000259  0.002402
     7 O     0.000990 -0.000877 -0.001306
     8 O     0.000269  0.000121 -0.001704
     9 C     0.000516  0.000497  0.000181
    10 N     0.003080 -0.002613  0.000930
    11 C    -0.002384  0.000319 -0.000298
    12 C     0.000569  0.000252 -0.000835
    13 C    -0.001159  0.002044 -0.001435
    14 N     0.001731 -0.002556  0.001609
    15 H    -0.000080 -0.000009  0.000052
    16 H    -0.000050  0.000226  0.000019
    17 H    -0.000018  0.000103  0.000003
    18 H    -0.000810 -0.000122  0.000875
    19 H    -0.000276 -0.000077 -0.000129
    20 H    -0.000157 -0.000016  0.000150
    21 H    -0.000224 -0.000032 -0.000005
    22 H    -0.001186  0.001055  0.000529
    23 H     0.000157 -0.000436  0.000108
    24 H    -0.000165 -0.000154  0.000157
    25 H     0.000248  0.000178 -0.000176
 ----------------------------------------

 dE(predicted):    -0.22931E-03, dE(actual):    -0.11798E-03, Trust radius:    0.400003, all in a.u.
 
----------------------------------------------------------------------
Geometry Convergence after Step   8       (Hartree/Angstrom,Angstrom)
----------------------------------------------------------------------
current energy                               -5.53178055 Hartree
energy change                      -0.00011798     0.00025000    T
constrained gradient max            0.00305286     0.00010000    F
constrained gradient rms            0.00100874     0.00006667    F
gradient max                        0.00305441
gradient rms                        0.00100874
cart. step max                      0.04016137     0.01000000    F
cart. step rms                      0.01630668     0.00666667    F
 

--------
Geometry
--------
Formula: C8H11N3O3
Atoms
  Index Symbol   x (angstrom)   y (angstrom)   z (angstrom)
      1      C     3.89757434    -1.49131766     2.55732458
      2      N     3.23403615    -0.57117758     1.63544209
      3      C     2.58741407    -1.00822520     0.53155314
      4      O     2.51031315    -2.22135007     0.21152146
      5      C     1.90825010     0.01274692    -0.32393702
      6      C     2.04139617     1.44319581    -0.13038139
      7      O     2.52422350     1.97526682     0.87727459
      8      O     1.59246046     2.15270513    -1.20679026
      9      C     1.56930312     3.60327343    -1.06823334
     10      N     1.26647492    -0.62055891    -1.35009606
     11      C     0.40331187    -0.37694250    -2.33948227
     12      C     0.03853795    -1.52870401    -3.25241204
     13      C    -0.24956417     0.85598463    -2.57320328
     14      N    -0.91984658     1.77160220    -2.85940623
     15      H     4.68119223    -2.06117052     2.04402880
     16      H     3.18068987    -2.20617455     2.98012680
     17      H     4.34484776    -0.90643502     3.36503857
     18      H     3.20907385     0.43563238     1.80602266
     19      H     1.00682603     3.88549647    -0.17324624
     20      H     1.06763311     3.95950845    -1.96881000
     21      H     2.59013831     3.99121695    -0.99928969
     22      H     1.52947978    -1.63100384    -1.22911016
     23      H     0.52887104    -1.42314425    -4.23035694
     24      H     0.35144028    -2.48326152    -2.81329367
     25      H    -1.04283732    -1.55752356    -3.42616410

Total System Charge              0.00000

 *** GO1_GOStep9 ***

 Energy gradients wrt nuclear displacements
 ==========================================

     Atom      Cartesian (a.u./angstrom)
                 X         Y         Z
 ----------------------------------------
     1 C     0.000205 -0.000069  0.000452
     2 N    -0.001670  0.000838  0.000332
     3 C     0.004526  0.002199 -0.003627
     4 O    -0.000770 -0.001506  0.002554
     5 C    -0.002615 -0.000194  0.001863
     6 C     0.003544 -0.000738 -0.000065
     7 O    -0.000872 -0.001167  0.001077
     8 O    -0.001153  0.000349 -0.001211
     9 C     0.000025  0.000392  0.000177
    10 N    -0.000884 -0.000221 -0.002741
    11 C     0.000099  0.000748  0.000115
    12 C    -0.000152  0.000161  0.000428
    13 C     0.002045 -0.004673  0.000119
    14 N    -0.002541  0.004351 -0.000199
    15 H    -0.000213  0.000163 -0.000049
    16 H     0.000053  0.000119  0.000193
    17 H    -0.000002 -0.000004  0.000045
    18 H    -0.000142 -0.000330  0.000074
    19 H    -0.000188  0.000026 -0.000148
    20 H    -0.000123 -0.000013  0.000149
    21 H    -0.000188 -0.000027  0.000032
    22 H     0.000351 -0.000134  0.000202
    23 H     0.000425 -0.000213  0.000183
    24 H    -0.000029 -0.000160  0.000186
    25 H     0.000268  0.000102 -0.000138
 ----------------------------------------

 dE(predicted):    -0.89952E-04, dE(actual):     0.41717E-05, Trust radius:    0.022361, all in a.u.
 
----------------------------------------------------------------------
Geometry Convergence after Step   9       (Hartree/Angstrom,Angstrom)
----------------------------------------------------------------------
current energy                               -5.53177638 Hartree
energy change                       0.00000417     0.00025000    T
constrained gradient max            0.00462010     0.00010000    F
constrained gradient rms            0.00138112     0.00006667    F
gradient max                        0.00462145
gradient rms                        0.00138112
cart. step max                      0.01872033     0.01000000    F
cart. step rms                      0.00666786     0.00666667    F
 

--------
Geometry
--------
Formula: C8H11N3O3
Atoms
  Index Symbol   x (angstrom)   y (angstrom)   z (angstrom)
      1      C     3.90023954    -1.50376393     2.55270362
      2      N     3.23404492    -0.57614630     1.64044515
      3      C     2.58147324    -1.00483504     0.53692560
      4      O     2.50500318    -2.21483290     0.20617051
      5      C     1.90502192     0.02009739    -0.31630072
      6      C     2.03443215     1.45151734    -0.12555977
      7      O     2.51820605     1.98978166     0.87840618
      8      O     1.58754300     2.15532154    -1.20594321
      9      C     1.56551942     3.60661676    -1.07640082
     10      N     1.26588660    -0.61457896    -1.34268437
     11      C     0.40580749    -0.37443817    -2.33530027
     12      C     0.04409746    -1.52898824    -3.24613871
     13      C    -0.24719153     0.85699997    -2.57646387
     14      N    -0.91746341     1.76908503    -2.87024724
     15      H     4.68074769    -2.07136547     2.03210619
     16      H     3.18401080    -2.22039569     2.97360019
     17      H     4.35208355    -0.92515535     3.36239315
     18      H     3.21196405     0.42971398     1.81751093
     19      H     1.00284460     3.89489929    -0.18346210
     20      H     1.06504925     3.95763325    -1.97973918
     21      H     2.58673806     3.99397501    -1.00911968
     22      H     1.52887960    -1.62487435    -1.21916171
     23      H     0.53580636    -1.42483207    -4.22356002
     24      H     0.35750044    -2.48206380    -2.80433983
     25      H    -1.03700442    -1.55973097    -3.42172000

Total System Charge              0.00000

 *** GO1_GOStep10 ***

 Energy gradients wrt nuclear displacements
 ==========================================

     Atom      Cartesian (a.u./angstrom)
                 X         Y         Z
 ----------------------------------------
     1 C     0.000018 -0.000074  0.000090
     2 N    -0.000573 -0.000670  0.000673
     3 C     0.002625  0.000524 -0.001862
     4 O    -0.000750  0.000061  0.000843
     5 C    -0.001733 -0.000072  0.000995
     6 C     0.001261 -0.000668 -0.000653
     7 O    -0.000629  0.000910  0.000338
     8 O    -0.000334  0.000059 -0.000418
     9 C    -0.000038  0.000401  0.000135
    10 N     0.000742 -0.000796 -0.000924
    11 C     0.000061  0.000631  0.000082
    12 C    -0.000139  0.000154  0.000386
    13 C     0.000345 -0.002211 -0.000626
    14 N    -0.000744  0.001635  0.000536
    15 H    -0.000092  0.000029  0.000010
    16 H     0.000016  0.000051  0.000153
    17 H     0.000016  0.000069 -0.000005
    18 H    -0.000156 -0.000028  0.000089
    19 H    -0.000159 -0.000001 -0.000106
    20 H    -0.000087 -0.000006  0.000074
    21 H    -0.000144 -0.000014  0.000009
    22 H    -0.000070  0.000241  0.000037
    23 H     0.000424 -0.000195  0.000152
    24 H    -0.000070 -0.000110  0.000169
    25 H     0.000212  0.000080 -0.000179
 ----------------------------------------

 dE(predicted):    -0.62442E-04, dE(actual):    -0.61452E-04, Trust radius:    0.044723, all in a.u.
 
----------------------------------------------------------------------
Geometry Convergence after Step  10       (Hartree/Angstrom,Angstrom)
----------------------------------------------------------------------
current energy                               -5.53183783 Hartree
energy change                      -0.00006145     0.00025000    T
constrained gradient max            0.00261017     0.00010000    F
constrained gradient rms            0.00066777     0.00006667    F
gradient max                        0.00261017
gradient rms                        0.00066777
cart. step max                      0.03268749     0.01000000    F
cart. step rms                      0.00747361     0.00666667    F
 

--------
Geometry
--------
Formula: C8H11N3O3
Atoms
  Index Symbol   x (angstrom)   y (angstrom)   z (angstrom)
      1      C     3.90804476    -1.49847452     2.54789581
      2      N     3.23147224    -0.57435866     1.64001534
      3      C     2.56746457    -1.00689905     0.54494847
      4      O     2.49673523    -2.21650170     0.21082260
      5      C     1.89470794     0.01841577    -0.31067712
      6      C     2.02759142     1.44907609    -0.11793807
      7      O     2.51579967     1.98306873     0.88619075
      8      O     1.58083372     2.15500311    -1.19613930
      9      C     1.56768241     3.60615523    -1.06842531
     10      N     1.25606391    -0.61532956    -1.33771982
     11      C     0.40301986    -0.37581991    -2.33679074
     12      C     0.04388993    -1.53121800    -3.24809055
     13      C    -0.23988700     0.85815729    -2.59302798
     14      N    -0.90341658     1.76893141    -2.90293473
     15      H     4.68494087    -2.06576154     2.02147007
     16      H     3.19716651    -2.21562541     2.97692326
     17      H     4.36630788    -0.91723752     3.35210728
     18      H     3.21123811     0.43219641     1.81356675
     19      H     1.01145546     3.89896061    -0.17287641
     20      H     1.06490420     3.95890839    -1.96989347
     21      H     2.59152211     3.98773381    -1.00686784
     22      H     1.51640948    -1.62613103    -1.21166315
     23      H     0.53816728    -1.42735428    -4.22430389
     24      H     0.35586474    -2.48423865    -2.80531202
     25      H    -1.03673871    -1.56201705    -3.42715995

Total System Charge              0.00000

 *** GO1_GOStep11 ***

 Energy gradients wrt nuclear displacements
 ==========================================

     Atom      Cartesian (a.u./angstrom)
                 X         Y         Z
 ----------------------------------------
     1 C     0.000042  0.000141  0.000055
     2 N     0.000275  0.000600 -0.000254
     3 C    -0.001484 -0.000003  0.001047
     4 O     0.000890 -0.000210 -0.000511
     5 C    -0.000529 -0.000007  0.000075
     6 C     0.001127  0.000270 -0.000487
     7 O    -0.000361 -0.000346  0.000536
     8 O     0.000076 -0.000133 -0.000018
     9 C    -0.000007 -0.000003  0.000021
    10 N     0.000967 -0.000350 -0.000277
    11 C    -0.000485  0.000237  0.000338
    12 C    -0.000134  0.000191  0.000123
    13 C    -0.000902  0.000252 -0.001655
    14 N     0.000492 -0.000685  0.001115
    15 H    -0.000055  0.000024  0.000065
    16 H    -0.000069  0.000067  0.000086
    17 H     0.000056  0.000082 -0.000026
    18 H     0.000121 -0.000056 -0.000039
    19 H    -0.000157  0.000004 -0.000046
    20 H    -0.000118 -0.000006  0.000003
    21 H    -0.000100 -0.000030  0.000002
    22 H    -0.000047  0.000259  0.000005
    23 H     0.000360 -0.000245  0.000033
    24 H    -0.000114 -0.000098  0.000081
    25 H     0.000156  0.000046 -0.000272
 ----------------------------------------

 dE(predicted):    -0.43045E-04, dE(actual):    -0.38542E-04, Trust radius:    0.089446, all in a.u.
 
----------------------------------------------------------------------
Geometry Convergence after Step  11       (Hartree/Angstrom,Angstrom)
----------------------------------------------------------------------
current energy                               -5.53187637 Hartree
energy change                      -0.00003854     0.00025000    T
constrained gradient max            0.00162852     0.00010000    F
constrained gradient rms            0.00044598     0.00006667    F
gradient max                        0.00163019
gradient rms                        0.00044598
cart. step max                      0.06279029     0.01000000    F
cart. step rms                      0.01311048     0.00666667    F
 

--------
Geometry
--------
Formula: C8H11N3O3
Atoms
  Index Symbol   x (angstrom)   y (angstrom)   z (angstrom)
      1      C     3.91074849    -1.50351056     2.54166346
      2      N     3.23328129    -0.57572139     1.63834957
      3      C     2.56427818    -1.00437560     0.54492572
      4      O     2.48238945    -2.21359925     0.21186423
      5      C     1.89342614     0.02387348    -0.30870274
      6      C     2.02408476     1.45399446    -0.11246902
      7      O     2.53221755     1.98572211     0.88294653
      8      O     1.55972495     2.16166520    -1.18133560
      9      C     1.55903670     3.61288914    -1.05700291
     10      N     1.24929412    -0.61080423    -1.33152421
     11      C     0.40708472    -0.37558427    -2.34021525
     12      C     0.04350121    -1.53956473    -3.23925497
     13      C    -0.21915477     0.86085765    -2.62506137
     14      N    -0.86851322     1.77093463    -2.96572502
     15      H     4.68999344    -2.06576313     2.01322567
     16      H     3.20101901    -2.22502540     2.96507784
     17      H     4.36626587    -0.92604008     3.35013293
     18      H     3.21507128     0.43057831     1.81429539
     19      H     1.02665221     3.91180296    -0.14908240
     20      H     1.03777800     3.96668533    -1.94754888
     21      H     2.58668354     3.98762692    -1.02071078
     22      H     1.50409510    -1.62247669    -1.19762003
     23      H     0.52805598    -1.44079507    -4.22086732
     24      H     0.36289354    -2.48828491    -2.79279948
     25      H    -1.03866757    -1.57544488    -3.40844135

Total System Charge              0.00000

 *** GO1_GOStep12 ***

 Energy gradients wrt nuclear displacements
 ==========================================

     Atom      Cartesian (a.u./angstrom)
                 X         Y         Z
 ----------------------------------------
     1 C     0.000075  0.000202 -0.000182
     2 N     0.000307  0.000681  0.000013
     3 C    -0.000376 -0.000608  0.000061
     4 O    -0.000238  0.000331 -0.000757
     5 C     0.000421  0.000210 -0.000392
     6 C    -0.001392  0.000727  0.000428
     7 O     0.000594 -0.000413 -0.000220
     8 O     0.000877 -0.000164  0.000115
     9 C     0.000071 -0.000165 -0.000112
    10 N     0.000771 -0.000729  0.001011
    11 C    -0.000332  0.000066  0.000279
    12 C    -0.000104  0.000218  0.000208
    13 C    -0.000602  0.000170 -0.001500
    14 N     0.000417 -0.000750  0.000948
    15 H    -0.000088 -0.000010  0.000071
    16 H    -0.000065  0.000056  0.000073
    17 H    -0.000002  0.000087 -0.000001
    18 H    -0.000379 -0.000012  0.000341
    19 H    -0.000117  0.000013 -0.000024
    20 H    -0.000125 -0.000002  0.000044
    21 H    -0.000056 -0.000023  0.000014
    22 H    -0.000129  0.000452 -0.000117
    23 H     0.000343 -0.000281 -0.000079
    24 H    -0.000096 -0.000135  0.000011
    25 H     0.000224  0.000080 -0.000233
 ----------------------------------------

 dE(predicted):    -0.35469E-04, dE(actual):    -0.39127E-04, Trust radius:    0.178891, all in a.u.
 
----------------------------------------------------------------------
Geometry Convergence after Step  12       (Hartree/Angstrom,Angstrom)
----------------------------------------------------------------------
current energy                               -5.53191550 Hartree
energy change                      -0.00003913     0.00025000    T
constrained gradient max            0.00146936     0.00010000    F
constrained gradient rms            0.00043032     0.00006667    F
gradient max                        0.00147069
gradient rms                        0.00043032
cart. step max                      0.10735323     0.01000000    F
cart. step rms                      0.02307372     0.00666667    F
 

--------
Geometry
--------
Formula: C8H11N3O3
Atoms
  Index Symbol   x (angstrom)   y (angstrom)   z (angstrom)
      1      C     3.91387509    -1.51355559     2.53765533
      2      N     3.24377046    -0.57967870     1.63510045
      3      C     2.56139959    -1.00295685     0.54830045
      4      O     2.46170946    -2.21308732     0.22321966
      5      C     1.89959124     0.02959532    -0.30888665
      6      C     2.02516652     1.45928475    -0.10733431
      7      O     2.54820468     1.99147463     0.88041858
      8      O     1.52982002     2.16829033    -1.16049236
      9      C     1.53439134     3.61948715    -1.03963731
     10      N     1.24850929    -0.60217957    -1.32958187
     11      C     0.42215194    -0.36989695    -2.35122087
     12      C     0.03743108    -1.54774637    -3.22362673
     13      C    -0.17327262     0.87122077    -2.68078477
     14      N    -0.79311910     1.78234680    -3.07307825
     15      H     4.69094100    -2.07943076     2.00967407
     16      H     3.19905724    -2.23169884     2.95793424
     17      H     4.37144008    -0.94079339     3.34831732
     18      H     3.24339231     0.42805564     1.80448497
     19      H     1.03377092     3.92163656    -0.11493726
     20      H     0.98496519     3.97120987    -1.91402340
     21      H     2.56325574     3.99298774    -1.03873392
     22      H     1.48776390    -1.61688827    -1.18261179
     23      H     0.49151883    -1.45801077    -4.22046462
     24      H     0.37481510    -2.48910011    -2.77528446
     25      H    -1.04930928    -1.59092609    -3.36028649

Total System Charge              0.00000

 *** GO1_GOStep13 ***

 Energy gradients wrt nuclear displacements
 ==========================================

     Atom      Cartesian (a.u./angstrom)
                 X         Y         Z
 ----------------------------------------
     1 C    -0.000119  0.000144 -0.000213
     2 N     0.000726 -0.000904  0.000033
     3 C    -0.000324 -0.000296  0.000775
     4 O     0.000291  0.000326 -0.000028
     5 C     0.000666 -0.000186 -0.000815
     6 C    -0.001898  0.000138 -0.000625
     7 O     0.000261  0.000805 -0.000014
     8 O     0.000969  0.000069  0.000811
     9 C     0.000024 -0.000119 -0.000340
    10 N    -0.000382  0.000624 -0.000197
    11 C     0.000487  0.000142  0.000218
    12 C    -0.000262  0.000156  0.000903
    13 C     0.000408 -0.002665  0.000268
    14 N    -0.000967  0.001925 -0.000871
    15 H    -0.000110  0.000025  0.000086
    16 H    -0.000005 -0.000061  0.000156
    17 H     0.000003  0.000021  0.000019
    18 H    -0.000239  0.000167 -0.000047
    19 H     0.000002  0.000056 -0.000042
    20 H    -0.000104  0.000007  0.000095
    21 H    -0.000082  0.000004  0.000022
    22 H    -0.000029 -0.000204  0.000067
    23 H     0.000419 -0.000134 -0.000148
    24 H    -0.000020 -0.000129 -0.000010
    25 H     0.000286  0.000089 -0.000104
 ----------------------------------------

 dE(predicted):    -0.40090E-04, dE(actual):    -0.38690E-04, Trust radius:    0.357783, all in a.u.
 
----------------------------------------------------------------------
Geometry Convergence after Step  13       (Hartree/Angstrom,Angstrom)
----------------------------------------------------------------------
current energy                               -5.53195419 Hartree
energy change                      -0.00003869     0.00025000    T
constrained gradient max            0.00261707     0.00010000    F
constrained gradient rms            0.00057733     0.00006667    F
gradient max                        0.00261725
gradient rms                        0.00057733
cart. step max                      0.02740226     0.01000000    F
cart. step rms                      0.00848689     0.00666667    F
 

--------
Geometry
--------
Formula: C8H11N3O3
Atoms
  Index Symbol   x (angstrom)   y (angstrom)   z (angstrom)
      1      C     3.91011017    -1.51052361     2.54584602
      2      N     3.24300372    -0.57977662     1.63787144
      3      C     2.56539470    -1.00611236     0.54924567
      4      O     2.46323772    -2.21725178     0.22841850
      5      C     1.90533204     0.02514959    -0.31044481
      6      C     2.03222166     1.45488249    -0.11120944
      7      O     2.55905754     1.98869430     0.87352412
      8      O     1.52932254     2.16126638    -1.16273366
      9      C     1.53373234     3.61271333    -1.04641987
     10      N     1.25298294    -0.60519144    -1.33127713
     11      C     0.42234609    -0.36836872    -2.34877964
     12      C     0.03701721    -1.53948301    -3.23046701
     13      C    -0.17688355     0.87464764    -2.66514932
     14      N    -0.80525123     1.78273006    -3.04838646
     15      H     4.69290556    -2.07424435     2.02387742
     16      H     3.19469684    -2.23051339     2.96178499
     17      H     4.36007031    -0.93532730     3.35908753
     18      H     3.24270019     0.42849898     1.80394136
     19      H     1.03693978     3.91754337    -0.12053167
     20      H     0.98076556     3.96116169    -1.91997352
     21      H     2.56248250     3.98667198    -1.05136092
     22      H     1.49502035    -1.61995935    -1.18982027
     23      H     0.47178124    -1.43060851    -4.23382343
     24      H     0.39378242    -2.48221821    -2.80051152
     25      H    -1.05152865    -1.59474115    -3.34858838

Total System Charge              0.00000

 *** GO1_GOStep14 ***

 Energy gradients wrt nuclear displacements
 ==========================================

     Atom      Cartesian (a.u./angstrom)
                 X         Y         Z
 ----------------------------------------
     1 C    -0.000127  0.000098 -0.000200
     2 N     0.000283 -0.000592 -0.000005
     3 C     0.000887  0.000223  0.000579
     4 O    -0.000273 -0.000244  0.000400
     5 C     0.000430 -0.000434 -0.000878
     6 C    -0.001003  0.000425 -0.000799
     7 O     0.000164  0.000349  0.000152
     8 O     0.000199 -0.000250  0.000577
     9 C    -0.000175 -0.000181 -0.000219
    10 N    -0.000702  0.001542  0.000114
    11 C    -0.000153 -0.000102  0.000286
    12 C    -0.000234 -0.000025  0.000222
    13 C    -0.000269  0.000634 -0.000356
    14 N     0.000522 -0.000699  0.000270
    15 H    -0.000096  0.000026  0.000019
    16 H    -0.000019 -0.000012  0.000140
    17 H     0.000003  0.000050  0.000044
    18 H    -0.000393  0.000080  0.000091
    19 H     0.000037  0.000039  0.000003
    20 H    -0.000030 -0.000046 -0.000071
    21 H    -0.000023  0.000032 -0.000051
    22 H     0.000522 -0.000578 -0.000162
    23 H     0.000243 -0.000182 -0.000153
    24 H    -0.000034 -0.000179  0.000063
    25 H     0.000241  0.000026 -0.000066
 ----------------------------------------

 dE(predicted):    -0.20244E-04, dE(actual):    -0.75533E-05, Trust radius:    0.357783, all in a.u.
 
----------------------------------------------------------------------
Geometry Convergence after Step  14       (Hartree/Angstrom,Angstrom)
----------------------------------------------------------------------
current energy                               -5.53196174 Hartree
energy change                      -0.00000755     0.00025000    T
constrained gradient max            0.00155557     0.00010000    F
constrained gradient rms            0.00038608     0.00006667    F
gradient max                        0.00155555
gradient rms                        0.00038608
cart. step max                      0.03641474     0.01000000    F
cart. step rms                      0.00992990     0.00666667    F
 

--------
Geometry
--------
Formula: C8H11N3O3
Atoms
  Index Symbol   x (angstrom)   y (angstrom)   z (angstrom)
      1      C     3.90817716    -1.50312347     2.55071307
      2      N     3.23966327    -0.57768245     1.63820878
      3      C     2.56441399    -1.00880170     0.54969086
      4      O     2.46547322    -2.22033985     0.22976343
      5      C     1.90098650     0.02005619    -0.30895147
      6      C     2.03199813     1.44959096    -0.11232880
      7      O     2.55700129     1.98345076     0.87308461
      8      O     1.53526288     2.15608366    -1.16745700
      9      C     1.54392613     3.60763605    -1.05151113
     10      N     1.25179953    -0.61106008    -1.33149016
     11      C     0.41871280    -0.37049898    -2.34637851
     12      C     0.04007919    -1.53380712    -3.24126234
     13      C    -0.19232311     0.87154130    -2.64389934
     14      N    -0.83255584     1.77778039    -3.01197172
     15      H     4.69442567    -2.06568174     2.03255519
     16      H     3.19421299    -2.22405601     2.96731753
     17      H     4.35409987    -0.92341785     3.36299850
     18      H     3.24107535     0.43146669     1.79863868
     19      H     1.03925095     3.91430782    -0.13052239
     20      H     1.00064776     3.95787718    -1.93043668
     21      H     2.57404769     3.97784862    -1.04689023
     22      H     1.49333047    -1.62561992    -1.19130517
     23      H     0.46049015    -1.40296139    -4.24785276
     24      H     0.41615575    -2.47713588    -2.82965696
     25      H    -1.04911181    -1.60381319    -3.34693597

Total System Charge              0.00000

 *** GO1_GOStep15 ***

 Energy gradients wrt nuclear displacements
 ==========================================

     Atom      Cartesian (a.u./angstrom)
                 X         Y         Z
 ----------------------------------------
     1 C    -0.000214  0.000026  0.000155
     2 N    -0.000146  0.000493 -0.000117
     3 C     0.000930  0.000148 -0.000228
     4 O    -0.000324 -0.000179  0.000117
     5 C     0.000106 -0.000235 -0.000253
     6 C     0.000021  0.000310  0.000152
     7 O    -0.000103 -0.000352  0.000010
     8 O    -0.000205 -0.000184  0.000094
     9 C    -0.000184 -0.000196  0.000028
    10 N     0.000047  0.000913  0.000018
    11 C    -0.000098 -0.000345  0.000211
    12 C     0.000036 -0.000095 -0.000628
    13 C     0.000217  0.000587  0.000269
    14 N     0.000043 -0.000319  0.000060
    15 H    -0.000102  0.000082 -0.000050
    16 H    -0.000013  0.000060  0.000125
    17 H     0.000017  0.000093  0.000030
    18 H    -0.000020 -0.000010 -0.000018
    19 H     0.000023 -0.000020  0.000050
    20 H     0.000008 -0.000053 -0.000202
    21 H     0.000016  0.000008 -0.000095
    22 H    -0.000180 -0.000444  0.000162
    23 H     0.000040 -0.000195 -0.000033
    24 H    -0.000077 -0.000124  0.000167
    25 H     0.000162  0.000031 -0.000022
 ----------------------------------------

 dE(predicted):    -0.14099E-04, dE(actual):    -0.17656E-05, Trust radius:    0.020000, all in a.u.
 
----------------------------------------------------------------------
Geometry Convergence after Step  15       (Hartree/Angstrom,Angstrom)
----------------------------------------------------------------------
current energy                               -5.53196351 Hartree
energy change                      -0.00000177     0.00025000    T
constrained gradient max            0.00093039     0.00010000    F
constrained gradient rms            0.00024191     0.00006667    F
gradient max                        0.00093036
gradient rms                        0.00024191
cart. step max                      0.01039217     0.01000000    F
cart. step rms                      0.00321020     0.00666667    T
 

--------
Geometry
--------
Formula: C8H11N3O3
Atoms
  Index Symbol   x (angstrom)   y (angstrom)   z (angstrom)
      1      C     3.90935408    -1.50272705     2.54939202
      2      N     3.23542161    -0.57771573     1.64033680
      3      C     2.56035618    -1.00849824     0.55149223
      4      O     2.46497356    -2.21976185     0.22968663
      5      C     1.89707523     0.02032677    -0.30730292
      6      C     2.03009447     1.44990942    -0.11212677
      7      O     2.55327635     1.98388038     0.87417019
      8      O     1.53799599     2.15694983    -1.16938661
      9      C     1.54906316     3.60855463    -1.05275352
     10      N     1.25025038    -0.61140559    -1.33107399
     11      C     0.41686340    -0.37143071    -2.34584258
     12      C     0.04084282    -1.53460453    -3.24174854
     13      C    -0.19804515     0.86913972    -2.64133344
     14      N    -0.83894969     1.77541966    -3.00828354
     15      H     4.69818025    -2.05985670     2.02922814
     16      H     3.19914161    -2.22839057     2.96409943
     17      H     4.35286621    -0.92336269     3.36322136
     18      H     3.23415737     0.43110109     1.80285476
     19      H     1.04003234     3.91580566    -0.13438978
     20      H     1.01103993     3.96048785    -1.93417939
     21      H     2.57985734     3.97674221    -1.04243434
     22      H     1.49521814    -1.62513865    -1.19243892
     23      H     0.45717920    -1.39887191    -4.24931142
     24      H     0.42342410    -2.47683359    -2.83380597
     25      H    -1.04842888    -1.61007941    -3.34394983

Total System Charge              0.00000

 *** GO1_GOStep16 ***

 Energy gradients wrt nuclear displacements
 ==========================================

     Atom      Cartesian (a.u./angstrom)
                 X         Y         Z
 ----------------------------------------
     1 C    -0.000016  0.000014  0.000124
     2 N     0.000009  0.000302 -0.000210
     3 C     0.000007  0.000040 -0.000132
     4 O    -0.000071 -0.000045  0.000179
     5 C     0.000211 -0.000161 -0.000191
     6 C     0.000281  0.000095  0.000165
     7 O    -0.000130 -0.000226 -0.000116
     8 O    -0.000149  0.000008  0.000067
     9 C    -0.000167 -0.000139  0.000068
    10 N     0.000038  0.000386  0.000092
    11 C     0.000048 -0.000191  0.000060
    12 C     0.000030 -0.000112 -0.000468
    13 C    -0.000056  0.000233  0.000293
    14 N    -0.000016 -0.000089 -0.000144
    15 H    -0.000048  0.000033  0.000017
    16 H    -0.000032  0.000106  0.000085
    17 H     0.000023  0.000077  0.000013
    18 H    -0.000159  0.000006  0.000085
    19 H     0.000016 -0.000019  0.000003
    20 H     0.000011 -0.000017 -0.000147
    21 H     0.000033  0.000010 -0.000086
    22 H     0.000051 -0.000127  0.000070
    23 H     0.000070 -0.000112  0.000071
    24 H    -0.000065 -0.000087  0.000152
    25 H     0.000081  0.000014 -0.000051
 ----------------------------------------

 dE(predicted):    -0.65820E-05, dE(actual):    -0.41369E-05, Trust radius:    0.020000, all in a.u.
 
----------------------------------------------------------------------
Geometry Convergence after Step  16       (Hartree/Angstrom,Angstrom)
----------------------------------------------------------------------
current energy                               -5.53196764 Hartree
energy change                      -0.00000414     0.00025000    T
constrained gradient max            0.00047188     0.00010000    F
constrained gradient rms            0.00013309     0.00006667    F
gradient max                        0.00047167
gradient rms                        0.00013309
cart. step max                      0.00830140     0.01000000    T
cart. step rms                      0.00273267     0.00666667    T
 

--------
Geometry
--------
Formula: C8H11N3O3
Atoms
  Index Symbol   x (angstrom)   y (angstrom)   z (angstrom)
      1      C     3.90972863    -1.50418249     2.54825378
      2      N     3.23336416    -0.57812554     1.64204936
      3      C     2.55953422    -1.00742124     0.55179881
      4      O     2.46775796    -2.21814677     0.22695970
      5      C     1.89463368     0.02146611    -0.30589750
      6      C     2.02728372     1.45118966    -0.11120882
      7      O     2.54782652     1.98549902     0.87637843
      8      O     1.54011229     2.15813471    -1.17107163
      9      C     1.55211501     3.60987778    -1.05460317
     10      N     1.24977474    -0.61089433    -1.33072521
     11      C     0.41644794    -0.37161536    -2.34558029
     12      C     0.04077574    -1.53560897    -3.24021650
     13      C    -0.20003895     0.86804608    -2.64100551
     14      N    -0.84118002     1.77413223    -3.00780818
     15      H     4.70130631    -2.05644381     2.02704265
     16      H     3.20168676    -2.23407876     2.95917721
     17      H     4.35008087    -0.92639943     3.36489724
     18      H     3.23096278     0.43032662     1.80676975
     19      H     1.03796304     3.91781418    -0.13935346
     20      H     1.01934134     3.96234722    -1.93892101
     21      H     2.58313474     3.97710073    -1.03825405
     22      H     1.49615211    -1.62418343    -1.19236106
     23      H     0.45186066    -1.39711200    -4.24955247
     24      H     0.42934250    -2.47653549    -2.83514674
     25      H    -1.04872672    -1.61554673    -3.33750133

Total System Charge              0.00000

 *** GO1_GOStep17 ***

 Energy gradients wrt nuclear displacements
 ==========================================

     Atom      Cartesian (a.u./angstrom)
                 X         Y         Z
 ----------------------------------------
     1 C    -0.000021  0.000012  0.000108
     2 N     0.000166 -0.000045 -0.000095
     3 C    -0.000292  0.000001  0.000001
     4 O     0.000086  0.000097  0.000057
     5 C     0.000221 -0.000003 -0.000027
     6 C    -0.000046 -0.000058  0.000096
     7 O    -0.000003  0.000026 -0.000059
     8 O    -0.000055  0.000072 -0.000042
     9 C    -0.000088 -0.000048  0.000004
    10 N     0.000113 -0.000106 -0.000149
    11 C     0.000103 -0.000007 -0.000096
    12 C     0.000046 -0.000128 -0.000108
    13 C    -0.000273  0.000221  0.000194
    14 N     0.000123 -0.000253 -0.000125
    15 H    -0.000037  0.000012  0.000047
    16 H    -0.000024  0.000090  0.000083
    17 H     0.000022  0.000059 -0.000005
    18 H    -0.000129  0.000065  0.000095
    19 H     0.000004 -0.000007 -0.000052
    20 H     0.000007 -0.000003 -0.000062
    21 H     0.000015  0.000029 -0.000067
    22 H    -0.000047  0.000060  0.000057
    23 H     0.000131 -0.000047  0.000114
    24 H    -0.000055 -0.000049  0.000101
    25 H     0.000034  0.000009 -0.000069
 ----------------------------------------

 dE(predicted):    -0.44776E-05, dE(actual):    -0.30282E-05, Trust radius:    0.020000, all in a.u.
 
----------------------------------------------------------------------
Geometry Convergence after Step  17       (Hartree/Angstrom,Angstrom)
----------------------------------------------------------------------
current energy                               -5.53197067 Hartree
energy change                      -0.00000303     0.00025000    T
constrained gradient max            0.00028867     0.00010000    F
constrained gradient rms            0.00009451     0.00006667    F
gradient max                        0.00028870
gradient rms                        0.00009451
cart. step max                      0.00705353     0.01000000    T
cart. step rms                      0.00264084     0.00666667    T
 

--------
Geometry
--------
Formula: C8H11N3O3
Atoms
  Index Symbol   x (angstrom)   y (angstrom)   z (angstrom)
      1      C     3.90956031    -1.50370527     2.54860264
      2      N     3.23156039    -0.57800230     1.64329192
      3      C     2.55950707    -1.00741512     0.55199253
      4      O     2.46981729    -2.21802865     0.22610028
      5      C     1.89358729     0.02112940    -0.30535318
      6      C     2.02628471     1.45092085    -0.11116374
      7      O     2.54463889     1.98557625     0.87737744
      8      O     1.54266934     2.15759691    -1.17292551
      9      C     1.55495179     3.60940084    -1.05656977
     10      N     1.24984840    -0.61149974    -1.33077078
     11      C     0.41580525    -0.37196466    -2.34496252
     12      C     0.04038901    -1.53504113    -3.24073513
     13      C    -0.20240920     0.86738602    -2.63774981
     14      N    -0.84474174     1.77369065    -3.00222545
     15      H     4.70428890    -2.05184631     2.02779260
     16      H     3.20332592    -2.23717527     2.95622685
     17      H     4.34604281    -0.92627760     3.36757474
     18      H     3.22795958     0.43031570     1.80862201
     19      H     1.03657512     3.91770416    -0.14382934
     20      H     1.02639487     3.96207578    -1.94330109
     21      H     2.58604759     3.97606103    -1.03533205
     22      H     1.49781987    -1.62448469    -1.19357346
     23      H     0.44481576    -1.39159384    -4.25207705
     24      H     0.43583571    -2.47528086    -2.84090103
     25      H    -1.04933491    -1.61990214    -3.33199111

Total System Charge              0.00000

 *** GO1_GOStep18 ***

 Energy gradients wrt nuclear displacements
 ==========================================

     Atom      Cartesian (a.u./angstrom)
                 X         Y         Z
 ----------------------------------------
     1 C    -0.000020  0.000020  0.000068
     2 N     0.000132 -0.000038 -0.000058
     3 C    -0.000195  0.000029  0.000021
     4 O     0.000051  0.000053  0.000041
     5 C     0.000169  0.000088  0.000035
     6 C    -0.000051 -0.000097  0.000120
     7 O    -0.000005  0.000064 -0.000092
     8 O    -0.000053  0.000053 -0.000089
     9 C    -0.000033 -0.000016 -0.000001
    10 N     0.000088 -0.000211 -0.000168
    11 C     0.000081  0.000006 -0.000094
    12 C     0.000022 -0.000118  0.000019
    13 C    -0.000024 -0.000142  0.000317
    14 N    -0.000079  0.000068 -0.000245
    15 H    -0.000040  0.000005  0.000048
    16 H    -0.000024  0.000084  0.000082
    17 H     0.000015  0.000064 -0.000006
    18 H    -0.000128  0.000036  0.000099
    19 H    -0.000003 -0.000003 -0.000067
    20 H     0.000007 -0.000008 -0.000048
    21 H     0.000005  0.000018 -0.000058
    22 H    -0.000004  0.000099  0.000015
    23 H     0.000130 -0.000045  0.000069
    24 H    -0.000060 -0.000014  0.000070
    25 H     0.000019  0.000007 -0.000078
 ----------------------------------------
 
----------------------------------------------------------------------
Geometry Convergence after Step  18       (Hartree/Angstrom,Angstrom)
----------------------------------------------------------------------
current energy                               -5.53197047 Hartree
energy change                       0.00000020     0.00025000    T
constrained gradient max            0.00034186     0.00010000    F
constrained gradient rms            0.00008366     0.00006667    F
gradient max                        0.00034212
gradient rms                        0.00008367
cart. step max                      0.00698140     0.01000000    T
cart. step rms                      0.00228928     0.00666667    T
 

--------
Geometry
--------
Formula: C8H11N3O3
Atoms
  Index Symbol   x (angstrom)   y (angstrom)   z (angstrom)
      1      C     3.90921995    -1.50307637     2.54897662
      2      N     3.23027487    -0.57778241     1.64399214
      3      C     2.55965854    -1.00749320     0.55193394
      4      O     2.47116836    -2.21809473     0.22559727
      5      C     1.89290371     0.02076911    -0.30514137
      6      C     2.02589854     1.45059434    -0.11123915
      7      O     2.54255906     1.98528053     0.87821281
      8      O     1.54506117     2.15720929    -1.17431917
      9      C     1.55726060     3.60904555    -1.05788032
     10      N     1.24976193    -0.61197375    -1.33082908
     11      C     0.41528302    -0.37226060    -2.34463444
     12      C     0.04004087    -1.53464979    -3.24125923
     13      C    -0.20406378     0.86691113    -2.63552510
     14      N    -0.84740911     1.77327023    -2.99778542
     15      H     4.70694140    -2.04767646     2.02898451
     16      H     3.20433414    -2.23960784     2.95337604
     17      H     4.34190282    -0.92595329     3.37018512
     18      H     3.22608579     0.43051037     1.80932219
     19      H     1.03555742     3.91741721    -0.14704586
     20      H     1.03189994     3.96186326    -1.94643069
     21      H     2.58833050     3.97543133    -1.03277503
     22      H     1.49847574    -1.62485393    -1.19419538
     23      H     0.43783436    -1.38683173    -4.25460335
     24      H     0.44210572    -2.47412212    -2.84629766
     25      H    -1.04984557    -1.62428613    -3.32649942

Total System Charge              0.00000

 *** GO1_GOStep19 ***

 Energy gradients wrt nuclear displacements
 ==========================================

     Atom      Cartesian (a.u./angstrom)
                 X         Y         Z
 ----------------------------------------
     1 C    -0.000028  0.000033  0.000050
     2 N     0.000065  0.000039 -0.000023
     3 C    -0.000000  0.000059 -0.000032
     4 O     0.000004 -0.000021  0.000052
     5 C     0.000066  0.000102  0.000055
     6 C    -0.000029 -0.000120  0.000069
     7 O     0.000012  0.000062 -0.000014
     8 O    -0.000033  0.000038 -0.000098
     9 C     0.000009  0.000015 -0.000026
    10 N     0.000081 -0.000167 -0.000147
    11 C    -0.000004  0.000016 -0.000067
    12 C     0.000019 -0.000068  0.000063
    13 C    -0.000125  0.000057  0.000172
    14 N     0.000080 -0.000183 -0.000120
    15 H    -0.000054  0.000006  0.000040
    16 H    -0.000021  0.000080  0.000086
    17 H     0.000011  0.000063  0.000001
    18 H    -0.000110  0.000004  0.000083
    19 H    -0.000008  0.000002 -0.000069
    20 H     0.000002 -0.000016 -0.000044
    21 H    -0.000011 -0.000004 -0.000043
    22 H     0.000001  0.000071  0.000018
    23 H     0.000106 -0.000071  0.000015
    24 H    -0.000055 -0.000014  0.000049
    25 H     0.000023  0.000015 -0.000070
 ----------------------------------------
 
----------------------------------------------------------------------
Geometry Convergence after Step  19       (Hartree/Angstrom,Angstrom)
----------------------------------------------------------------------
current energy                               -5.53197141 Hartree
energy change                      -0.00000094     0.00025000    T
constrained gradient max            0.00019537     0.00010000    F
constrained gradient rms            0.00006102     0.00006667    T
gradient max                        0.00019556
gradient rms                        0.00006102
cart. step max                      0.00636707     0.01000000    T
cart. step rms                      0.00192846     0.00666667    T
 

--------
Geometry
--------
Formula: C8H11N3O3
Atoms
  Index Symbol   x (angstrom)   y (angstrom)   z (angstrom)
      1      C     3.90890069    -1.50286820     2.54920915
      2      N     3.22926199    -0.57772946     1.64461052
      3      C     2.55931959    -1.00755782     0.55220499
      4      O     2.47131292    -2.21811374     0.22560600
      5      C     1.89240795     0.02058693    -0.30490981
      6      C     2.02574006     1.45044590    -0.11134298
      7      O     2.54145568     1.98518120     0.87857915
      8      O     1.54655903     2.15685820    -1.17526511
      9      C     1.55868052     3.60873909    -1.05909792
     10      N     1.24962136    -0.61217094    -1.33071680
     11      C     0.41518935    -0.37228443    -2.34449133
     12      C     0.04002830    -1.53434901    -3.24148578
     13      C    -0.20477122     0.86687392    -2.63411379
     14      N    -0.84867248     1.77368806    -2.99454554
     15      H     4.70934554    -2.04423089     2.02996716
     16      H     3.20511190    -2.24216720     2.95043367
     17      H     4.33810488    -0.92623985     3.37259645
     18      H     3.22513202     0.43059984     1.80971259
     19      H     1.03514742     3.91732242    -0.14936642
     20      H     1.03504573     3.96140160    -1.94871355
     21      H     2.58972370     3.97499463    -1.03194407
     22      H     1.49867310    -1.62506190    -1.19437298
     23      H     0.43146728    -1.38274334    -4.25671897
     24      H     0.44841659    -2.47289050    -2.85081504
     25      H    -1.04996188    -1.62864451    -3.32089959

Total System Charge              0.00000

 *** GO1_GOStep20 ***

 Energy gradients wrt nuclear displacements
 ==========================================

     Atom      Cartesian (a.u./angstrom)
                 X         Y         Z
 ----------------------------------------
     1 C    -0.000015  0.000056  0.000039
     2 N     0.000040  0.000065 -0.000017
     3 C     0.000072  0.000023  0.000002
     4 O    -0.000022  0.000005  0.000033
     5 C     0.000017  0.000073 -0.000001
     6 C    -0.000006 -0.000082  0.000021
     7 O     0.000000  0.000034  0.000004
     8 O    -0.000035 -0.000005 -0.000091
     9 C     0.000033  0.000040 -0.000060
    10 N     0.000024 -0.000050 -0.000108
    11 C    -0.000003 -0.000024 -0.000019
    12 C     0.000025 -0.000034  0.000103
    13 C     0.000126 -0.000238  0.000237
    14 N    -0.000134  0.000144 -0.000183
    15 H    -0.000061  0.000005  0.000036
    16 H    -0.000034  0.000069  0.000094
    17 H     0.000011  0.000058  0.000005
    18 H    -0.000097  0.000003  0.000064
    19 H    -0.000013  0.000008 -0.000062
    20 H    -0.000001 -0.000025 -0.000043
    21 H    -0.000020 -0.000018 -0.000035
    22 H     0.000022 -0.000000  0.000006
    23 H     0.000094 -0.000092 -0.000017
    24 H    -0.000046 -0.000033  0.000045
    25 H     0.000022  0.000018 -0.000053
 ----------------------------------------
 
----------------------------------------------------------------------
Geometry Convergence after Step  20       (Hartree/Angstrom,Angstrom)
----------------------------------------------------------------------
current energy                               -5.53197209 Hartree
energy change                      -0.00000068     0.00025000    T
constrained gradient max            0.00025885     0.00010000    F
constrained gradient rms            0.00006311     0.00006667    T
[...]
                                    1.42%     1 P:x            -7.062  1.00    10 N
                                    1.36%     1 P:z            -5.239  0.67     5 C
                                    1.22%     2 S               2.394  0.00    16 H
                                    1.22%     2 S               2.394  0.00    18 H
                                    1.17%     2 P:x             4.589  0.00     1 C
                                   -1.09%     3 S              14.073  0.00    10 N
                                    1.07%     2 S             -13.620  2.00     8 C
                                    1.04%     1 S              -6.532  1.00    25 H
                                    1.03%     1 S              -6.532  1.00    18 H

 Energy gradients wrt nuclear displacements
 ==========================================

     Atom      Cartesian (a.u./angstrom)
                 X         Y         Z
 ----------------------------------------
     1 C    -0.000004  0.000055  0.000028
     2 N     0.000055  0.000042 -0.000020
     3 C     0.000053  0.000002  0.000027
     4 O    -0.000015  0.000020  0.000037
     5 C    -0.000009 -0.000007 -0.000053
     6 C    -0.000007  0.000018 -0.000041
     7 O    -0.000004  0.000020 -0.000010
     8 O     0.000006 -0.000035 -0.000012
     9 C     0.000045  0.000017 -0.000084
    10 N     0.000055  0.000062  0.000000
    11 C    -0.000017 -0.000070  0.000002
    12 C     0.000047 -0.000014  0.000048
    13 C    -0.000006 -0.000071  0.000020
    14 N    -0.000009  0.000002 -0.000043
    15 H    -0.000060  0.000009  0.000040
    16 H    -0.000040  0.000064  0.000093
    17 H     0.000015  0.000061  0.000008
    18 H    -0.000106  0.000030  0.000057
    19 H    -0.000012  0.000011 -0.000054
    20 H     0.000005 -0.000026 -0.000055
    21 H    -0.000005 -0.000017 -0.000043
    22 H     0.000012 -0.000042  0.000025
    23 H     0.000057 -0.000089  0.000012
    24 H    -0.000041 -0.000037  0.000058
    25 H    -0.000014 -0.000005 -0.000039
 ----------------------------------------



 =======================================================================
 Electrostatic potential at the Nuclei due to electrons and other nuclei
 =======================================================================
  
         Atom                  Potential
         ----                  ---------
     1)   C                  14.74751678
     2)   N                  18.38183031
     3)   C                  14.68062364
     4)   O                  22.42352189
     5)   C                  14.72464022
     6)   C                  14.65334848
     7)   O                  22.40746042
     8)   O                  22.34816807
     9)   C                  14.73008444
    10)   N                  18.30941725
    11)   C                  14.68595740
    12)   C                  14.75062426
    13)   C                  14.75403607
    14)   N                  18.43127887
    15)   H                   1.10525464
    16)   H                   1.10499147
    17)   H                   1.09610136
    18)   H                   1.01625410
    19)   H                   1.09887750
    20)   H                   1.09867688
    21)   H                   1.09897564
    22)   H                   0.97467553
    23)   H                   1.08030692
    24)   H                   1.07586593
    25)   H                   1.08115523
 Mulliken charges used for AMS results%charges...


    =====================
     CALCULATION RESULTS
    =====================

Energy (hartree)            -5.53197390

Gradients (hartree/bohr)
  Index   Atom            d/dx            d/dy            d/dz
      1      C   -0.0000022066    0.0000290623    0.0000146132
      2      N    0.0000290491    0.0000221168   -0.0000104165
      3      C    0.0000279397    0.0000012524    0.0000143108
      4      O   -0.0000079873    0.0000108385    0.0000195990
      5      C   -0.0000047164   -0.0000035185   -0.0000280994
      6      C   -0.0000037977    0.0000094342   -0.0000214363
      7      O   -0.0000019621    0.0000107543   -0.0000052328
      8      O    0.0000031605   -0.0000186925   -0.0000064650
      9      C    0.0000238045    0.0000088294   -0.0000444445
     10      N    0.0000293200    0.0000330142    0.0000000918
     11      C   -0.0000091370   -0.0000372418    0.0000011617
     12      C    0.0000246621   -0.0000072071    0.0000252119
     13      C   -0.0000029541   -0.0000376647    0.0000105532
     14      N   -0.0000050015    0.0000010595   -0.0000229117
     15      H   -0.0000318448    0.0000045293    0.0000209340
     16      H   -0.0000211232    0.0000337725    0.0000493588
     17      H    0.0000078194    0.0000320820    0.0000042928
     18      H   -0.0000561501    0.0000156542    0.0000302209
     19      H   -0.0000061740    0.0000059274   -0.0000285595
     20      H    0.0000025524   -0.0000137619   -0.0000292112
     21      H   -0.0000028372   -0.0000089990   -0.0000228237
     22      H    0.0000063242   -0.0000222258    0.0000130433
     23      H    0.0000299173   -0.0000468824    0.0000062362
     24      H   -0.0000214434   -0.0000197497    0.0000304578
     25      H   -0.0000072137   -0.0000023837   -0.0000204849


--------------
Atomic charges
--------------
  Index   Atom    Charge
      1      C    0.7871
      2      N   -0.1407
      3      C    0.5861
      4      O   -0.6353
      5      C   -0.0764
      6      C    0.7274
      7      O   -0.6095
      8      O   -0.5653
      9      C    0.9776
     10      N    0.0702
     11      C    0.0897
     12      C    0.6223
     13      C    0.1366
     14      N   -0.2733
     15      H   -0.1832
     16      H   -0.1814
     17      H   -0.2311
     18      H    0.0082
     19      H   -0.1875
     20      H   -0.2140
     21      H   -0.1921
     22      H    0.0073
     23      H   -0.1481
     24      H   -0.2190
     25      H   -0.1560


Dipole moment vector    (Debye):     1.22122555   -1.16099613    0.06069608
              magnitude (Debye):     1.68611621


-----------------------
Molecular orbitals info
-----------------------
n orbitals:              485
n spin:                    1

Note: only printing virtual orbitals with
      energy smaller than HOMO + 100. eV

HOMO (eV):              -5.4582
LUMO (eV):              -3.2757
HOMO-LUMO gap (eV):      2.1825

   Index   Energy (eV)    Occupation
     305       94.2008         0.000       
     304       94.1785         0.000       
     303       94.0478         0.000       
     302       93.7118         0.000       
     301       93.2318         0.000       
     300       92.9778         0.000       
     299       92.5279         0.000       
     298       92.3699         0.000       
     297       92.2246         0.000       
     296       91.5564         0.000       
     295       91.1675         0.000       
     294       91.1182         0.000       
     293       89.9941         0.000       
     292       89.7851         0.000       
     291       89.3863         0.000       
     290       88.9837         0.000       
     289       88.3533         0.000       
     288       88.0246         0.000       
     287       86.2961         0.000       
     286       86.0153         0.000       
     285       85.1118         0.000       
     284       84.1250         0.000       
     283       83.4240         0.000       
     282       83.1141         0.000       
     281       82.4456         0.000       
     280       82.2021         0.000       
     279       81.9265         0.000       
     278       80.7838         0.000       
     277       80.6510         0.000       
     276       80.4530         0.000       
     275       79.9906         0.000       
     274       79.4477         0.000       
     273       78.7692         0.000       
     272       78.3796         0.000       
     271       78.3112         0.000       
     270       77.8636         0.000       
     269       77.4315         0.000       
     268       77.3506         0.000       
     267       77.0911         0.000       
     266       76.8441         0.000       
     265       76.5934         0.000       
     264       76.1690         0.000       
     263       76.0241         0.000       
     262       75.9993         0.000       
     261       75.8057         0.000       
     260       75.5012         0.000       
     259       74.3430         0.000       
     258       73.8026         0.000       
     257       73.5413         0.000       
     256       73.2590         0.000       
     255       72.7465         0.000       
     254       71.1815         0.000       
     253       70.8819         0.000       
     252       70.4894         0.000       
     251       68.8029         0.000       
     250       68.1856         0.000       
     249       67.8876         0.000       
     248       67.1858         0.000       
     247       66.8674         0.000       
     246       65.7974         0.000       
     245       65.1835         0.000       
     244       64.8855         0.000       
     243       64.2457         0.000       
     242       63.6016         0.000       
     241       62.3409         0.000       
     240       61.8709         0.000       
     239       61.7386         0.000       
     238       61.4308         0.000       
     237       61.2305         0.000       
     236       61.0031         0.000       
     235       60.0087         0.000       
     234       59.1918         0.000       
     233       58.9084         0.000       
     232       58.4396         0.000       
     231       57.6659         0.000       
     230       56.7272         0.000       
     229       56.1562         0.000       
     228       56.0139         0.000       
     227       55.6545         0.000       
     226       55.3592         0.000       
     225       55.0048         0.000       
     224       54.7212         0.000       
     223       54.1488         0.000       
     222       53.8571         0.000       
     221       53.6254         0.000       
     220       53.0229         0.000       
     219       52.7129         0.000       
     218       52.3303         0.000       
     217       51.7857         0.000       
     216       51.2772         0.000       
     215       51.2383         0.000       
     214       50.7315         0.000       
     213       50.0804         0.000       
     212       49.7679         0.000       
     211       49.3481         0.000       
     210       48.6568         0.000       
     209       47.8374         0.000       
     208       47.4746         0.000       
     207       47.0342         0.000       
     206       46.7610         0.000       
     205       46.1113         0.000       
     204       45.9309         0.000       
     203       45.6818         0.000       
     202       44.8890         0.000       
     201       44.7570         0.000       
     200       44.6112         0.000       
     199       44.2250         0.000       
     198       43.6297         0.000       
     197       43.1122         0.000       
     196       42.8387         0.000       
     195       42.5703         0.000       
     194       42.4208         0.000       
     193       41.3837         0.000       
     192       41.1356         0.000       
     191       40.6540         0.000       
     190       39.9934         0.000       
     189       39.6958         0.000       
     188       39.5624         0.000       
     187       39.1584         0.000       
     186       38.9332         0.000       
     185       38.3783         0.000       
     184       37.7013         0.000       
     183       37.5898         0.000       
     182       37.3037         0.000       
     181       37.0603         0.000       
     180       36.4809         0.000       
     179       36.3149         0.000       
     178       35.4644         0.000       
     177       35.2658         0.000       
     176       34.8439         0.000       
     175       34.7388         0.000       
     174       33.8914         0.000       
     173       33.8030         0.000       
     172       33.2731         0.000       
     171       33.1213         0.000       
     170       32.6338         0.000       
     169       32.2729         0.000       
     168       31.4828         0.000       
     167       31.0343         0.000       
     166       30.9120         0.000       
     165       30.4110         0.000       
     164       29.9700         0.000       
     163       29.6174         0.000       
     162       29.3587         0.000       
     161       28.9217         0.000       
     160       28.6403         0.000       
     159       28.3677         0.000       
     158       28.2628         0.000       
     157       28.0562         0.000       
     156       27.7292         0.000       
     155       27.4132         0.000       
     154       27.2679         0.000       
     153       26.8799         0.000       
     152       26.4604         0.000       
     151       26.4344         0.000       
     150       26.1120         0.000       
     149       26.0101         0.000       
     148       25.9972         0.000       
     147       25.6848         0.000       
     146       25.0615         0.000       
     145       24.9067         0.000       
     144       24.6398         0.000       
     143       24.1547         0.000       
     142       23.9919         0.000       
     141       23.3228         0.000       
     140       22.7687         0.000       
     139       22.6310         0.000       
     138       22.5158         0.000       
     137       22.2057         0.000       
     136       22.0843         0.000       
     135       21.6088         0.000       
     134       20.9048         0.000       
     133       20.3154         0.000       
     132       19.1593         0.000       
     131       19.0145         0.000       
     130       18.4548         0.000       
     129       17.9149         0.000       
     128       17.4149         0.000       
     127       17.2148         0.000       
     126       16.8158         0.000       
     125       16.4111         0.000       
     124       16.2261         0.000       
     123       15.8172         0.000       
     122       15.3529         0.000       
     121       15.1182         0.000       
     120       14.6513         0.000       
     119       14.1394         0.000       
     118       13.6280         0.000       
     117       13.5090         0.000       
     116       13.1911         0.000       
     115       12.9618         0.000       
     114       12.6286         0.000       
     113       12.2193         0.000       
     112       11.7571         0.000       
     111       11.6511         0.000       
     110       11.5291         0.000       
     109       11.1324         0.000       
     108       10.8437         0.000       
     107       10.5248         0.000       
     106       10.3358         0.000       
     105       10.0184         0.000       
     104        9.8799         0.000       
     103        9.7260         0.000       
     102        9.6214         0.000       
     101        9.3744         0.000       
     100        9.3226         0.000       
      99        9.1379         0.000       
      98        8.8128         0.000       
      97        8.6556         0.000       
      96        8.4083         0.000       
      95        8.2000         0.000       
      94        8.0754         0.000       
      93        7.7009         0.000       
      92        7.4841         0.000       
      91        7.2222         0.000       
      90        7.0194         0.000       
      89        6.8300         0.000       
      88        6.6488         0.000       
      87        6.4395         0.000       
      86        5.8066         0.000       
      85        5.5079         0.000       
      84        5.4893         0.000       
      83        5.3331         0.000       
      82        5.1120         0.000       
      81        4.9844         0.000       
      80        4.8063         0.000       
      79        4.7342         0.000       
      78        4.2645         0.000       
      77        4.1399         0.000       
      76        4.1018         0.000       
      75        3.9027         0.000       
      74        3.6482         0.000       
      73        3.3179         0.000       
      72        3.2599         0.000       
      71        3.0169         0.000       
      70        2.4886         0.000       
      69        2.0175         0.000       
      68        1.8694         0.000       
      67        1.6331         0.000       
      66        1.6053         0.000       
      65        1.5419         0.000       
      64        1.4174         0.000       
      63        1.2013         0.000       
      62        1.0526         0.000       
      61        0.8786         0.000       
      60        0.6199         0.000       
      59        0.5095         0.000       
      58        0.1244         0.000       
      57       -0.1289         0.000       
      56       -0.5143         0.000       
      55       -0.8274         0.000       
      54       -1.0068         0.000       
      53       -3.2757         0.000 < LUMO
      52       -5.4582         2.000 < HOMO
      51       -6.3184         2.000       
      50       -6.4973         2.000       
      49       -6.7884         2.000       
      48       -7.4064         2.000       
      47       -8.1660         2.000       
      46       -8.5775         2.000       
      45       -8.7746         2.000       
      44       -8.9321         2.000       
      43       -9.2846         2.000       
      42       -9.6171         2.000       
      41       -9.7307         2.000       
      40       -9.9967         2.000       
      39      -10.3882         2.000       
      38      -10.4139         2.000       
      37      -10.6140         2.000       
      36      -11.1364         2.000       
      35      -11.1874         2.000       
      34      -11.3677         2.000       
      33      -11.5404         2.000       
      32      -11.7229         2.000       
      31      -12.0428         2.000       
      30      -12.4469         2.000       
      29      -13.6901         2.000       
      28      -14.0724         2.000       
      27      -14.6280         2.000       
      26      -15.3327         2.000       
      25      -16.8330         2.000       
      24      -17.4782         2.000       
      23      -18.1177         2.000       
      22      -18.8002         2.000       
      21      -20.4744         2.000       
      20      -22.5727         2.000       
      19      -23.0030         2.000       
      18      -24.9930         2.000       
      17      -25.3629         2.000       
      16      -26.1171         2.000       
      15      -27.5665         2.000       
      14     -270.9485         2.000       
      13     -271.0002         2.000       
      12     -271.2807         2.000       
      11     -271.5104         2.000       
      10     -271.6618         2.000       
       9     -272.6668         2.000       
       8     -272.9149         2.000       
       7     -273.6661         2.000       
       6     -381.7127         2.000       
       5     -382.3913         2.000       
       4     -384.4381         2.000       
       3     -510.8216         2.000       
       2     -511.2810         2.000       
       1     -512.8281         2.000       

AMS application finished. Exiting.
NORMAL TERMINATION
     Total cpu time:    2696.77
  Total system time:      15.14
 Total elapsed time:    2726.74
NORMAL TERMINATION
