
 *******************************************************************************
 *                                                                             *
 *  --------------------------------                                           *
 *   Amsterdam Modeling Suite (AMS)              2026.103                      *
 *  --------------------------------                                           *
 *                                               r260501 2026-05-01 873454b5   *
 *                                                                             *
 *                                                                             *
 *                              =================                              *
 *                              |               |                              *
 *                              |     A M S     |                              *
 *                              |               |                              *
 *                              =================                              *
 *                                                                             *
 *                                                                             *
 *   Online information and documentation:  https://www.scm.com/support/       *
 *   E-mail:  support@scm.com   info@scm.com                                   *
 *                                                                             *
 *   Scientific publications using AMS results must be properly referenced     *
 *   See the User Manuals (or the web site) for recommended citations          *
 *   The terms and conditions of the End User License Agreement apply to       *
 *   the use of AMS, https://www.scm.com/license-terms/                        *
 *                                                                             *
 **********************  x86_64_linux_intel / intelmpi  ************************
 
 Licensed to: Jong-June Jeon / University of Seoul 2026-06-02 13:44:15
 SCM User ID: u30731
  
 AMS 2026.103  RunTime: Jun03-2026 17:19:24  ShM Nodes: 1  Procs: 1

 AMS jobname: c3_eda
 AMS jobid  : 720315886

 Start   directory: /gpfs/home1/yeseo1ee/projects/eda-asm-prediction/ADF_800/adf_outputs/batch_003/qmrxn20_e2_A_B_E_A_B_B/
 Results directory: /gpfs/home1/yeseo1ee/projects/eda-asm-prediction/ADF_800/adf_outputs/batch_003/qmrxn20_e2_A_B_E_A_B_B/c3_eda.results/
 Scratch directory: /tmp/amstmp_c3_eda_kid0.720315886/

 RNG seed: 2072550371 -1349949778 994188307 298882649 1832972860 2053359867 1874469233 332089299



                      ************************************************************************
                      *  ADF 2026.103  RunTime: Jun03-2026 17:19:24  ShM Nodes: 1  Procs: 1  *
                      ************************************************************************
  

       ****************************
       * SINGLE POINT CALCULATION *
       ****************************

--------
Geometry
--------
Formula: C2H5ClFN2O2
Atoms
  Index Symbol   x (angstrom)   y (angstrom)   z (angstrom)
      1      F    -2.60535157     0.16953990     2.14696959 adf.f=fA
      2      H    -1.67960787     0.01769330     1.42847770 adf.f=fA
      3      C    -0.09021660    -0.01171144    -0.37391976 adf.f=fB
      4      C    -0.37205535     0.03566337     1.05340111 adf.f=fB
      5     Cl     1.72777177     0.05526548    -0.87952080 adf.f=fB
      6      H    -0.44155315    -0.92536647    -0.84629788 adf.f=fB
      7      H     0.02342643    -0.88861176     1.50464223 adf.f=fB
      8      N    -0.75897770     1.10971097    -1.13073511 adf.f=fB
      9      O    -0.22056800     2.20366017    -1.21711241 adf.f=fB
     10      O    -1.87216912     0.82596571    -1.57739736 adf.f=fB
     11      N     0.05243580     1.27121210     1.68936015 adf.f=fB
     12      H     0.98644696     1.20578981     2.07594216 adf.f=fB
     13      H    -0.60786158     1.45289886     2.43407039 adf.f=fB

Total System Charge             -1.00000


----------------
ADF Engine Input
----------------
 
   Basis
     Type TZ2P
     Core None
   End
   XC
     GGA BLYP
     Dispersion GRIMME3 BJDAMP
   End
   Symmetry NOSYM
   NumericalQuality Normal
   Unrestricted No
   SCF
     Iterations 200
     Converge 1.0e-6
   End
   fragments
     fA c1_fragA_ts.results/adf.rkf
     fB c2_fragB_ts.results/adf.rkf
   end
   etsnocv
     enocv 0.05
     ekmin 0.5
   end
   print etslowdin
   Save TAPE21
 

 Title: *** (NO TITLE) ***

 *** adf ***



 ===========================
 A T T A C H E D   F I L E S
 ===========================
  



 ===============================
 M O D E L   P A R A M E T E R S
 ===============================
  
 DENSITY FUNCTIONAL POTENTIAL (scf)
    LDA:                               Exchange only                           == Not Default ==
    Gradient Corrections:              Becke88 LYP                             == Not Default ==

 SPIN  (restricted / unrestr.)
    Molecule:                          Restricted                               
    Fragments:                         Restricted                               

 OTHER ASPECTS
    Relativistic Corrections:          scalar (ZORA,MAPA)                       

    Nuclear Charge Density Model:      Point Charge Nuclei                      
    Core Treatment:                    Frozen Orbital(s)                        

    Hyperfine or Zeeman Interaction:   ---                                      

 Settings for Grimme D3 dispersion correction

      damping                        BJ
      s6                          1.000
      s8                          2.700
      a1                          0.430
      a2                          4.236

 Other (technical) parameters

      alpha                      14.000
      version                         4
 


 Fragment File(s)
 ----------------
 fA:
         file : c1_fragA_ts.results/adf.rkf
         jobid: 1720271847
         title: *** adf ***
 fB:
         file : c2_fragB_ts.results/adf.rkf
         jobid: 1582391681
         title: *** adf ***



 ===============
 G E O M E T R Y  ***  3D  Molecule  ***
 ===============
  

 ATOMS
 =====                            X Y Z                    CHARGE
                                (Angstrom)             Nucl     +Core       At.Mass
                       --------------------------    ----------------       -------
    1  F              -2.6054    0.1695    2.1470      9.00      9.00       18.9984
    2  H              -1.6796    0.0177    1.4285      1.00      1.00        1.0078
    3  C              -0.0902   -0.0117   -0.3739      6.00      6.00       12.0000
    4  C              -0.3721    0.0357    1.0534      6.00      6.00       12.0000
    5  Cl              1.7278    0.0553   -0.8795     17.00     17.00       34.9689
    6  H              -0.4416   -0.9254   -0.8463      1.00      1.00        1.0078
    7  H               0.0234   -0.8886    1.5046      1.00      1.00        1.0078
    8  N              -0.7590    1.1097   -1.1307      7.00      7.00       14.0031
    9  O              -0.2206    2.2037   -1.2171      8.00      8.00       15.9949
   10  O              -1.8722    0.8260   -1.5774      8.00      8.00       15.9949
   11  N               0.0524    1.2712    1.6894      7.00      7.00       14.0031
   12  H               0.9864    1.2058    2.0759      1.00      1.00        1.0078
   13  H              -0.6079    1.4529    2.4341      1.00      1.00        1.0078


 FRAGMENTS
 =========                                     Atoms in this Fragment     Cart. coord.s (Angstrom)
                                               -------------------------------------------------------
    1  fA                                                1  F           -2.6054    0.1695    2.1470
                                                         2  H           -1.6796    0.0177    1.4285
    2  fB                                                3  C           -0.0902   -0.0117   -0.3739
                                                         4  C           -0.3721    0.0357    1.0534
                                                         5  Cl           1.7278    0.0553   -0.8795
                                                         6  H           -0.4416   -0.9254   -0.8463
                                                         7  H            0.0234   -0.8886    1.5046
                                                        12  H            0.9864    1.2058    2.0759
                                                        13  H           -0.6079    1.4529    2.4341
                                                         8  N           -0.7590    1.1097   -1.1307
                                                        11  N            0.0524    1.2712    1.6894
                                                         9  O           -0.2206    2.2037   -1.2171
                                                        10  O           -1.8722    0.8260   -1.5774


 Interatomic Distance Matrix (Angstrom)
 --------------------------------------

   1)     0.000
   2)     1.182   0.000
   3)     3.566   2.403   0.000
   4)     2.490   1.360   1.456   0.000
   5)     5.287   4.116   1.888   2.854   0.000
   6)     3.852   2.756   1.087   2.130   2.381   0.000
   7)     2.906   1.931   2.076   1.102   3.079   2.397   0.000
   8)     3.878   2.931   1.509   2.464   2.713   2.079   3.399   0.000
   9)     4.598   3.729   2.374   3.143   2.920   3.159   4.127   1.222   0.000
  10)     3.852   3.119   2.308   3.130   3.747   2.377   4.004   1.233   2.181   0.000
  11)     2.913   2.154   2.434   1.453   3.299   3.391   2.168   2.939   3.065   3.818
          0.000
  12)     3.739   2.990   2.940   2.064   3.257   3.889   2.375   3.652   3.646   4.654
          1.013   0.000
  13)     2.392   2.054   3.209   1.993   4.288   4.055   2.597   3.584   3.748   4.252
          1.012   1.653   0.000

 Min. Distance =    1.0117
 Max. Distance =    5.2866



 =====================================
 S Y M M E T R Y ,   E L E C T R O N S
 =====================================
  
 Symmetry: NOSYM

 Irreducible Representations, including subspecies
 -------------------------------------------------
 A


 Configuration of Valence Electrons
 ==================================
 ( determined in the SCF procedure )

 Total:   74

 Net Charge: -1 (Nuclei minus Electrons)

 Aufbau principle for MO occupations will be applied through SCF cycle no.     100
 Thereafter, the program will assign electrons to MOs that are spatially
 similar to the occupied MOs in a "reference" cycle ("KeepOrbitals").
 The reference cycle is always the PREVIOUS cycle: it will evolve with
 the SCF procedure.
 ***************************************************************************************************



                                      ****************************************
                                      *  B U I L D : (Fragments, Functions)  *
                                      ****************************************
  

 The individual fragments are copies of the corresponding 'Master' fragments defined on the fragment files.
 However, they may have been rotated (and translated) with respect to the Master. The local coordinate axes
 of each fragment (which define for instance the spatial orientation in the current molecule of a fragment
 P:x orbital) are not necessarily those of the molecule.
 The local frame (if different from the molecular one) is printed to enable an interpretation of the expan-
 sion of an MO in Fragment Orbitals.



                                              ************************
                                              *  Fragment Type : fA  *
                                              ************************
  

 Fragment no.    1   (in the list of all fragments)
 -----------------
 The local coordinate frame is identical to the molecular frame.

 Check Atomic Coordinates:

                  Master (on file)          After Computed Tranformation               As specified on Input
           ----------------------------     ----------------------------     ---------------------------------
     1)    -2.60535   0.16954   2.14697     -2.60535   0.16954   2.14697       1  -2.60535   0.16954   2.14697
     2)    -1.67961   0.01769   1.42848     -1.67961   0.01769   1.42848       2  -1.67961   0.01769   1.42848



                                              ************************
                                              *  Fragment Type : fB  *
                                              ************************
  

 Fragment no.    2   (in the list of all fragments)
 -----------------
 The local coordinate frame is identical to the molecular frame.

 Check Atomic Coordinates:

                  Master (on file)          After Computed Tranformation               As specified on Input
           ----------------------------     ----------------------------     ---------------------------------
     1)    -0.09022  -0.01171  -0.37392     -0.09022  -0.01171  -0.37392       3  -0.09022  -0.01171  -0.37392
     2)    -0.37206   0.03566   1.05340     -0.37206   0.03566   1.05340       4  -0.37206   0.03566   1.05340
     3)     1.72777   0.05527  -0.87952      1.72777   0.05527  -0.87952       5   1.72777   0.05527  -0.87952
     4)    -0.44155  -0.92537  -0.84630     -0.44155  -0.92537  -0.84630       6  -0.44155  -0.92537  -0.84630
     5)     0.02343  -0.88861   1.50464      0.02343  -0.88861   1.50464       7   0.02343  -0.88861   1.50464
     6)     0.98645   1.20579   2.07594      0.98645   1.20579   2.07594      12   0.98645   1.20579   2.07594
     7)    -0.60786   1.45290   2.43407     -0.60786   1.45290   2.43407      13  -0.60786   1.45290   2.43407
     8)    -0.75898   1.10971  -1.13074     -0.75898   1.10971  -1.13074       8  -0.75898   1.10971  -1.13074
     9)     0.05244   1.27121   1.68936      0.05244   1.27121   1.68936      11   0.05244   1.27121   1.68936
    10)    -0.22057   2.20366  -1.21711     -0.22057   2.20366  -1.21711       9  -0.22057   2.20366  -1.21711
    11)    -1.87217   0.82597  -1.57740     -1.87217   0.82597  -1.57740      10  -1.87217   0.82597  -1.57740



 =======
 S F O s  ***  (Symmetrized Fragment Orbitals)  ***
 =======
  
 SFOs are linear combinations of (valence) Fragment Orbitals (FOs), such that the SFOs transform as the
 irreducible representations of the (molecular) symmetry group. Each SFO is therefore characterized by
 an irrep of the molecule and by a few (or only one) generating FOs.
 The SFOs constitute a symmetry-adapted basis for the Fock matrix. The MO eigenvector coefficients in
 this basis provide a direct interpretation of the MOs in terms of Frontier Orbital Theory.

 The SFOs are combined with auxiliary Core Functions (CFs) to ensure orthogonalization on the (frozen)
 Core Orbitals (COs). The Core-orthogonalized SFOs (CSFOs) constitute the true Fock basis.

 The FOs, and hence also the (C)SFOs are combinations of the elementary basis functions (BAS). The basis
 functions that participate in the description of the SFOs depend on the irrep. The indices of the
 involved functions are printed below for each irrep.
 (The complete list of primitive basis functions is printed in another section)

 Total nr. of (C)SFOs (summation over all irreps) :   271

 NOTE: a (C)SFO that is defined as a combination of more than one FO is usually NOT normalized.



                                       === A ===
 Nr. of SFOs :  271
 Cartesian basis functions that participate in this irrep (total number =   308) :
      1     2     3     4     5     6     9    12     7    10
     13     8    11    14    15    16    17    18    19    20
     21    22    23    24    25    26    27    28    29    30
     31    32    33    34    35    36    37    38    39    40
     41    42    43    44    45    46    47    48    51    54
     49    52    55    50    53    56    57    58    59    60
     61    62    63    64    65    66    67    68    69    70
     71    72    73    74    75    76    77    78    81    84
     79    82    85    80    83    86    87    88    89    90
     91    92    93    94    95    96    97    98    99   100
    101   102   103   104   105   106   113   114   115   107
    110   116   119   122   108   111   117   120   123   109
    112   118   121   124   125   126   127   128   129   130
    131   132   133   134   135   136   137   138   139   140
    141   142   143   144   145   146   147   148   149   150
    151   152   153   154   155   156   157   158   159   160
    161   162   163   164   165   166   167   168   169   170
    171   172   173   174   175   176   177   178   179   180
    181   182   183   184   185   186   187   188   189   190
    191   192   193   194   197   200   195   198   201   196
    199   202   203   204   205   206   207   208   209   210
    211   212   213   214   215   216   217   218   219   220
    221   222   223   224   227   230   225   228   231   226
    229   232   233   234   235   236   237   238   239   240
    241   242   243   244   245   246   247   248   249   250
    251   252   253   254   257   260   255   258   261   256
    259   262   263   264   265   266   267   268   269   270
    271   272   273   274   275   276   277   278   279   280
    281   282   283   284   287   290   285   288   291   286
    289   292   293   294   295   296   297   298   299   300
    301   302   303   304   305   306   307   308

    SFO  (index         Fragment          Generating    Expansion in Fragment Orbitals
  indx  incl.CFs)   Occup   Orb.Energy   FragmentType  Coeff.   Orbital     on Fragment
 --------------------------------------------------------------------------------------
     1       1      2.000     -23.998 au  fA            1.00      1 A               1
                        (    -653.028 eV)
     2       2      2.000      -0.748 au  fA            1.00      2 A               1
                        (     -20.365 eV)
     3       3      2.000      -0.149 au  fA            1.00      3 A               1
                        (      -4.058 eV)
     4       4      2.000      -0.050 au  fA            1.00      4 A               1
                        (      -1.356 eV)
     5       5      2.000      -0.050 au  fA            1.00      5 A               1
                        (      -1.355 eV)
     6       6      1.000       0.152 au  fA            1.00      6 A               1
                        (       4.131 eV)
     7       7       --         0.253 au  fA            1.00      7 A               1
                        (       6.882 eV)
     8       8       --         0.356 au  fA            1.00      8 A               1
                        (       9.687 eV)
     9       9       --         0.644 au  fA            1.00      9 A               1
                        (      17.524 eV)
    10      10       --         0.644 au  fA            1.00     10 A               1
                        (      17.524 eV)
    11      11       --         0.881 au  fA            1.00     11 A               1
                        (      23.961 eV)
    12      12       --         0.881 au  fA            1.00     12 A               1
                        (      23.961 eV)
    13      13       --         0.888 au  fA            1.00     13 A               1
                        (      24.160 eV)
    14      14       --         1.182 au  fA            1.00     14 A               1
                        (      32.164 eV)
    15      15       --         1.364 au  fA            1.00     15 A               1
                        (      37.124 eV)
    16      16       --         1.422 au  fA            1.00     16 A               1
                        (      38.683 eV)
    17      17       --         1.422 au  fA            1.00     17 A               1
                        (      38.684 eV)
    18      18       --         1.740 au  fA            1.00     18 A               1
                        (      47.356 eV)
    19      19       --         1.740 au  fA            1.00     19 A               1
                        (      47.356 eV)
    20      20       --         2.123 au  fA            1.00     20 A               1
                        (      57.779 eV)
    21      21       --         2.841 au  fA            1.00     21 A               1
                        (      77.299 eV)
    22      22       --         2.841 au  fA            1.00     22 A               1
                        (      77.305 eV)
    23      23       --         3.167 au  fA            1.00     23 A               1
                        (      86.178 eV)
    24      24       --         3.378 au  fA            1.00     24 A               1
                        (      91.929 eV)
    25      25       --         3.378 au  fA            1.00     25 A               1
                        (      91.930 eV)
    26      26       --         3.757 au  fA            1.00     26 A               1
                        (     102.240 eV)
    27      27       --         3.757 au  fA            1.00     27 A               1
                        (     102.240 eV)
    28      28       --         4.173 au  fA            1.00     28 A               1
                        (     113.565 eV)
    29      29       --         4.174 au  fA            1.00     29 A               1
                        (     113.567 eV)
    30      30       --         4.226 au  fA            1.00     30 A               1
                        (     115.009 eV)
    31      31       --         4.433 au  fA            1.00     31 A               1
                        (     120.626 eV)
    32      32       --         4.868 au  fA            1.00     32 A               1
                        (     132.474 eV)
    33      33       --         4.869 au  fA            1.00     33 A               1
                        (     132.479 eV)
    34      34       --         5.425 au  fA            1.00     34 A               1
                        (     147.612 eV)
    35      35       --         5.425 au  fA            1.00     35 A               1
                        (     147.617 eV)
    36      36       --         6.248 au  fA            1.00     36 A               1
                        (     170.027 eV)
    37      37       --        52.462 au  fA            1.00     37 A               1
                        (    1427.561 eV)
    38      38      2.000    -101.097 au  fB            1.00      1 A               2
                        (   -2750.989 eV)
    39      39      2.000     -18.844 au  fB            1.00      2 A               2
                        (    -512.770 eV)
    40      40      2.000     -18.842 au  fB            1.00      3 A               2
                        (    -512.706 eV)
    41      41      2.000     -14.255 au  fB            1.00      4 A               2
                        (    -387.909 eV)
    42      42      2.000     -14.044 au  fB            1.00      5 A               2
                        (    -382.160 eV)
    43      43      2.000     -10.046 au  fB            1.00      6 A               2
                        (    -273.354 eV)
    44      44      2.000     -10.015 au  fB            1.00      7 A               2
                        (    -272.533 eV)
    45      45      2.000      -9.250 au  fB            1.00      8 A               2
                        (    -251.713 eV)
    46      46      2.000      -7.018 au  fB            1.00      9 A               2
                        (    -190.973 eV)
    47      47      2.000      -7.007 au  fB            1.00     10 A               2
                        (    -190.677 eV)
    48      48      2.000      -7.006 au  fB            1.00     11 A               2
                        (    -190.655 eV)
    49      49      2.000      -1.142 au  fB            1.00     12 A               2
                        (     -31.083 eV)
    50      50      2.000      -0.981 au  fB            1.00     13 A               2
                        (     -26.682 eV)
    51      51      2.000      -0.856 au  fB            1.00     14 A               2
                        (     -23.284 eV)
    52      52      2.000      -0.802 au  fB            1.00     15 A               2
                        (     -21.819 eV)
    53      53      2.000      -0.722 au  fB            1.00     16 A               2
                        (     -19.646 eV)
    54      54      2.000      -0.638 au  fB            1.00     17 A               2
                        (     -17.360 eV)
    55      55      2.000      -0.540 au  fB            1.00     18 A               2
                        (     -14.687 eV)
    56      56      2.000      -0.510 au  fB            1.00     19 A               2
                        (     -13.870 eV)
    57      57      2.000      -0.487 au  fB            1.00     20 A               2
                        (     -13.253 eV)
    58      58      2.000      -0.480 au  fB            1.00     21 A               2
                        (     -13.068 eV)
    59      59      2.000      -0.467 au  fB            1.00     22 A               2
                        (     -12.695 eV)
    60      60      2.000      -0.441 au  fB            1.00     23 A               2
                        (     -12.012 eV)
    61      61      2.000      -0.407 au  fB            1.00     24 A               2
                        (     -11.086 eV)
    62      62      2.000      -0.397 au  fB            1.00     25 A               2
                        (     -10.790 eV)
    63      63      2.000      -0.304 au  fB            1.00     26 A               2
                        (      -8.280 eV)
    64      64      2.000      -0.290 au  fB            1.00     27 A               2
                        (      -7.896 eV)
    65      65      2.000      -0.284 au  fB            1.00     28 A               2
                        (      -7.740 eV)
    66      66      2.000      -0.277 au  fB            1.00     29 A               2
                        (      -7.534 eV)
    67      67      2.000      -0.256 au  fB            1.00     30 A               2
                        (      -6.980 eV)
    68      68      2.000      -0.240 au  fB            1.00     31 A               2
                        (      -6.526 eV)
    69      69      1.000      -0.221 au  fB            1.00     32 A               2
                        (      -6.002 eV)
    70      70       --        -0.122 au  fB            1.00     33 A               2
                        (      -3.331 eV)
    71      71       --        -0.050 au  fB            1.00     34 A               2
                        (      -1.355 eV)
    72      72       --        -0.029 au  fB            1.00     35 A               2
                        (      -0.801 eV)
    73      73       --         0.003 au  fB            1.00     36 A               2
                        (       0.093 eV)
    74      74       --         0.021 au  fB            1.00     37 A               2
                        (       0.581 eV)
    75      75       --         0.033 au  fB            1.00     38 A               2
                        (       0.907 eV)
    76      76       --         0.054 au  fB            1.00     39 A               2
                        (       1.481 eV)
    77      77       --         0.110 au  fB            1.00     40 A               2
                        (       2.989 eV)
    78      78       --         0.125 au  fB            1.00     41 A               2
                        (       3.414 eV)
    79      79       --         0.143 au  fB            1.00     42 A               2
                        (       3.885 eV)
    80      80       --         0.164 au  fB            1.00     43 A               2
                        (       4.468 eV)
    81      81       --         0.173 au  fB            1.00     44 A               2
                        (       4.720 eV)
    82      82       --         0.186 au  fB            1.00     45 A               2
                        (       5.064 eV)
    83      83       --         0.198 au  fB            1.00     46 A               2
                        (       5.398 eV)
    84      84       --         0.221 au  fB            1.00     47 A               2
                        (       6.018 eV)
    85      85       --         0.228 au  fB            1.00     48 A               2
                        (       6.209 eV)
    86      86       --         0.249 au  fB            1.00     49 A               2
                        (       6.784 eV)
    87      87       --         0.259 au  fB            1.00     50 A               2
                        (       7.041 eV)
    88      88       --         0.269 au  fB            1.00     51 A               2
                        (       7.319 eV)
    89      89       --         0.278 au  fB            1.00     52 A               2
                        (       7.562 eV)
    90      90       --         0.283 au  fB            1.00     53 A               2
                        (       7.691 eV)
    91      91       --         0.311 au  fB            1.00     54 A               2
                        (       8.464 eV)
    92      92       --         0.316 au  fB            1.00     55 A               2
                        (       8.612 eV)
    93      93       --         0.336 au  fB            1.00     56 A               2
                        (       9.149 eV)
    94      94       --         0.349 au  fB            1.00     57 A               2
                        (       9.500 eV)
    95      95       --         0.364 au  fB            1.00     58 A               2
                        (       9.916 eV)
    96      96       --         0.370 au  fB            1.00     59 A               2
                        (      10.058 eV)
    97      97       --         0.389 au  fB            1.00     60 A               2
                        (      10.575 eV)
    98      98       --         0.408 au  fB            1.00     61 A               2
                        (      11.111 eV)
    99      99       --         0.420 au  fB            1.00     62 A               2
                        (      11.426 eV)
   100     100       --         0.440 au  fB            1.00     63 A               2
                        (      11.960 eV)
   101     101       --         0.446 au  fB            1.00     64 A               2
                        (      12.143 eV)
   102     102       --         0.470 au  fB            1.00     65 A               2
                        (      12.781 eV)
   103     103       --         0.496 au  fB            1.00     66 A               2
                        (      13.505 eV)
   104     104       --         0.500 au  fB            1.00     67 A               2
                        (      13.617 eV)
   105     105       --         0.525 au  fB            1.00     68 A               2
                        (      14.295 eV)
   106     106       --         0.542 au  fB            1.00     69 A               2
                        (      14.753 eV)
   107     107       --         0.585 au  fB            1.00     70 A               2
                        (      15.932 eV)
   108     108       --         0.635 au  fB            1.00     71 A               2
                        (      17.291 eV)
   109     109       --         0.643 au  fB            1.00     72 A               2
                        (      17.499 eV)
   110     110       --         0.683 au  fB            1.00     73 A               2
                        (      18.590 eV)
   111     111       --         0.705 au  fB            1.00     74 A               2
                        (      19.177 eV)
   112     112       --         0.713 au  fB            1.00     75 A               2
                        (      19.406 eV)
   113     113       --         0.756 au  fB            1.00     76 A               2
                        (      20.581 eV)
   114     114       --         0.807 au  fB            1.00     77 A               2
                        (      21.960 eV)
   115     115       --         0.827 au  fB            1.00     78 A               2
                        (      22.501 eV)
   116     116       --         0.895 au  fB            1.00     79 A               2
                        (      24.368 eV)
   117     117       --         0.926 au  fB            1.00     80 A               2
                        (      25.189 eV)
   118     118       --         0.948 au  fB            1.00     81 A               2
                        (      25.806 eV)
   119     119       --         0.974 au  fB            1.00     82 A               2
                        (      26.503 eV)
   120     120       --         0.998 au  fB            1.00     83 A               2
                        (      27.144 eV)
   121     121       --         1.016 au  fB            1.00     84 A               2
                        (      27.642 eV)
   122     122       --         1.044 au  fB            1.00     85 A               2
                        (      28.400 eV)
   123     123       --         1.097 au  fB            1.00     86 A               2
                        (      29.848 eV)
   124     124       --         1.101 au  fB            1.00     87 A               2
                        (      29.970 eV)
   125     125       --         1.136 au  fB            1.00     88 A               2
                        (      30.913 eV)
   126     126       --         1.142 au  fB            1.00     89 A               2
                        (      31.077 eV)
   127     127       --         1.173 au  fB            1.00     90 A               2
                        (      31.907 eV)
   128     128       --         1.212 au  fB            1.00     91 A               2
                        (      32.989 eV)
   129     129       --         1.220 au  fB            1.00     92 A               2
                        (      33.205 eV)
   130     130       --         1.222 au  fB            1.00     93 A               2
                        (      33.243 eV)
   131     131       --         1.246 au  fB            1.00     94 A               2
                        (      33.903 eV)
   132     132       --         1.270 au  fB            1.00     95 A               2
                        (      34.571 eV)
   133     133       --         1.273 au  fB            1.00     96 A               2
                        (      34.647 eV)
   134     134       --         1.302 au  fB            1.00     97 A               2
                        (      35.422 eV)
   135     135       --         1.315 au  fB            1.00     98 A               2
                        (      35.772 eV)
   136     136       --         1.322 au  fB            1.00     99 A               2
                        (      35.971 eV)
   137     137       --         1.353 au  fB            1.00    100 A               2
                        (      36.822 eV)
   138     138       --         1.375 au  fB            1.00    101 A               2
                        (      37.428 eV)
   139     139       --         1.396 au  fB            1.00    102 A               2
                        (      37.981 eV)
   140     140       --         1.438 au  fB            1.00    103 A               2
                        (      39.140 eV)
   141     141       --         1.474 au  fB            1.00    104 A               2
                        (      40.107 eV)
   142     142       --         1.515 au  fB            1.00    105 A               2
                        (      41.221 eV)
   143     143       --         1.543 au  fB            1.00    106 A               2
                        (      41.990 eV)
   144     144       --         1.571 au  fB            1.00    107 A               2
                        (      42.761 eV)
   145     145       --         1.583 au  fB            1.00    108 A               2
                        (      43.082 eV)
   146     146       --         1.664 au  fB            1.00    109 A               2
                        (      45.281 eV)
   147     147       --         1.696 au  fB            1.00    110 A               2
                        (      46.150 eV)
   148     148       --         1.725 au  fB            1.00    111 A               2
                        (      46.942 eV)
   149     149       --         1.804 au  fB            1.00    112 A               2
                        (      49.103 eV)
   150     150       --         1.841 au  fB            1.00    113 A               2
                        (      50.100 eV)
   151     151       --         1.850 au  fB            1.00    114 A               2
                        (      50.337 eV)
   152     152       --         1.878 au  fB            1.00    115 A               2
                        (      51.100 eV)
   153     153       --         1.916 au  fB            1.00    116 A               2
                        (      52.124 eV)
   154     154       --         1.947 au  fB            1.00    117 A               2
                        (      52.978 eV)
   155     155       --         1.998 au  fB            1.00    118 A               2
                        (      54.367 eV)
   156     156       --         2.009 au  fB            1.00    119 A               2
                        (      54.665 eV)
   157     157       --         2.051 au  fB            1.00    120 A               2
                        (      55.803 eV)
   158     158       --         2.079 au  fB            1.00    121 A               2
                        (      56.576 eV)
   159     159       --         2.114 au  fB            1.00    122 A               2
                        (      57.514 eV)
   160     160       --         2.154 au  fB            1.00    123 A               2
                        (      58.623 eV)
   161     161       --         2.187 au  fB            1.00    124 A               2
                        (      59.518 eV)
   162     162       --         2.229 au  fB            1.00    125 A               2
                        (      60.661 eV)
   163     163       --         2.271 au  fB            1.00    126 A               2
                        (      61.810 eV)
   164     164       --         2.310 au  fB            1.00    127 A               2
                        (      62.868 eV)
   165     165       --         2.327 au  fB            1.00    128 A               2
                        (      63.329 eV)
   166     166       --         2.360 au  fB            1.00    129 A               2
                        (      64.223 eV)
   167     167       --         2.400 au  fB            1.00    130 A               2
                        (      65.313 eV)
   168     168       --         2.442 au  fB            1.00    131 A               2
                        (      66.460 eV)
   169     169       --         2.483 au  fB            1.00    132 A               2
                        (      67.555 eV)
   170     170       --         2.525 au  fB            1.00    133 A               2
                        (      68.716 eV)
   171     171       --         2.596 au  fB            1.00    134 A               2
                        (      70.644 eV)
   172     172       --         2.620 au  fB            1.00    135 A               2
                        (      71.281 eV)
   173     173       --         2.640 au  fB            1.00    136 A               2
                        (      71.836 eV)
   174     174       --         2.753 au  fB            1.00    137 A               2
                        (      74.907 eV)
   175     175       --         2.760 au  fB            1.00    138 A               2
                        (      75.112 eV)
   176     176       --         2.818 au  fB            1.00    139 A               2
                        (      76.676 eV)
   177     177       --         2.855 au  fB            1.00    140 A               2
                        (      77.697 eV)
   178     178       --         2.885 au  fB            1.00    141 A               2
                        (      78.506 eV)
   179     179       --         2.925 au  fB            1.00    142 A               2
                        (      79.584 eV)
   180     180       --         2.950 au  fB            1.00    143 A               2
                        (      80.279 eV)
   181     181       --         3.030 au  fB            1.00    144 A               2
                        (      82.460 eV)
   182     182       --         3.043 au  fB            1.00    145 A               2
                        (      82.794 eV)
   183     183       --         3.058 au  fB            1.00    146 A               2
                        (      83.213 eV)
   184     184       --         3.161 au  fB            1.00    147 A               2
                        (      86.021 eV)
   185     185       --         3.229 au  fB            1.00    148 A               2
                        (      87.858 eV)
   186     186       --         3.287 au  fB            1.00    149 A               2
                        (      89.441 eV)
   187     187       --         3.351 au  fB            1.00    150 A               2
                        (      91.176 eV)
   188     188       --         3.379 au  fB            1.00    151 A               2
                        (      91.953 eV)
   189     189       --         3.387 au  fB            1.00    152 A               2
                        (      92.164 eV)
   190     190       --         3.406 au  fB            1.00    153 A               2
                        (      92.680 eV)
   191     191       --         3.463 au  fB            1.00    154 A               2
                        (      94.245 eV)
   192     192       --         3.477 au  fB            1.00    155 A               2
                        (      94.610 eV)
   193     193       --         3.510 au  fB            1.00    156 A               2
                        (      95.522 eV)
   194     194       --         3.523 au  fB            1.00    157 A               2
                        (      95.859 eV)
   195     195       --         3.534 au  fB            1.00    158 A               2
                        (      96.170 eV)
   196     196       --         3.574 au  fB            1.00    159 A               2
                        (      97.253 eV)
   197     197       --         3.601 au  fB            1.00    160 A               2
                        (      97.980 eV)
   198     198       --         3.667 au  fB            1.00    161 A               2
                        (      99.789 eV)
   199     199       --         3.681 au  fB            1.00    162 A               2
                        (     100.166 eV)
   200     200       --         3.740 au  fB            1.00    163 A               2
                        (     101.770 eV)
   201     201       --         3.762 au  fB            1.00    164 A               2
                        (     102.366 eV)
   202     202       --         3.819 au  fB            1.00    165 A               2
                        (     103.930 eV)
   203     203       --         3.902 au  fB            1.00    166 A               2
                        (     106.185 eV)
   204     204       --         3.944 au  fB            1.00    167 A               2
                        (     107.335 eV)
   205     205       --         3.974 au  fB            1.00    168 A               2
                        (     108.148 eV)
   206     206       --         4.031 au  fB            1.00    169 A               2
                        (     109.680 eV)
   207     207       --         4.046 au  fB            1.00    170 A               2
                        (     110.102 eV)
   208     208       --         4.074 au  fB            1.00    171 A               2
                        (     110.859 eV)
   209     209       --         4.114 au  fB            1.00    172 A               2
                        (     111.955 eV)
   210     210       --         4.151 au  fB            1.00    173 A               2
                        (     112.967 eV)
   211     211       --         4.220 au  fB            1.00    174 A               2
                        (     114.822 eV)
   212     212       --         4.278 au  fB            1.00    175 A               2
                        (     116.413 eV)
   213     213       --         4.307 au  fB            1.00    176 A               2
                        (     117.198 eV)
   214     214       --         4.353 au  fB            1.00    177 A               2
                        (     118.438 eV)
   215     215       --         4.394 au  fB            1.00    178 A               2
                        (     119.572 eV)
   216     216       --         4.410 au  fB            1.00    179 A               2
                        (     119.989 eV)
   217     217       --         4.510 au  fB            1.00    180 A               2
                        (     122.737 eV)
   218     218       --         4.545 au  fB            1.00    181 A               2
                        (     123.675 eV)
   219     219       --         4.604 au  fB            1.00    182 A               2
                        (     125.290 eV)
   220     220       --         4.619 au  fB            1.00    183 A               2
                        (     125.692 eV)
   221     221       --         4.742 au  fB            1.00    184 A               2
                        (     129.046 eV)
   222     222       --         4.786 au  fB            1.00    185 A               2
                        (     130.236 eV)
   223     223       --         4.846 au  fB            1.00    186 A               2
                        (     131.869 eV)
   224     224       --         4.915 au  fB            1.00    187 A               2
                        (     133.746 eV)
   225     225       --         4.920 au  fB            1.00    188 A               2
                        (     133.875 eV)
   226     226       --         5.014 au  fB            1.00    189 A               2
                        (     136.446 eV)
   227     227       --         5.075 au  fB            1.00    190 A               2
                        (     138.095 eV)
   228     228       --         5.133 au  fB            1.00    191 A               2
                        (     139.674 eV)
   229     229       --         5.192 au  fB            1.00    192 A               2
                        (     141.291 eV)
   230     230       --         5.357 au  fB            1.00    193 A               2
                        (     145.766 eV)
   231     231       --         5.379 au  fB            1.00    194 A               2
                        (     146.378 eV)
   232     232       --         5.417 au  fB            1.00    195 A               2
                        (     147.408 eV)
   233     233       --         5.642 au  fB            1.00    196 A               2
                        (     153.519 eV)
   234     234       --         5.726 au  fB            1.00    197 A               2
                        (     155.799 eV)
   235     235       --         5.841 au  fB            1.00    198 A               2
                        (     158.939 eV)
   236     236       --         5.972 au  fB            1.00    199 A               2
                        (     162.509 eV)
   237     237       --         6.020 au  fB            1.00    200 A               2
                        (     163.810 eV)
   238     238       --         6.078 au  fB            1.00    201 A               2
                        (     165.401 eV)
   239     239       --         6.160 au  fB            1.00    202 A               2
                        (     167.633 eV)
   240     240       --         6.292 au  fB            1.00    203 A               2
                        (     171.205 eV)
   241     241       --         6.428 au  fB            1.00    204 A               2
                        (     174.905 eV)
   242     242       --         6.452 au  fB            1.00    205 A               2
                        (     175.563 eV)
   243     243       --         6.526 au  fB            1.00    206 A               2
                        (     177.582 eV)
   244     244       --         6.584 au  fB            1.00    207 A               2
                        (     179.167 eV)
   245     245       --         6.638 au  fB            1.00    208 A               2
                        (     180.620 eV)
   246     246       --         6.676 au  fB            1.00    209 A               2
                        (     181.671 eV)
   247     247       --         6.780 au  fB            1.00    210 A               2
                        (     184.486 eV)
   248     248       --         6.916 au  fB            1.00    211 A               2
                        (     188.191 eV)
   249     249       --         6.987 au  fB            1.00    212 A               2
                        (     190.128 eV)
   250     250       --         7.134 au  fB            1.00    213 A               2
                        (     194.114 eV)
   251     251       --         7.427 au  fB            1.00    214 A               2
                        (     202.107 eV)
   252     252       --         7.598 au  fB            1.00    215 A               2
                        (     206.748 eV)
   253     253       --         8.045 au  fB            1.00    216 A               2
                        (     218.927 eV)
   254     254       --         8.626 au  fB            1.00    217 A               2
                        (     234.718 eV)
   255     255       --         9.039 au  fB            1.00    218 A               2
                        (     245.963 eV)
   256     256       --         9.318 au  fB            1.00    219 A               2
                        (     253.562 eV)
   257     257       --         9.501 au  fB            1.00    220 A               2
                        (     258.530 eV)
   258     258       --        10.501 au  fB            1.00    221 A               2
                        (     285.737 eV)
   259     259       --        13.879 au  fB            1.00    222 A               2
                        (     377.674 eV)
   260     260       --        15.607 au  fB            1.00    223 A               2
                        (     424.685 eV)
   261     261       --        15.872 au  fB            1.00    224 A               2
                        (     431.895 eV)
   262     262       --        18.978 au  fB            1.00    225 A               2
                        (     516.430 eV)
   263     263       --        19.029 au  fB            1.00    226 A               2
                        (     517.804 eV)
   264     264       --        19.691 au  fB            1.00    227 A               2
                        (     535.817 eV)
   265     265       --        54.916 au  fB            1.00    228 A               2
                        (    1494.352 eV)
   266     266       --        58.185 au  fB            1.00    229 A               2
                        (    1583.297 eV)
   267     267       --        70.841 au  fB            1.00    230 A               2
                        (    1927.692 eV)
   268     268       --        71.547 au  fB            1.00    231 A               2
                        (    1946.895 eV)
   269     269       --       127.699 au  fB            1.00    232 A               2
                        (    3474.867 eV)
   270     270       --       128.531 au  fB            1.00    233 A               2
                        (    3497.502 eV)
   271     271       --       209.750 au  fB            1.00    234 A               2
                        (    5707.583 eV)



 ================================
 (Slater-type)  F U N C T I O N S  ***  (Basis and Fit)  ***
 ================================
  

 Atom Type    1  (F)
 ==============

 Valence Basis Sets:  10
 -----------------------
   1 S   10.880000
   1 S    7.700000
   2 S    3.240000
   2 S    1.940000
   2 S    0.740000
   2 P    4.540000
   2 P    2.300000
   2 P    1.240000
   3 D    2.000000
   4 F    3.000000

 Atom Type    2  (H)
 ==============

 Valence Basis Sets:   5
 -----------------------
   1 S    0.690000
   1 S    0.920000
   1 S    1.580000
   2 P    1.250000
   3 D    2.500000

 Atom Type    3  (C)
 ==============

 Valence Basis Sets:  10
 -----------------------
   1 S    7.680000
   1 S    5.000000
   2 S    1.280000
   2 S    2.100000
   2 S    4.600000
   2 P    0.820000
   2 P    1.480000
   2 P    2.940000
   3 D    2.200000
   4 F    3.300000

 Atom Type    4  (Cl)
 ==============

 Valence Basis Sets:  14
 -----------------------
   1 S   20.300000
   1 S   15.250000
   2 S    6.250000
   2 S    4.450000
   2 P    8.850000
   2 P    5.050000
   3 S    3.450000
   3 S    2.300000
   3 S    1.600000
   3 P    3.350000
   3 P    2.050000
   3 P    1.200000
   3 D    2.000000
   4 F    2.000000

 Atom Type    5  (H)
 ==============

 Valence Basis Sets:   5
 -----------------------
   1 S    0.690000
   1 S    0.920000
   1 S    1.580000
   2 P    1.250000
   3 D    2.500000

 Atom Type    6  (N)
 ==============

 Valence Basis Sets:  10
 -----------------------
   1 S    8.740000
   1 S    5.900000
   2 S    5.150000
   2 S    2.500000
   2 S    1.500000
   2 P    3.680000
   2 P    1.880000
   2 P    1.000000
   3 D    2.200000
   4 F    3.300000

 Atom Type    7  (O)
 ==============

 Valence Basis Sets:  10
 -----------------------
   1 S    9.800000
   1 S    6.800000
   2 S    7.580000
   2 S    2.880000
   2 S    1.720000
   2 P    4.080000
   2 P    2.080000
   2 P    1.120000
   3 D    2.000000
   4 F    3.000000


 BAS: List of all Elementary Cartesian Basis Functions
 =====================================================

 The numbering in the list below (to the right of the function characteristics) is referred
 to in print-outs of MO eigenvectors and Mulliken populations in the BAS representation
 (as contrasted to the SFO representation).

 Notes:
 1. The functions are characterized by a polynomial prefactor (powers of x,y,z and r) and
    an exponential decay factor alpha.
 2. Since the basis sets are specific for an atom TYPE, the individual functions occur on
    all atoms of that type.
 3. The word 'Core' in the left margin signals that it is a Core Function (CF) : not a
    degree of freedom in the valence set, but only used to ensure orthogonalization of
    the other valence basis functions on the frozen Core Orbitals.


 (power of) X  Y  Z  R     Alpha  on Atom
            ==========     =====     ==========

 F                                    1
                                  ---------------------------------------------------------------------------
            0  0  0  0    10.880      1
            0  0  0  0     7.700      2
            0  0  0  1     3.240      3
            0  0  0  1     1.940      4
            0  0  0  1     0.740      5
            1  0  0  0     4.540      6
            0  1  0  0     4.540      7
            0  0  1  0     4.540      8
            1  0  0  0     2.300      9
            0  1  0  0     2.300     10
            0  0  1  0     2.300     11
            1  0  0  0     1.240     12
            0  1  0  0     1.240     13
            0  0  1  0     1.240     14
            2  0  0  0     2.000     15
            1  1  0  0     2.000     16
            1  0  1  0     2.000     17
            0  2  0  0     2.000     18
            0  1  1  0     2.000     19
            0  0  2  0     2.000     20
            3  0  0  0     3.000     21
            2  1  0  0     3.000     22
            2  0  1  0     3.000     23
            1  2  0  0     3.000     24
            1  1  1  0     3.000     25
            1  0  2  0     3.000     26
            0  3  0  0     3.000     27
            0  2  1  0     3.000     28
            0  1  2  0     3.000     29
            0  0  3  0     3.000     30

 H                                    2
                                  ---------------------------------------------------------------------------
            0  0  0  0     0.690     31
            0  0  0  0     0.920     32
            0  0  0  0     1.580     33
            1  0  0  0     1.250     34
            0  1  0  0     1.250     35
            0  0  1  0     1.250     36
            2  0  0  0     2.500     37
            1  1  0  0     2.500     38
            1  0  1  0     2.500     39
            0  2  0  0     2.500     40
            0  1  1  0     2.500     41
            0  0  2  0     2.500     42

 C                                    3    4
                                  ---------------------------------------------------------------------------
            0  0  0  0     7.680     43   73
            0  0  0  0     5.000     44   74
            0  0  0  1     1.280     45   75
            0  0  0  1     2.100     46   76
            0  0  0  1     4.600     47   77
            1  0  0  0     0.820     48   78
            0  1  0  0     0.820     49   79
            0  0  1  0     0.820     50   80
            1  0  0  0     1.480     51   81
            0  1  0  0     1.480     52   82
            0  0  1  0     1.480     53   83
            1  0  0  0     2.940     54   84
            0  1  0  0     2.940     55   85
            0  0  1  0     2.940     56   86
            2  0  0  0     2.200     57   87
            1  1  0  0     2.200     58   88
            1  0  1  0     2.200     59   89
            0  2  0  0     2.200     60   90
            0  1  1  0     2.200     61   91
            0  0  2  0     2.200     62   92
            3  0  0  0     3.300     63   93
            2  1  0  0     3.300     64   94
            2  0  1  0     3.300     65   95
            1  2  0  0     3.300     66   96
            1  1  1  0     3.300     67   97
            1  0  2  0     3.300     68   98
            0  3  0  0     3.300     69   99
            0  2  1  0     3.300     70  100
            0  1  2  0     3.300     71  101
            0  0  3  0     3.300     72  102

 Cl                                   5
                                  ---------------------------------------------------------------------------
            0  0  0  0    20.300    103
            0  0  0  0    15.250    104
            0  0  0  1     6.250    105
            0  0  0  1     4.450    106
            1  0  0  0     8.850    107
            0  1  0  0     8.850    108
            0  0  1  0     8.850    109
            1  0  0  0     5.050    110
            0  1  0  0     5.050    111
            0  0  1  0     5.050    112
            0  0  0  2     3.450    113
            0  0  0  2     2.300    114
            0  0  0  2     1.600    115
            1  0  0  1     3.350    116
            0  1  0  1     3.350    117
            0  0  1  1     3.350    118
            1  0  0  1     2.050    119
            0  1  0  1     2.050    120
            0  0  1  1     2.050    121
            1  0  0  1     1.200    122
            0  1  0  1     1.200    123
            0  0  1  1     1.200    124
            2  0  0  0     2.000    125
            1  1  0  0     2.000    126
            1  0  1  0     2.000    127
            0  2  0  0     2.000    128
            0  1  1  0     2.000    129
            0  0  2  0     2.000    130
            3  0  0  0     2.000    131
            2  1  0  0     2.000    132
            2  0  1  0     2.000    133
            1  2  0  0     2.000    134
            1  1  1  0     2.000    135
            1  0  2  0     2.000    136
            0  3  0  0     2.000    137
            0  2  1  0     2.000    138
            0  1  2  0     2.000    139
            0  0  3  0     2.000    140

 H                                    6    7    8    9
                                  ---------------------------------------------------------------------------
            0  0  0  0     0.690    141  153  165  177
            0  0  0  0     0.920    142  154  166  178
            0  0  0  0     1.580    143  155  167  179
            1  0  0  0     1.250    144  156  168  180
            0  1  0  0     1.250    145  157  169  181
            0  0  1  0     1.250    146  158  170  182
            2  0  0  0     2.500    147  159  171  183
            1  1  0  0     2.500    148  160  172  184
            1  0  1  0     2.500    149  161  173  185
            0  2  0  0     2.500    150  162  174  186
            0  1  1  0     2.500    151  163  175  187
            0  0  2  0     2.500    152  164  176  188

 N                                   10   11
                                  ---------------------------------------------------------------------------
            0  0  0  0     8.740    189  219
            0  0  0  0     5.900    190  220
            0  0  0  1     5.150    191  221
            0  0  0  1     2.500    192  222
            0  0  0  1     1.500    193  223
            1  0  0  0     3.680    194  224
            0  1  0  0     3.680    195  225
            0  0  1  0     3.680    196  226
            1  0  0  0     1.880    197  227
            0  1  0  0     1.880    198  228
            0  0  1  0     1.880    199  229
            1  0  0  0     1.000    200  230
            0  1  0  0     1.000    201  231
            0  0  1  0     1.000    202  232
            2  0  0  0     2.200    203  233
            1  1  0  0     2.200    204  234
            1  0  1  0     2.200    205  235
            0  2  0  0     2.200    206  236
            0  1  1  0     2.200    207  237
            0  0  2  0     2.200    208  238
            3  0  0  0     3.300    209  239
            2  1  0  0     3.300    210  240
            2  0  1  0     3.300    211  241
            1  2  0  0     3.300    212  242
            1  1  1  0     3.300    213  243
            1  0  2  0     3.300    214  244
            0  3  0  0     3.300    215  245
            0  2  1  0     3.300    216  246
            0  1  2  0     3.300    217  247
            0  0  3  0     3.300    218  248

 O                                   12   13
                                  ---------------------------------------------------------------------------
            0  0  0  0     9.800    249  279
            0  0  0  0     6.800    250  280
            0  0  0  1     7.580    251  281
            0  0  0  1     2.880    252  282
            0  0  0  1     1.720    253  283
            1  0  0  0     4.080    254  284
            0  1  0  0     4.080    255  285
            0  0  1  0     4.080    256  286
            1  0  0  0     2.080    257  287
            0  1  0  0     2.080    258  288
            0  0  1  0     2.080    259  289
            1  0  0  0     1.120    260  290
            0  1  0  0     1.120    261  291
            0  0  1  0     1.120    262  292
            2  0  0  0     2.000    263  293
            1  1  0  0     2.000    264  294
            1  0  1  0     2.000    265  295
            0  2  0  0     2.000    266  296
            0  1  1  0     2.000    267  297
            0  0  2  0     2.000    268  298
            3  0  0  0     3.000    269  299
            2  1  0  0     3.000    270  300
            2  0  1  0     3.000    271  301
            1  2  0  0     3.000    272  302
            1  1  1  0     3.000    273  303
            1  0  2  0     3.000    274  304
            0  3  0  0     3.000    275  305
            0  2  1  0     3.000    276  306
            0  1  2  0     3.000    277  307
            0  0  3  0     3.000    278  308

 Total number of charge fitting functions (nprimf)       945
 Total number of Cartesian basis functions (naos)        308
 Total number of Cartesian core functions  (ncos)          0

 ***************************************************************************************************



                                              ***********************
                                              *  T E C H N I C A L  *
                                              ***********************
  



 =============================================================
 P A R A L L E L I Z A T I O N  and  V E C T O R I Z A T I O N
 =============================================================
  
 Nr of parallel processes:                                1
 Maximum vector length in NumInt loops:                 128



 =====================
 S C F   U P D A T E S
 =====================
  
 Max. nr. of cycles:                               200
 Convergence criterion:                              0.0000010000
   secondary criterion:                              0.0010000000

 Mix parameter (when DIIS does not apply):           0.2000000000
 Mixed ADIIS+SDIIS will be used                  
    Max number of expansion vectors:                10
    Pure ADIIS when Max([F,P]) is above              0.1000000000
    Pure SDIIS when Max([F,P]) is below              0.0010000000
 Automatic ElectronSmearing (in case of problematic SCF convergence) disabled



 =================
 P R E C I S I O N  ***  (General: NumInt, NeglectFunctionTails, ...)  ***
 =================
  

 NumInt:           Target precision:                 4.0000000000
 -------           Initial precision:                4.0000000000
                   Min. precision (optimization):    4.0000000000

 Neglect Functions:          Basis functions:        0.1000000000E-05
 ------------------          Fit functions:          0.1000000000E-05



 ===========================
 L I N E A R   S C A L I N G
 ===========================
  

 Cut-off radii density fit:                        0.1000000000E-07
 Overlap cut-off criterion AO matrix elements:     0.1000000000E-05
 Cut-offs for Coulomb potential and fitted density:0.1000000000E-07
 Cut-off criterion for Coulomb multipole terms:    0.1000000000E-07
 Progressive Convergence parameter:                 0.000000000    
 ***************************************************************************************************



                                            ***************************
                                            *  C O M P U T A T I O N  *
                                            ***************************
  

 Number of elements of the density matrix on this node (used, total):     47586     47586



 ===========================================
 Numerical Integration : Fuzzy Cells (Becke)
 ===========================================
  
 Becke grid quality: NORMAL         
  
 Lebedev angular grid order:             min:  11 max:  23
 Nr. of radial points:                   min:  46 max:  67

 Total nr. of points:      87970
 Nr. of blocks:              688
 Block length:               128
 Nr. of dummy points:         94


 Test of Precision of the Numerical Integration Grid
 ===================================================

 Integral of the Total Core Density:                   0.00000000000000



 ========================
 Density Fitting (zlmFit)
 ========================
  
 ZlmFit Fit Quality: NORMAL         
  
 Max L-expansion:                        min:   6 max:   7
 Nr. of radial interpolation points:     min:  39 max:  60



 =====
 S C F  ***  ScaSCF  ***
 =====
  
 Initial density matrix is calculated as sum of fragments

 CYCLE    1
 SCF Error: norm([F,P])=      1.168278459362, max([F,P])=      0.696601025347
 orbitals (Q,E):
 ---------------
 A :28...47          ( 2.00    -0.1887)  ( 2.00    -0.1743)  ( 2.00    -0.1571)  ( 2.00    -0.1447)
                     ( 2.00    -0.1311)  ( 2.00    -0.1075)  ( 2.00    -0.0702)  ( 2.00    -0.0683)
                     ( 2.00    -0.0451)  ( 2.00    -0.0337)  ( 0.00     0.0314)  ( 0.00     0.0970)
                     ( 0.00     0.1157)  ( 0.00     0.1444)  ( 0.00     0.1804)  ( 0.00     0.1901)
                     ( 0.00     0.2237)  ( 0.00     0.2485)  ( 0.00     0.2511)  ( 0.00     0.2727)

 CYCLE    2
   MIX coefficients:  0.8000  0.2000
 SCF Error: norm([F,P])=      0.328192277091, max([F,P])=      0.066010514456
 orbitals (Q,E):
 ---------------
 A :28...38          ( 2.00    -0.1954)  ( 2.00    -0.1589)  ( 2.00    -0.1427)  ( 2.00    -0.1407)
                     ( 2.00    -0.1262)  ( 2.00    -0.1097)  ( 2.00    -0.0798)  ( 2.00    -0.0779)
                     ( 2.00    -0.0527)  ( 2.00    -0.0384)  ( 0.00     0.0288)

 CYCLE    3
  SDIIS (wt  0.000): -0.1900  1.1900
 A-DIIS (wt  1.000):  0.0000  1.0000
  DIIS coefficients:  0.0000  1.0000
 SCF Error: norm([F,P])=      0.138306025772, max([F,P])=      0.024103444691
 orbitals (Q,E):
 ---------------
 A :28...38          ( 2.00    -0.2013)  ( 2.00    -0.1445)  ( 2.00    -0.1309)  ( 2.00    -0.1177)
                     ( 2.00    -0.1010)  ( 2.00    -0.0975)  ( 2.00    -0.0962)  ( 2.00    -0.0953)
                     ( 2.00    -0.0665)  ( 2.00    -0.0362)  ( 0.00     0.0272)

 CYCLE    4
  SDIIS (wt  0.000): -0.0281  0.6857  0.3424
 A-DIIS (wt  1.000):  0.0000  0.7007  0.2993
  DIIS coefficients:  0.0000  0.7007  0.2993
 SCF Error: norm([F,P])=      0.244079831658, max([F,P])=      0.044698875857
 orbitals (Q,E):
 ---------------
 A :28...38          ( 2.00    -0.1963)  ( 2.00    -0.1462)  ( 2.00    -0.1339)  ( 2.00    -0.1210)
                     ( 2.00    -0.1155)  ( 2.00    -0.1045)  ( 2.00    -0.0930)  ( 2.00    -0.0913)
                     ( 2.00    -0.0561)  ( 2.00    -0.0310)  ( 0.00     0.0314)

 CYCLE    5
  SDIIS (wt  0.752):  0.0927  0.2089  0.2035  0.4949
 A-DIIS (wt  0.248):  0.0000  0.0000  0.0000  1.0000
  DIIS coefficients:  0.0697  0.1570  0.1529  0.6204
 SCF Error: norm([F,P])=      0.074975180199, max([F,P])=      0.025591590877
 orbitals (Q,E):
 ---------------
 A :28...38          ( 2.00    -0.1974)  ( 2.00    -0.1457)  ( 2.00    -0.1343)  ( 2.00    -0.1261)
                     ( 2.00    -0.1208)  ( 2.00    -0.1025)  ( 2.00    -0.0923)  ( 2.00    -0.0906)
                     ( 2.00    -0.0580)  ( 2.00    -0.0350)  ( 0.00     0.0309)

 CYCLE    6
  SDIIS (wt  0.000): -0.0014  0.1533  0.0505  0.4529  0.3446
 A-DIIS (wt  1.000):  0.0000  0.0000  0.0000  0.5233  0.4767
  DIIS coefficients:  0.0000  0.0000  0.0000  0.5233  0.4767
 SCF Error: norm([F,P])=      0.086461129172, max([F,P])=      0.031775621926
 orbitals (Q,E):
 ---------------
 A :28...38          ( 2.00    -0.1958)  ( 2.00    -0.1473)  ( 2.00    -0.1358)  ( 2.00    -0.1249)
                     ( 2.00    -0.1200)  ( 2.00    -0.1056)  ( 2.00    -0.0900)  ( 2.00    -0.0882)
                     ( 2.00    -0.0567)  ( 2.00    -0.0332)  ( 0.00     0.0304)

 CYCLE    7
  SDIIS (wt  0.927):  0.0061  0.0517  0.0342  0.2789  0.2748  0.3542
 A-DIIS (wt  0.073):  0.0000  0.0000  0.0000  0.0000  0.1448  0.8552
  DIIS coefficients:  0.0057  0.0479  0.0317  0.2585  0.2653  0.3908
 SCF Error: norm([F,P])=      0.027523730863, max([F,P])=      0.008238328966
 orbitals (Q,E):
 ---------------
 A :28...38          ( 2.00    -0.1966)  ( 2.00    -0.1463)  ( 2.00    -0.1345)  ( 2.00    -0.1241)
                     ( 2.00    -0.1189)  ( 2.00    -0.1045)  ( 2.00    -0.0916)  ( 2.00    -0.0898)
                     ( 2.00    -0.0570)  ( 2.00    -0.0333)  ( 0.00     0.0308)

 CYCLE    8
  SDIIS (wt  0.998):  0.0019  0.0184  0.0146  0.1395  0.1499  0.2671  0.4085
 A-DIIS (wt  0.002):  0.0000  0.0000  0.0000  0.0000  0.0000  0.0000  1.0000
  DIIS coefficients:  0.0019  0.0184  0.0146  0.1392  0.1495  0.2665  0.4099
 SCF Error: norm([F,P])=      0.005045459843, max([F,P])=      0.001239931456
 orbitals (Q,E):
 ---------------
 A :28...38          ( 2.00    -0.1964)  ( 2.00    -0.1464)  ( 2.00    -0.1347)  ( 2.00    -0.1243)
                     ( 2.00    -0.1192)  ( 2.00    -0.1046)  ( 2.00    -0.0911)  ( 2.00    -0.0893)
                     ( 2.00    -0.0569)  ( 2.00    -0.0332)  ( 0.00     0.0307)

 CYCLE    9
  SDIIS (wt  1.000): -0.0000  0.0073  0.0057  0.0607  0.0691  0.1428  0.3028  0.4116
  DIIS coefficients: -0.0000  0.0073  0.0057  0.0607  0.0691  0.1428  0.3028  0.4116
 SCF Error: norm([F,P])=      0.001444703359, max([F,P])=      0.000360856706
 orbitals (Q,E):
 ---------------
 A :28...38          ( 2.00    -0.1965)  ( 2.00    -0.1465)  ( 2.00    -0.1347)  ( 2.00    -0.1243)
                     ( 2.00    -0.1192)  ( 2.00    -0.1046)  ( 2.00    -0.0912)  ( 2.00    -0.0895)
                     ( 2.00    -0.0569)  ( 2.00    -0.0333)  ( 0.00     0.0307)

 CYCLE   10
  SDIIS (wt  1.000): -0.0006  0.0026  0.0013  0.0189  0.0224  0.0495  0.1374  0.2443  0.5242
  DIIS coefficients: -0.0006  0.0026  0.0013  0.0189  0.0224  0.0495  0.1374  0.2443  0.5242
 SCF Error: norm([F,P])=      0.000366043147, max([F,P])=      0.000063158602
 orbitals (Q,E):
 ---------------
 A :28...38          ( 2.00    -0.1965)  ( 2.00    -0.1465)  ( 2.00    -0.1347)  ( 2.00    -0.1243)
                     ( 2.00    -0.1191)  ( 2.00    -0.1046)  ( 2.00    -0.0912)  ( 2.00    -0.0895)
                     ( 2.00    -0.0569)  ( 2.00    -0.0333)  ( 0.00     0.0307)

 CYCLE   11
  SDIIS (wt  1.000): -0.0004  0.0009  0.0002  0.0048  0.0059  0.0135  0.0475  0.0955  0.3028  0.5291
  DIIS coefficients: -0.0004  0.0009  0.0002  0.0048  0.0059  0.0135  0.0475  0.0955  0.3028  0.5291
 SCF Error: norm([F,P])=      0.000108206087, max([F,P])=      0.000017220553
 orbitals (Q,E):
 ---------------
 A :28...38          ( 2.00    -0.1965)  ( 2.00    -0.1465)  ( 2.00    -0.1347)  ( 2.00    -0.1243)
                     ( 2.00    -0.1191)  ( 2.00    -0.1046)  ( 2.00    -0.0912)  ( 2.00    -0.0895)
                     ( 2.00    -0.0569)  ( 2.00    -0.0333)  ( 0.00     0.0307)

 CYCLE   12
  SDIIS (wt  1.000):  0.0001  0.0000  0.0001 -0.0000 -0.0000  0.0019  0.0117  0.0635  0.2627  0.6602
  DIIS coefficients:  0.0001  0.0000  0.0001 -0.0000 -0.0000  0.0019  0.0117  0.0635  0.2627  0.6602
 SCF Error: norm([F,P])=      0.000035897187, max([F,P])=      0.000004962253
 orbitals (Q,E):
 ---------------
 A :28...38          ( 2.00    -0.1965)  ( 2.00    -0.1465)  ( 2.00    -0.1347)  ( 2.00    -0.1243)
                     ( 2.00    -0.1191)  ( 2.00    -0.1046)  ( 2.00    -0.0912)  ( 2.00    -0.0895)
                     ( 2.00    -0.0569)  ( 2.00    -0.0333)  ( 0.00     0.0307)

 CYCLE   13
  SDIIS (wt  1.000):  0.0000  0.0003  0.0003  0.0010  0.0046  0.0145  0.0556  0.1642  0.4017  0.3578
  DIIS coefficients:  0.0000  0.0003  0.0003  0.0010  0.0046  0.0145  0.0556  0.1642  0.4017  0.3578
 SCF Error: norm([F,P])=      0.000031120106, max([F,P])=      0.000005769506
 orbitals (Q,E):
 ---------------
 A :28...38          ( 2.00    -0.1965)  ( 2.00    -0.1465)  ( 2.00    -0.1347)  ( 2.00    -0.1243)
                     ( 2.00    -0.1191)  ( 2.00    -0.1046)  ( 2.00    -0.0912)  ( 2.00    -0.0895)
                     ( 2.00    -0.0569)  ( 2.00    -0.0333)  ( 0.00     0.0307)

 CYCLE   14
  SDIIS (wt  1.000):  0.0001  0.0001  0.0003  0.0018  0.0070  0.0266  0.0810  0.2050  0.1906  0.4874
  DIIS coefficients:  0.0001  0.0001  0.0003  0.0018  0.0070  0.0266  0.0810  0.2050  0.1906  0.4874
 SCF Error: norm([F,P])=      0.000004296736, max([F,P])=      0.000000744216
 orbitals (Q,E):
 ---------------
 A :28...38          ( 2.00    -0.1965)  ( 2.00    -0.1465)  ( 2.00    -0.1347)  ( 2.00    -0.1243)
                     ( 2.00    -0.1191)  ( 2.00    -0.1046)  ( 2.00    -0.0912)  ( 2.00    -0.0895)
                     ( 2.00    -0.0569)  ( 2.00    -0.0333)  ( 0.00     0.0307)

 SCF CONVERGED

 CYCLE   15
 ***************************************************************************************************



                                                *******************
                                                *  R E S U L T S  *
                                                *******************
  
 *** Using FIT density in Focky
  SDIIS (wt  1.000): -0.0000  0.0000  0.0002  0.0015  0.0045  0.0161  0.0521  0.0472  0.3063  0.5721
  DIIS coefficients: -0.0000  0.0000  0.0002  0.0015  0.0045  0.0161  0.0521  0.0472  0.3063  0.5721
 SCF Error: norm([F,P])=      0.000001839415, max([F,P])=      0.000000315989

 Scaled ZORA Orbital Energies, per Irrep and Spin:
 =================================================
                        Occup              E (au)              E (eV)       Diff (eV) with prev. cycle
                        -----      --------------------        ------       --------------------------
 A
              28        2.000     -0.19646538909951E+00        -5.346               9.85E-07
              29        2.000     -0.14645731761738E+00        -3.985              -5.20E-08
              30        2.000     -0.13472772214034E+00        -3.666              -8.68E-07
              31        2.000     -0.12431057420710E+00        -3.383              -3.66E-07
              32        2.000     -0.11913398667076E+00        -3.242              -1.61E-06
              33        2.000     -0.10462376289872E+00        -2.847               4.53E-08
              34        2.000     -0.91224085144110E-01        -2.482               2.43E-06
              35        2.000     -0.89463798575673E-01        -2.434               2.47E-06
              36        2.000     -0.56938472149696E-01        -1.549              -2.69E-07
              37        2.000     -0.33270055897964E-01        -0.905               6.74E-08
              38        0.000      0.30714829688206E-01         0.836
              39        0.000      0.11106604255728E+00         3.022
              40        0.000      0.11973642592794E+00         3.258
              41        0.000      0.14325892612137E+00         3.898
              42        0.000      0.17378202960590E+00         4.729
              43        0.000      0.18110901064892E+00         4.928
              44        0.000      0.21792288337209E+00         5.930
              45        0.000      0.23921979629187E+00         6.510
              46        0.000      0.25348551471833E+00         6.898
              47        0.000      0.27570498927284E+00         7.502
  
 HOMO :       37 A                -0.33270055897964E-01
 LUMO :       38 A                 0.30714829688206E-01
  


 All Electron Calculation, thus no Orbital Energies of the Core Orbitals are calculated


 Fit test: (difference of exact and fit density, squared integrated, result summed over spins)
         Sum-of-Fragments:                             0.00019798997537
         Orthogonalized Fragments:                     0.00020272648967
         SCF:                                          0.00020585759378



 ==========================
 Electron Density at Nuclei
 ==========================
  
 The electron density is calculated at points on a small sphere around the center of a nucleus.
 The printed electron density is the average electron density on these points.
 The radius of the sphere is the printed approximate finite nuclear radius.
 Note: ZORA-4 density is used, which includes small component density

         Atom        Nuclear Radius (Angstrom)             Electron Density (a.u.)
         ----        -------------------------             -----------------------
[...]
                                    4.00%    39 A               1.481  0.00     2 fB
                                    3.95%    36 A               0.093  0.00     2 fB
                                    3.66%    10 A              17.524  0.00     1 fA
                                    3.11%    19 A             -13.870  2.00     2 fB
                                    2.52%    40 A               2.989  0.00     2 fB
                                   -1.68%     3 A              -4.058  2.00     1 fA
                                    1.41%    26 A              -8.280  2.00     2 fB
                                    1.36%    12 A             -31.083  2.00     2 fB
                                    1.33%     9 A              17.524  0.00     1 fA
                                   -1.15%    41 A               3.414  0.00     2 fB
                                    1.15%     4 A              -1.356  2.00     1 fA
                                    1.13%    24 A             -11.086  2.00     2 fB
                                    1.12%    34 A              -1.355  0.00     2 fB
                                    1.10%    15 A              37.124  0.00     1 fA
                                    1.09%    49 A               6.784  0.00     2 fB
                                   -1.03%    37 A               0.581  0.00     2 fB
                                   -1.02%    17 A             -17.360  2.00     2 fB
       0.05709       265 A         16.32%    24 A             -11.086  2.00     2 fB
                                   11.19%    37 A               0.581  0.00     2 fB
                                    7.69%     5 A              -1.355  2.00     1 fA
                                    7.37%    25 A             -10.790  2.00     2 fB
                                    6.88%    46 A               5.398  0.00     2 fB
                                    6.26%    39 A               1.481  0.00     2 fB
                                    5.66%    44 A               4.720  0.00     2 fB
                                    5.38%    38 A               0.907  0.00     2 fB
                                    5.17%    21 A             -13.068  2.00     2 fB
                                    3.40%    50 A               7.041  0.00     2 fB
                                    3.20%    36 A               0.093  0.00     2 fB
                                    2.61%    29 A              -7.534  2.00     2 fB
                                    2.37%    49 A               6.784  0.00     2 fB
                                    2.35%     3 A              -4.058  2.00     1 fA
                                    1.94%    27 A              -7.896  2.00     2 fB
                                   -1.67%    41 A               3.414  0.00     2 fB
                                    1.44%     8 A               9.687  0.00     1 fA
                                    1.39%    53 A               7.691  0.00     2 fB
                                   -1.36%    35 A              -0.801  0.00     2 fB
                                   -1.31%    48 A               6.209  0.00     2 fB
                                   -1.29%    23 A             -12.012  2.00     2 fB
                                    1.20%    10 A              17.524  0.00     1 fA
                                    1.19%     6 A               4.131  1.00     1 fA
                                    1.17%    20 A             -13.253  2.00     2 fB
      -0.05689         7 A         19.07%    24 A             -11.086  2.00     2 fB
                                   12.24%    25 A             -10.790  2.00     2 fB
                                   11.43%    23 A             -12.012  2.00     2 fB
                                   10.96%    37 A               0.581  0.00     2 fB
                                    9.51%    44 A               4.720  0.00     2 fB
                                    6.10%    46 A               5.398  0.00     2 fB
                                    3.65%    50 A               7.041  0.00     2 fB
                                    2.92%    39 A               1.481  0.00     2 fB
                                    2.86%     4 A              -1.356  2.00     1 fA
                                    2.20%    54 A               8.464  0.00     2 fB
                                    1.92%    26 A              -8.280  2.00     2 fB
                                    1.91%    31 A              -6.526  2.00     2 fB
                                    1.52%    53 A               7.691  0.00     2 fB
                                    1.47%    27 A              -7.896  2.00     2 fB
                                    1.35%    36 A               0.093  0.00     2 fB
                                    1.31%    49 A               6.784  0.00     2 fB
                                    1.30%    57 A               9.500  0.00     2 fB
                                    1.29%    42 A               3.885  0.00     2 fB
                                   -1.25%    14 A             -23.284  2.00     2 fB
                                    1.20%     9 A              17.524  0.00     1 fA
                                   -1.14%     6 A               4.131  1.00     1 fA
                                    1.13%    20 A             -13.253  2.00     2 fB
                                    1.05%    17 A             -17.360  2.00     2 fB
       0.05196       264 A         15.00%     5 A              -1.355  2.00     1 fA
                                   13.41%    38 A               0.907  0.00     2 fB
                                   10.28%    43 A               4.468  0.00     2 fB
                                    6.34%    14 A             -23.284  2.00     2 fB
                                    6.28%    25 A             -10.790  2.00     2 fB
                                    5.91%    10 A              17.524  0.00     1 fA
                                    5.49%     8 A               9.687  0.00     1 fA
                                    4.60%    23 A             -12.012  2.00     2 fB
                                    3.67%     6 A               4.131  1.00     1 fA
                                    2.97%     9 A              17.524  0.00     1 fA
                                    2.96%    44 A               4.720  0.00     2 fB
                                    2.50%    26 A              -8.280  2.00     2 fB
                                    2.45%    18 A             -14.687  2.00     2 fB
                                    1.71%    50 A               7.041  0.00     2 fB
                                    1.37%    11 A              23.961  0.00     1 fA
                                    1.10%    12 A             -31.083  2.00     2 fB
                                    1.06%    20 A             -13.253  2.00     2 fB
      -0.05084         8 A         13.70%    29 A              -7.534  2.00     2 fB
                                   12.91%    37 A               0.581  0.00     2 fB
                                   12.56%    31 A              -6.526  2.00     2 fB
                                    8.20%    46 A               5.398  0.00     2 fB
                                    7.31%    23 A             -12.012  2.00     2 fB
                                    4.90%    20 A             -13.253  2.00     2 fB
                                    3.69%    52 A               7.562  0.00     2 fB
                                    3.61%    43 A               4.468  0.00     2 fB
                                    3.55%    18 A             -14.687  2.00     2 fB
                                    3.45%    39 A               1.481  0.00     2 fB
                                    3.27%    56 A               9.149  0.00     2 fB
                                    2.74%    38 A               0.907  0.00     2 fB
                                    2.48%    27 A              -7.896  2.00     2 fB
                                    2.41%    17 A             -17.360  2.00     2 fB
                                    2.21%    48 A               6.209  0.00     2 fB
                                    2.01%    24 A             -11.086  2.00     2 fB
                                    1.88%    25 A             -10.790  2.00     2 fB
                                    1.77%    22 A             -12.695  2.00     2 fB
                                    1.70%    14 A             -23.284  2.00     2 fB
                                    1.33%    33 A              -3.331  0.00     2 fB
                                   -1.32%     3 A              -4.058  2.00     1 fA
                                    1.14%    57 A               9.500  0.00     2 fB
                                    1.01%    42 A               3.885  0.00     2 fB
       0.05078       263 A         16.34%    31 A              -6.526  2.00     2 fB
                                   13.31%    37 A               0.581  0.00     2 fB
                                   11.03%    29 A              -7.534  2.00     2 fB
                                    7.75%    46 A               5.398  0.00     2 fB
                                    6.46%    43 A               4.468  0.00     2 fB
                                    4.43%    52 A               7.562  0.00     2 fB
                                    3.67%    56 A               9.149  0.00     2 fB
                                    3.31%    27 A              -7.896  2.00     2 fB
                                    2.91%    21 A             -13.068  2.00     2 fB
                                    2.81%     3 A              -4.058  2.00     1 fA
                                    2.77%    26 A              -8.280  2.00     2 fB
                                    2.59%    39 A               1.481  0.00     2 fB
                                    2.24%    22 A             -12.695  2.00     2 fB
                                    2.18%    12 A              23.961  0.00     1 fA
                                    1.97%     6 A               4.131  1.00     1 fA
                                   -1.81%    14 A             -23.284  2.00     2 fB
                                    1.63%    24 A             -11.086  2.00     2 fB
                                    1.57%    48 A               6.209  0.00     2 fB
                                    1.39%    20 A             -13.253  2.00     2 fB
                                    1.22%    57 A               9.500  0.00     2 fB
                                    1.15%    33 A              -3.331  0.00     2 fB
                                    1.12%    23 A             -12.012  2.00     2 fB
                                    1.10%    38 A               0.907  0.00     2 fB
                                    1.05%    10 A              17.524  0.00     1 fA
                                    1.01%    25 A             -10.790  2.00     2 fB
 Mulliken charges used for AMS results%charges...


    =====================
     CALCULATION RESULTS
    =====================

Energy (hartree)            -0.20715297


--------------
Atomic charges
--------------
  Index   Atom    Charge
      1      F   -0.6741
      2      H    0.3069
      3      C    0.2860
      4      C    0.2625
      5     Cl   -0.3296
      6      H   -0.1524
      7      H   -0.2565
      8      N    0.5749
      9      O   -0.3889
     10      O   -0.4273
     11      N   -0.0602
     12      H   -0.0942
     13      H   -0.0473


Dipole moment vector    (Debye):     5.64238333   -4.08696453   -1.64418862
              magnitude (Debye):     7.15843034


-----------------------
Molecular orbitals info
-----------------------
n orbitals:              271
n spin:                    1

Note: only printing virtual orbitals with
      energy smaller than HOMO + 100. eV

HOMO (eV):              -0.9053
LUMO (eV):               0.8358
HOMO-LUMO gap (eV):      1.7411

   Index   Energy (eV)    Occupation
     177       98.2805         0.000       
     176       97.0650         0.000       
     175       96.9540         0.000       
     174       96.5426         0.000       
     173       95.5057         0.000       
     172       95.2394         0.000       
     171       94.4511         0.000       
     170       93.0290         0.000       
     169       92.0085         0.000       
     168       90.8856         0.000       
     167       90.0106         0.000       
     166       88.4977         0.000       
     165       87.3252         0.000       
     164       86.8801         0.000       
     163       85.3978         0.000       
     162       84.3048         0.000       
     161       83.7271         0.000       
     160       83.1905         0.000       
     159       81.8987         0.000       
     158       80.9224         0.000       
     157       79.8699         0.000       
     156       78.4585         0.000       
     155       77.8676         0.000       
     154       76.2575         0.000       
     153       75.2183         0.000       
     152       73.6485         0.000       
     151       72.4638         0.000       
     150       72.2426         0.000       
     149       69.8774         0.000       
     148       69.3146         0.000       
     147       69.0796         0.000       
     146       67.8599         0.000       
     145       66.5314         0.000       
     144       66.1754         0.000       
     143       64.7238         0.000       
     142       64.4072         0.000       
     141       64.2422         0.000       
     140       62.4403         0.000       
     139       61.1733         0.000       
     138       60.5538         0.000       
     137       59.8411         0.000       
     136       58.9930         0.000       
     135       58.6051         0.000       
     134       57.0403         0.000       
     133       56.7057         0.000       
     132       56.5586         0.000       
     131       54.9164         0.000       
     130       54.2673         0.000       
     129       53.7401         0.000       
     128       53.1776         0.000       
     127       51.8341         0.000       
     126       50.7838         0.000       
     125       49.5607         0.000       
     124       48.2697         0.000       
     123       47.3724         0.000       
     122       46.4532         0.000       
     121       46.0775         0.000       
     120       45.0203         0.000       
     119       44.8061         0.000       
     118       44.2078         0.000       
     117       43.5126         0.000       
     116       43.0133         0.000       
     115       41.9034         0.000       
     114       41.5231         0.000       
     113       40.9561         0.000       
     112       40.3342         0.000       
     111       40.0701         0.000       
     110       39.6653         0.000       
     109       39.1499         0.000       
     108       38.7454         0.000       
     107       38.2355         0.000       
     106       38.0214         0.000       
     105       37.7410         0.000       
     104       37.3069         0.000       
     103       36.7459         0.000       
     102       36.4312         0.000       
     101       35.7807         0.000       
     100       35.4546         0.000       
      99       34.6200         0.000       
      98       34.4448         0.000       
      97       34.3803         0.000       
      96       33.0729         0.000       
      95       32.2507         0.000       
      94       31.9280         0.000       
      93       31.7759         0.000       
      92       31.1993         0.000       
      91       29.9849         0.000       
      90       29.0847         0.000       
      89       27.9470         0.000       
      88       27.1433         0.000       
      87       26.7015         0.000       
      86       25.8618         0.000       
      85       24.5962         0.000       
      84       24.0680         0.000       
      83       23.6323         0.000       
      82       23.2473         0.000       
      81       22.6208         0.000       
      80       21.4990         0.000       
      79       20.6571         0.000       
      78       20.2290         0.000       
      77       19.3118         0.000       
      76       18.8058         0.000       
      75       18.2034         0.000       
      74       18.0531         0.000       
      73       17.6983         0.000       
      72       16.9794         0.000       
      71       16.8037         0.000       
      70       16.1509         0.000       
      69       15.9834         0.000       
      68       15.3162         0.000       
      67       14.9420         0.000       
      66       14.4563         0.000       
      65       14.1687         0.000       
      64       14.0911         0.000       
      63       13.8374         0.000       
      62       13.4820         0.000       
      61       13.1023         0.000       
      60       12.3926         0.000       
      59       11.9127         0.000       
      58       11.7299         0.000       
      57       11.3536         0.000       
      56       11.1066         0.000       
      55       10.8974         0.000       
      54       10.3047         0.000       
      53       10.1835         0.000       
      52        9.7839         0.000       
      51        9.3450         0.000       
      50        9.0139         0.000       
      49        8.4256         0.000       
      48        8.1644         0.000       
      47        7.5023         0.000       
      46        6.8977         0.000       
      45        6.5095         0.000       
      44        5.9300         0.000       
      43        4.9282         0.000       
      42        4.7288         0.000       
      41        3.8983         0.000       
      40        3.2582         0.000       
      39        3.0223         0.000       
      38        0.8358         0.000 < LUMO
      37       -0.9053         2.000 < HOMO
      36       -1.5494         2.000       
      35       -2.4344         2.000       
      34       -2.4823         2.000       
      33       -2.8470         2.000       
      32       -3.2418         2.000       
      31       -3.3827         2.000       
      30       -3.6661         2.000       
      29       -3.9853         2.000       
      28       -5.3461         2.000       
      27       -5.8764         2.000       
      26       -6.1492         2.000       
      25       -7.0241         2.000       
      24       -8.0556         2.000       
      23       -8.6483         2.000       
      22       -8.8972         2.000       
      21       -9.5013         2.000       
      20      -10.3225         2.000       
      19      -12.4182         2.000       
      18      -15.0285         2.000       
      17      -17.0301         2.000       
      16      -18.1005         2.000       
      15      -21.4449         2.000       
      14      -22.5344         2.000       
      13      -26.9147         2.000       
      12     -185.9243         2.000       
      11     -185.9309         2.000       
      10     -186.1660         2.000       
       9     -246.9562         2.000       
       8     -265.8920         2.000       
       7     -268.5735         2.000       
       6     -376.9549         2.000       
       5     -383.6855         2.000       
       4     -508.5430         2.000       
       3     -508.6118         2.000       
       2     -653.7500         2.000       
       1    -2746.2080         2.000       

AMS application finished. Exiting.
NORMAL TERMINATION
     Total cpu time:      69.78
  Total system time:       0.31
 Total elapsed time:      70.30
NORMAL TERMINATION
