srun: Job 662083 step creation temporarily disabled, retrying (Requested nodes are busy)
srun: Job 662083 step creation still disabled, retrying (Requested nodes are busy)
srun: Job 662083 step creation still disabled, retrying (Requested nodes are busy)
srun: Job 662083 step creation still disabled, retrying (Requested nodes are busy)
srun: Job 662083 step creation still disabled, retrying (Requested nodes are busy)
srun: Job 662083 step creation still disabled, retrying (Requested nodes are busy)
srun: Job 662083 step creation still disabled, retrying (Requested nodes are busy)
srun: Job 662083 step creation still disabled, retrying (Requested nodes are busy)
srun: Job 662083 step creation still disabled, retrying (Requested nodes are busy)
srun: Job 662083 step creation still disabled, retrying (Requested nodes are busy)
srun: Job 662083 step creation still disabled, retrying (Requested nodes are busy)
srun: Job 662083 step creation still disabled, retrying (Requested nodes are busy)
srun: Job 662083 step creation still disabled, retrying (Requested nodes are busy)
srun: Job 662083 step creation still disabled, retrying (Requested nodes are busy)
srun: Job 662083 step creation still disabled, retrying (Requested nodes are busy)
srun: Job 662083 step creation still disabled, retrying (Requested nodes are busy)
srun: Job 662083 step creation still disabled, retrying (Requested nodes are busy)
srun: Job 662083 step creation still disabled, retrying (Requested nodes are busy)
srun: Job 662083 step creation still disabled, retrying (Requested nodes are busy)
srun: Step created for StepId=662083.67

 *******************************************************************************
 *                                                                             *
 *  --------------------------------                                           *
 *   Amsterdam Modeling Suite (AMS)              2026.103                      *
 *  --------------------------------                                           *
 *                                               r260501 2026-05-01 873454b5   *
 *                                                                             *
 *                                                                             *
 *                              =================                              *
 *                              |               |                              *
 *                              |     A M S     |                              *
 *                              |               |                              *
 *                              =================                              *
 *                                                                             *
 *                                                                             *
 *   Online information and documentation:  https://www.scm.com/support/       *
 *   E-mail:  support@scm.com   info@scm.com                                   *
 *                                                                             *
 *   Scientific publications using AMS results must be properly referenced     *
 *   See the User Manuals (or the web site) for recommended citations          *
 *   The terms and conditions of the End User License Agreement apply to       *
 *   the use of AMS, https://www.scm.com/license-terms/                        *
 *                                                                             *
 **********************  x86_64_linux_intel / intelmpi  ************************
 
 Licensed to: Jong-June Jeon / University of Seoul 2026-06-02 13:44:15
 SCM User ID: u30731
  
 AMS 2026.103  RunTime: Jun03-2026 04:29:23  ShM Nodes: 1  Procs: 1

 AMS jobname: c2_fragB_ts
 AMS jobid  : 189764524

 Start   directory: /gpfs/home1/yeseo1ee/projects/eda-asm-prediction/ADF_800/adf_outputs/batch_000/dipolar_000444/
 Results directory: /gpfs/home1/yeseo1ee/projects/eda-asm-prediction/ADF_800/adf_outputs/batch_000/dipolar_000444/c2_fragB_ts.results/
 Scratch directory: /tmp/amstmp_c2_fragB_ts_kid0.189764524/

 RNG seed: 1186600948 -826280991 668213021 2076270986 2064202580 -1480304702 -1559540406 -644221477



                      ************************************************************************
                      *  ADF 2026.103  RunTime: Jun03-2026 04:29:23  ShM Nodes: 1  Procs: 1  *
                      ************************************************************************
  

       ****************************
       * SINGLE POINT CALCULATION *
       ****************************

--------
Geometry
--------
Formula: C9H11F3O
Atoms
  Index Symbol   x (angstrom)   y (angstrom)   z (angstrom)
      1      C     1.44591000     0.10616000     0.57612000
      2      C     0.63913000     0.57017000    -0.23871000
      3      C     0.07662000     0.56047000    -1.60722000
      4      F     1.21251000     0.58593000    -2.46346000
      5      O    -0.64714000     1.70357000    -1.84929000
      6      C    -1.40587000     1.74903000    -3.05671000
      7      C    -0.63941000    -0.77792000    -1.86490000
      8      C    -0.11407000    -1.98420000    -1.06754000
      9      C     1.40965000    -2.28484000    -1.11626000
     10      C     2.12865000    -2.24962000     0.24442000
     11      C     2.55510000    -0.86133000     0.70918000
     12      F     3.04406000    -0.93120000     1.98412000
     13      F     3.60982000    -0.42197000    -0.06117000
     14      H    -0.78603000     1.49111000    -3.92938000
     15      H    -1.75503000     2.78469000    -3.15846000
     16      H    -2.27969000     1.08122000    -3.01188000
     17      H    -1.70170000    -0.63852000    -1.61678000
     18      H    -0.57250000    -0.96292000    -2.94786000
     19      H    -0.66377000    -2.86161000    -1.44090000
     20      H    -0.43089000    -1.86721000    -0.01950000
     21      H     1.92225000    -1.60126000    -1.80983000
     22      H     1.55823000    -3.29265000    -1.52999000
     23      H     1.48798000    -2.67409000     1.03245000
     24      H     3.05501000    -2.84488000     0.21388000

Total System Charge              0.00000


----------------
ADF Engine Input
----------------
 
   Basis
     Type TZ2P
     Core None
   End
   XC
     GGA BLYP
     Dispersion GRIMME3 BJDAMP
   End
   Symmetry NOSYM
   NumericalQuality Normal
   Unrestricted No
   SCF
     Iterations 200
     Converge 1.0e-6
   End
   Save TAPE21
 

 Title: *** (NO TITLE) ***

 *** adf ***



 ===========================
 A T T A C H E D   F I L E S
 ===========================
  



 ===============================
 M O D E L   P A R A M E T E R S
 ===============================
  
 DENSITY FUNCTIONAL POTENTIAL (scf)
    LDA:                               Exchange only                           == Not Default ==
    Gradient Corrections:              Becke88 LYP                             == Not Default ==

 SPIN  (restricted / unrestr.)
    Molecule:                          Restricted                               
    Fragments:                         Restricted                               

 OTHER ASPECTS
    Relativistic Corrections:          scalar (ZORA,MAPA)                       

    Nuclear Charge Density Model:      Point Charge Nuclei                      
    Core Treatment:                    Frozen Orbital(s)                        

    Hyperfine or Zeeman Interaction:   ---                                      

 Settings for Grimme D3 dispersion correction

      damping                        BJ
      s6                          1.000
      s8                          2.700
      a1                          0.430
      a2                          4.236

 Other (technical) parameters

      alpha                      14.000
      version                         4
 


 Fragment File(s)
 ----------------
 C:
         file : /gpfs/home1/yeseo1ee/projects/eda-asm-prediction/ADF_800/adf_outputs/batch_000/dipolar_000444/c2_fragB_ts.results/t21.50BA88D5.C
         jobid: 0
         title: Carbon (TZ2P)
 F:
         file : /gpfs/home1/yeseo1ee/projects/eda-asm-prediction/ADF_800/adf_outputs/batch_000/dipolar_000444/c2_fragB_ts.results/t21.CCE1280.F
         jobid: 0
         title: Fluorine (TZ2P)
 O:
         file : /gpfs/home1/yeseo1ee/projects/eda-asm-prediction/ADF_800/adf_outputs/batch_000/dipolar_000444/c2_fragB_ts.results/t21.6E90ABAE.O
         jobid: 0
         title: Oxygen (TZ2P)
 H:
         file : /gpfs/home1/yeseo1ee/projects/eda-asm-prediction/ADF_800/adf_outputs/batch_000/dipolar_000444/c2_fragB_ts.results/t21.6F35CCAB.H
         jobid: 0
         title: Hydrogen (TZ2P)



 ===============
 G E O M E T R Y  ***  3D  Molecule  ***
 ===============
  

 ATOMS
 =====                            X Y Z                    CHARGE
                                (Angstrom)             Nucl     +Core       At.Mass
                       --------------------------    ----------------       -------
    1  C               1.4459    0.1062    0.5761      6.00      6.00       12.0000
    2  C               0.6391    0.5702   -0.2387      6.00      6.00       12.0000
    3  C               0.0766    0.5605   -1.6072      6.00      6.00       12.0000
    4  F               1.2125    0.5859   -2.4635      9.00      9.00       18.9984
    5  O              -0.6471    1.7036   -1.8493      8.00      8.00       15.9949
    6  C              -1.4059    1.7490   -3.0567      6.00      6.00       12.0000
    7  C              -0.6394   -0.7779   -1.8649      6.00      6.00       12.0000
    8  C              -0.1141   -1.9842   -1.0675      6.00      6.00       12.0000
    9  C               1.4097   -2.2848   -1.1163      6.00      6.00       12.0000
   10  C               2.1286   -2.2496    0.2444      6.00      6.00       12.0000
   11  C               2.5551   -0.8613    0.7092      6.00      6.00       12.0000
   12  F               3.0441   -0.9312    1.9841      9.00      9.00       18.9984
   13  F               3.6098   -0.4220   -0.0612      9.00      9.00       18.9984
   14  H              -0.7860    1.4911   -3.9294      1.00      1.00        1.0078
   15  H              -1.7550    2.7847   -3.1585      1.00      1.00        1.0078
   16  H              -2.2797    1.0812   -3.0119      1.00      1.00        1.0078
   17  H              -1.7017   -0.6385   -1.6168      1.00      1.00        1.0078
   18  H              -0.5725   -0.9629   -2.9479      1.00      1.00        1.0078
   19  H              -0.6638   -2.8616   -1.4409      1.00      1.00        1.0078
   20  H              -0.4309   -1.8672   -0.0195      1.00      1.00        1.0078
   21  H               1.9223   -1.6013   -1.8098      1.00      1.00        1.0078
   22  H               1.5582   -3.2926   -1.5300      1.00      1.00        1.0078
   23  H               1.4880   -2.6741    1.0325      1.00      1.00        1.0078
   24  H               3.0550   -2.8449    0.2139      1.00      1.00        1.0078


 FRAGMENTS
 =========                                     Atoms in this Fragment     Cart. coord.s (Angstrom)
                                               -------------------------------------------------------
    1  C                                                 1  C            1.4459    0.1062    0.5761
    2  C                                                 2  C            0.6391    0.5702   -0.2387
    3  C                                                 3  C            0.0766    0.5605   -1.6072
    4  C                                                 6  C           -1.4059    1.7490   -3.0567
    5  C                                                 7  C           -0.6394   -0.7779   -1.8649
    6  C                                                 8  C           -0.1141   -1.9842   -1.0675
    7  C                                                 9  C            1.4097   -2.2848   -1.1163
    8  C                                                10  C            2.1286   -2.2496    0.2444
    9  C                                                11  C            2.5551   -0.8613    0.7092
   10  F                                                 4  F            1.2125    0.5859   -2.4635
   11  F                                                12  F            3.0441   -0.9312    1.9841
   12  F                                                13  F            3.6098   -0.4220   -0.0612
   13  O                                                 5  O           -0.6471    1.7036   -1.8493
   14  H                                                14  H           -0.7860    1.4911   -3.9294
   15  H                                                15  H           -1.7550    2.7847   -3.1585
   16  H                                                16  H           -2.2797    1.0812   -3.0119
   17  H                                                17  H           -1.7017   -0.6385   -1.6168
   18  H                                                18  H           -0.5725   -0.9629   -2.9479
   19  H                                                19  H           -0.6638   -2.8616   -1.4409
   20  H                                                20  H           -0.4309   -1.8672   -0.0195
   21  H                                                21  H            1.9223   -1.6013   -1.8098
   22  H                                                22  H            1.5582   -3.2926   -1.5300
   23  H                                                23  H            1.4880   -2.6741    1.0325
   24  H                                                24  H            3.0550   -2.8449    0.2139



 =====================================
 S Y M M E T R Y ,   E L E C T R O N S
 =====================================
  
 Symmetry: NOSYM

 Irreducible Representations, including subspecies
 -------------------------------------------------
 A


 Configuration of Valence Electrons
 ==================================
 ( determined in the SCF procedure )

 Total:   100

 Net Charge: 0 (Nuclei minus Electrons)

 Aufbau principle for MO occupations will be applied through SCF cycle no.     100
 Thereafter, the program will assign electrons to MOs that are spatially
 similar to the occupied MOs in a "reference" cycle ("KeepOrbitals").
 The reference cycle is always the PREVIOUS cycle: it will evolve with
 the SCF procedure.
 ***************************************************************************************************



                                      ****************************************
                                      *  B U I L D : (Fragments, Functions)  *
                                      ****************************************
  



 =======
 S F O s  ***  (Symmetrized Fragment Orbitals)  ***
 =======
  
 SFOs are linear combinations of (valence) Fragment Orbitals (FOs), such that the SFOs transform as the
 irreducible representations of the (molecular) symmetry group. Each SFO is therefore characterized by
 an irrep of the molecule and by a few (or only one) generating FOs.
 The SFOs constitute a symmetry-adapted basis for the Fock matrix. The MO eigenvector coefficients in
 this basis provide a direct interpretation of the MOs in terms of Frontier Orbital Theory.

 The SFOs are combined with auxiliary Core Functions (CFs) to ensure orthogonalization on the (frozen)
 Core Orbitals (COs). The Core-orthogonalized SFOs (CSFOs) constitute the true Fock basis.

 The FOs, and hence also the (C)SFOs are combinations of the elementary basis functions (BAS). The basis
 functions that participate in the description of the SFOs depend on the irrep. The indices of the
 involved functions are printed below for each irrep.
 (The complete list of primitive basis functions is printed in another section)

 Total nr. of (C)SFOs (summation over all irreps) :   459

 NOTE: a (C)SFO that is defined as a combination of more than one FO is usually NOT normalized.



                                       === A ===
 Nr. of SFOs :  459
 Cartesian basis functions that participate in this irrep (total number =   522) :
      1     2     3     4     5     6     9    12     7    10
     13     8    11    14    15    16    17    18    19    20
     21    22    23    24    25    26    27    28    29    30
     31    32    33    34    35    36    39    42    37    40
     43    38    41    44    45    46    47    48    49    50
     51    52    53    54    55    56    57    58    59    60
     61    62    63    64    65    66    69    72    67    70
     73    68    71    74    75    76    77    78    79    80
     81    82    83    84    85    86    87    88    89    90
     91    92    93    94    95    96    99   102    97   100
    103    98   101   104   105   106   107   108   109   110
    111   112   113   114   115   116   117   118   119   120
    121   122   123   124   125   126   129   132   127   130
    133   128   131   134   135   136   137   138   139   140
    141   142   143   144   145   146   147   148   149   150
    151   152   153   154   155   156   159   162   157   160
    163   158   161   164   165   166   167   168   169   170
    171   172   173   174   175   176   177   178   179   180
    181   182   183   184   185   186   189   192   187   190
    193   188   191   194   195   196   197   198   199   200
    201   202   203   204   205   206   207   208   209   210
    211   212   213   214   215   216   219   222   217   220
    223   218   221   224   225   226   227   228   229   230
    231   232   233   234   235   236   237   238   239   240
    241   242   243   244   245   246   249   252   247   250
    253   248   251   254   255   256   257   258   259   260
    261   262   263   264   265   266   267   268   269   270
    271   272   273   274   275   276   279   282   277   280
    283   278   281   284   285   286   287   288   289   290
    291   292   293   294   295   296   297   298   299   300
    301   302   303   304   305   306   309   312   307   310
    313   308   311   314   315   316   317   318   319   320
    321   322   323   324   325   326   327   328   329   330
    331   332   333   334   335   336   339   342   337   340
    343   338   341   344   345   346   347   348   349   350
    351   352   353   354   355   356   357   358   359   360
    361   362   363   364   365   366   369   372   367   370
    373   368   371   374   375   376   377   378   379   380
    381   382   383   384   385   386   387   388   389   390
    391   392   393   394   395   396   397   398   399   400
    401   402   403   404   405   406   407   408   409   410
    411   412   413   414   415   416   417   418   419   420
    421   422   423   424   425   426   427   428   429   430
    431   432   433   434   435   436   437   438   439   440
    441   442   443   444   445   446   447   448   449   450
    451   452   453   454   455   456   457   458   459   460
    461   462   463   464   465   466   467   468   469   470
    471   472   473   474   475   476   477   478   479   480
    481   482   483   484   485   486   487   488   489   490
    491   492   493   494   495   496   497   498   499   500
    501   502   503   504   505   506   507   508   509   510
    511   512   513   514   515   516   517   518   519   520
    521   522

    SFO  (index         Fragment          Generating    Expansion in Fragment Orbitals
  indx  incl.CFs)   Occup   Orb.Energy   FragmentType  Coeff.   Orbital     on Fragment
 --------------------------------------------------------------------------------------
     1       1      2.000     -10.066 au  C             1.00      1 S               1
                        (    -273.921 eV)
     2       2      2.000      -0.501 au  C             1.00      2 S               1
                        (     -13.620 eV)
     3       3       --         0.373 au  C             1.00      3 S               1
                        (      10.158 eV)
     4       4       --         5.405 au  C             1.00      4 S               1
                        (     147.073 eV)
     5       5       --        49.848 au  C             1.00      5 S               1
                        (    1356.422 eV)
     6       6      0.667      -0.193 au  C             1.00      1 P:x             1
                        (      -5.239 eV)
     7       7       --         0.169 au  C             1.00      2 P:x             1
                        (       4.589 eV)
     8       8       --         2.013 au  C             1.00      3 P:x             1
                        (      54.789 eV)
     9       9      0.667      -0.193 au  C             1.00      1 P:y             1
                        (      -5.239 eV)
    10      10       --         0.169 au  C             1.00      2 P:y             1
                        (       4.589 eV)
    11      11       --         2.013 au  C             1.00      3 P:y             1
                        (      54.789 eV)
    12      12      0.667      -0.193 au  C             1.00      1 P:z             1
                        (      -5.239 eV)
    13      13       --         0.169 au  C             1.00      2 P:z             1
                        (       4.589 eV)
    14      14       --         2.013 au  C             1.00      3 P:z             1
                        (      54.789 eV)
    15      15       --         1.243 au  C             1.00      1 D:z2            1
                        (      33.824 eV)
    16      16       --         1.243 au  C             1.00      1 D:x2-y2         1
                        (      33.824 eV)
    17      17       --         1.243 au  C             1.00      1 D:xy            1
                        (      33.824 eV)
    18      18       --         1.243 au  C             1.00      1 D:xz            1
                        (      33.824 eV)
    19      19       --         1.243 au  C             1.00      1 D:yz            1
                        (      33.824 eV)
    20      20       --         4.016 au  C             1.00      1 F:z3            1
                        (     109.271 eV)
    21      21       --         4.016 au  C             1.00      1 F:z             1
                        (     109.271 eV)
    22      22       --         4.016 au  C             1.00      1 F:xyz           1
                        (     109.271 eV)
    23      23       --         4.016 au  C             1.00      1 F:z2x           1
                        (     109.271 eV)
    24      24       --         4.016 au  C             1.00      1 F:z2y           1
                        (     109.271 eV)
    25      25       --         4.016 au  C             1.00      1 F:x             1
                        (     109.271 eV)
    26      26       --         4.016 au  C             1.00      1 F:y             1
                        (     109.271 eV)
    27      27      2.000     -10.066 au  C             1.00      1 S               2
                        (    -273.921 eV)
    28      28      2.000      -0.501 au  C             1.00      2 S               2
                        (     -13.620 eV)
    29      29       --         0.373 au  C             1.00      3 S               2
                        (      10.158 eV)
    30      30       --         5.405 au  C             1.00      4 S               2
                        (     147.073 eV)
    31      31       --        49.848 au  C             1.00      5 S               2
                        (    1356.422 eV)
    32      32      0.667      -0.193 au  C             1.00      1 P:x             2
                        (      -5.239 eV)
    33      33       --         0.169 au  C             1.00      2 P:x             2
                        (       4.589 eV)
    34      34       --         2.013 au  C             1.00      3 P:x             2
                        (      54.789 eV)
    35      35      0.667      -0.193 au  C             1.00      1 P:y             2
                        (      -5.239 eV)
    36      36       --         0.169 au  C             1.00      2 P:y             2
                        (       4.589 eV)
    37      37       --         2.013 au  C             1.00      3 P:y             2
                        (      54.789 eV)
    38      38      0.667      -0.193 au  C             1.00      1 P:z             2
                        (      -5.239 eV)
    39      39       --         0.169 au  C             1.00      2 P:z             2
                        (       4.589 eV)
    40      40       --         2.013 au  C             1.00      3 P:z             2
                        (      54.789 eV)
    41      41       --         1.243 au  C             1.00      1 D:z2            2
                        (      33.824 eV)
    42      42       --         1.243 au  C             1.00      1 D:x2-y2         2
                        (      33.824 eV)
    43      43       --         1.243 au  C             1.00      1 D:xy            2
                        (      33.824 eV)
    44      44       --         1.243 au  C             1.00      1 D:xz            2
                        (      33.824 eV)
    45      45       --         1.243 au  C             1.00      1 D:yz            2
                        (      33.824 eV)
    46      46       --         4.016 au  C             1.00      1 F:z3            2
                        (     109.271 eV)
    47      47       --         4.016 au  C             1.00      1 F:z             2
                        (     109.271 eV)
    48      48       --         4.016 au  C             1.00      1 F:xyz           2
                        (     109.271 eV)
    49      49       --         4.016 au  C             1.00      1 F:z2x           2
                        (     109.271 eV)
    50      50       --         4.016 au  C             1.00      1 F:z2y           2
                        (     109.271 eV)
    51      51       --         4.016 au  C             1.00      1 F:x             2
                        (     109.271 eV)
    52      52       --         4.016 au  C             1.00      1 F:y             2
                        (     109.271 eV)
    53      53      2.000     -10.066 au  C             1.00      1 S               3
                        (    -273.921 eV)
    54      54      2.000      -0.501 au  C             1.00      2 S               3
                        (     -13.620 eV)
    55      55       --         0.373 au  C             1.00      3 S               3
                        (      10.158 eV)
    56      56       --         5.405 au  C             1.00      4 S               3
                        (     147.073 eV)
    57      57       --        49.848 au  C             1.00      5 S               3
                        (    1356.422 eV)
    58      58      0.667      -0.193 au  C             1.00      1 P:x             3
                        (      -5.239 eV)
    59      59       --         0.169 au  C             1.00      2 P:x             3
                        (       4.589 eV)
    60      60       --         2.013 au  C             1.00      3 P:x             3
                        (      54.789 eV)
    61      61      0.667      -0.193 au  C             1.00      1 P:y             3
                        (      -5.239 eV)
    62      62       --         0.169 au  C             1.00      2 P:y             3
                        (       4.589 eV)
    63      63       --         2.013 au  C             1.00      3 P:y             3
                        (      54.789 eV)
    64      64      0.667      -0.193 au  C             1.00      1 P:z             3
                        (      -5.239 eV)
    65      65       --         0.169 au  C             1.00      2 P:z             3
                        (       4.589 eV)
    66      66       --         2.013 au  C             1.00      3 P:z             3
                        (      54.789 eV)
    67      67       --         1.243 au  C             1.00      1 D:z2            3
                        (      33.824 eV)
    68      68       --         1.243 au  C             1.00      1 D:x2-y2         3
                        (      33.824 eV)
    69      69       --         1.243 au  C             1.00      1 D:xy            3
                        (      33.824 eV)
    70      70       --         1.243 au  C             1.00      1 D:xz            3
                        (      33.824 eV)
    71      71       --         1.243 au  C             1.00      1 D:yz            3
                        (      33.824 eV)
    72      72       --         4.016 au  C             1.00      1 F:z3            3
                        (     109.271 eV)
    73      73       --         4.016 au  C             1.00      1 F:z             3
                        (     109.271 eV)
    74      74       --         4.016 au  C             1.00      1 F:xyz           3
                        (     109.271 eV)
    75      75       --         4.016 au  C             1.00      1 F:z2x           3
                        (     109.271 eV)
    76      76       --         4.016 au  C             1.00      1 F:z2y           3
                        (     109.271 eV)
    77      77       --         4.016 au  C             1.00      1 F:x             3
                        (     109.271 eV)
    78      78       --         4.016 au  C             1.00      1 F:y             3
                        (     109.271 eV)
    79      79      2.000     -10.066 au  C             1.00      1 S               4
                        (    -273.921 eV)
    80      80      2.000      -0.501 au  C             1.00      2 S               4
                        (     -13.620 eV)
    81      81       --         0.373 au  C             1.00      3 S               4
                        (      10.158 eV)
    82      82       --         5.405 au  C             1.00      4 S               4
                        (     147.073 eV)
    83      83       --        49.848 au  C             1.00      5 S               4
                        (    1356.422 eV)
    84      84      0.667      -0.193 au  C             1.00      1 P:x             4
                        (      -5.239 eV)
    85      85       --         0.169 au  C             1.00      2 P:x             4
                        (       4.589 eV)
    86      86       --         2.013 au  C             1.00      3 P:x             4
                        (      54.789 eV)
    87      87      0.667      -0.193 au  C             1.00      1 P:y             4
                        (      -5.239 eV)
    88      88       --         0.169 au  C             1.00      2 P:y             4
                        (       4.589 eV)
    89      89       --         2.013 au  C             1.00      3 P:y             4
                        (      54.789 eV)
    90      90      0.667      -0.193 au  C             1.00      1 P:z             4
                        (      -5.239 eV)
    91      91       --         0.169 au  C             1.00      2 P:z             4
                        (       4.589 eV)
    92      92       --         2.013 au  C             1.00      3 P:z             4
                        (      54.789 eV)
    93      93       --         1.243 au  C             1.00      1 D:z2            4
                        (      33.824 eV)
    94      94       --         1.243 au  C             1.00      1 D:x2-y2         4
                        (      33.824 eV)
    95      95       --         1.243 au  C             1.00      1 D:xy            4
                        (      33.824 eV)
    96      96       --         1.243 au  C             1.00      1 D:xz            4
                        (      33.824 eV)
    97      97       --         1.243 au  C             1.00      1 D:yz            4
                        (      33.824 eV)
    98      98       --         4.016 au  C             1.00      1 F:z3            4
                        (     109.271 eV)
    99      99       --         4.016 au  C             1.00      1 F:z             4
                        (     109.271 eV)
   100     100       --         4.016 au  C             1.00      1 F:xyz           4
                        (     109.271 eV)
   101     101       --         4.016 au  C             1.00      1 F:z2x           4
                        (     109.271 eV)
   102     102       --         4.016 au  C             1.00      1 F:z2y           4
                        (     109.271 eV)
   103     103       --         4.016 au  C             1.00      1 F:x             4
                        (     109.271 eV)
   104     104       --         4.016 au  C             1.00      1 F:y             4
                        (     109.271 eV)
   105     105      2.000     -10.066 au  C             1.00      1 S               5
                        (    -273.921 eV)
   106     106      2.000      -0.501 au  C             1.00      2 S               5
                        (     -13.620 eV)
   107     107       --         0.373 au  C             1.00      3 S               5
                        (      10.158 eV)
   108     108       --         5.405 au  C             1.00      4 S               5
                        (     147.073 eV)
   109     109       --        49.848 au  C             1.00      5 S               5
                        (    1356.422 eV)
   110     110      0.667      -0.193 au  C             1.00      1 P:x             5
                        (      -5.239 eV)
   111     111       --         0.169 au  C             1.00      2 P:x             5
                        (       4.589 eV)
   112     112       --         2.013 au  C             1.00      3 P:x             5
                        (      54.789 eV)
   113     113      0.667      -0.193 au  C             1.00      1 P:y             5
                        (      -5.239 eV)
   114     114       --         0.169 au  C             1.00      2 P:y             5
                        (       4.589 eV)
   115     115       --         2.013 au  C             1.00      3 P:y             5
                        (      54.789 eV)
   116     116      0.667      -0.193 au  C             1.00      1 P:z             5
                        (      -5.239 eV)
   117     117       --         0.169 au  C             1.00      2 P:z             5
                        (       4.589 eV)
   118     118       --         2.013 au  C             1.00      3 P:z             5
                        (      54.789 eV)
   119     119       --         1.243 au  C             1.00      1 D:z2            5
                        (      33.824 eV)
   120     120       --         1.243 au  C             1.00      1 D:x2-y2         5
                        (      33.824 eV)
   121     121       --         1.243 au  C             1.00      1 D:xy            5
                        (      33.824 eV)
   122     122       --         1.243 au  C             1.00      1 D:xz            5
                        (      33.824 eV)
   123     123       --         1.243 au  C             1.00      1 D:yz            5
                        (      33.824 eV)
   124     124       --         4.016 au  C             1.00      1 F:z3            5
                        (     109.271 eV)
   125     125       --         4.016 au  C             1.00      1 F:z             5
                        (     109.271 eV)
   126     126       --         4.016 au  C             1.00      1 F:xyz           5
                        (     109.271 eV)
   127     127       --         4.016 au  C             1.00      1 F:z2x           5
                        (     109.271 eV)
   128     128       --         4.016 au  C             1.00      1 F:z2y           5
                        (     109.271 eV)
   129     129       --         4.016 au  C             1.00      1 F:x             5
                        (     109.271 eV)
   130     130       --         4.016 au  C             1.00      1 F:y             5
                        (     109.271 eV)
   131     131      2.000     -10.066 au  C             1.00      1 S               6
                        (    -273.921 eV)
   132     132      2.000      -0.501 au  C             1.00      2 S               6
                        (     -13.620 eV)
   133     133       --         0.373 au  C             1.00      3 S               6
                        (      10.158 eV)
   134     134       --         5.405 au  C             1.00      4 S               6
                        (     147.073 eV)
   135     135       --        49.848 au  C             1.00      5 S               6
                        (    1356.422 eV)
   136     136      0.667      -0.193 au  C             1.00      1 P:x             6
                        (      -5.239 eV)
   137     137       --         0.169 au  C             1.00      2 P:x             6
                        (       4.589 eV)
   138     138       --         2.013 au  C             1.00      3 P:x             6
                        (      54.789 eV)
   139     139      0.667      -0.193 au  C             1.00      1 P:y             6
                        (      -5.239 eV)
   140     140       --         0.169 au  C             1.00      2 P:y             6
                        (       4.589 eV)
   141     141       --         2.013 au  C             1.00      3 P:y             6
                        (      54.789 eV)
   142     142      0.667      -0.193 au  C             1.00      1 P:z             6
                        (      -5.239 eV)
   143     143       --         0.169 au  C             1.00      2 P:z             6
                        (       4.589 eV)
   144     144       --         2.013 au  C             1.00      3 P:z             6
                        (      54.789 eV)
   145     145       --         1.243 au  C             1.00      1 D:z2            6
                        (      33.824 eV)
   146     146       --         1.243 au  C             1.00      1 D:x2-y2         6
                        (      33.824 eV)
   147     147       --         1.243 au  C             1.00      1 D:xy            6
                        (      33.824 eV)
   148     148       --         1.243 au  C             1.00      1 D:xz            6
                        (      33.824 eV)
   149     149       --         1.243 au  C             1.00      1 D:yz            6
                        (      33.824 eV)
   150     150       --         4.016 au  C             1.00      1 F:z3            6
                        (     109.271 eV)
   151     151       --         4.016 au  C             1.00      1 F:z             6
                        (     109.271 eV)
   152     152       --         4.016 au  C             1.00      1 F:xyz           6
                        (     109.271 eV)
   153     153       --         4.016 au  C             1.00      1 F:z2x           6
                        (     109.271 eV)
   154     154       --         4.016 au  C             1.00      1 F:z2y           6
                        (     109.271 eV)
   155     155       --         4.016 au  C             1.00      1 F:x             6
                        (     109.271 eV)
   156     156       --         4.016 au  C             1.00      1 F:y             6
                        (     109.271 eV)
   157     157      2.000     -10.066 au  C             1.00      1 S               7
                        (    -273.921 eV)
   158     158      2.000      -0.501 au  C             1.00      2 S               7
                        (     -13.620 eV)
   159     159       --         0.373 au  C             1.00      3 S               7
                        (      10.158 eV)
   160     160       --         5.405 au  C             1.00      4 S               7
                        (     147.073 eV)
   161     161       --        49.848 au  C             1.00      5 S               7
                        (    1356.422 eV)
   162     162      0.667      -0.193 au  C             1.00      1 P:x             7
                        (      -5.239 eV)
   163     163       --         0.169 au  C             1.00      2 P:x             7
                        (       4.589 eV)
   164     164       --         2.013 au  C             1.00      3 P:x             7
                        (      54.789 eV)
   165     165      0.667      -0.193 au  C             1.00      1 P:y             7
                        (      -5.239 eV)
   166     166       --         0.169 au  C             1.00      2 P:y             7
                        (       4.589 eV)
   167     167       --         2.013 au  C             1.00      3 P:y             7
                        (      54.789 eV)
   168     168      0.667      -0.193 au  C             1.00      1 P:z             7
                        (      -5.239 eV)
   169     169       --         0.169 au  C             1.00      2 P:z             7
                        (       4.589 eV)
   170     170       --         2.013 au  C             1.00      3 P:z             7
                        (      54.789 eV)
   171     171       --         1.243 au  C             1.00      1 D:z2            7
                        (      33.824 eV)
   172     172       --         1.243 au  C             1.00      1 D:x2-y2         7
                        (      33.824 eV)
   173     173       --         1.243 au  C             1.00      1 D:xy            7
                        (      33.824 eV)
   174     174       --         1.243 au  C             1.00      1 D:xz            7
                        (      33.824 eV)
   175     175       --         1.243 au  C             1.00      1 D:yz            7
                        (      33.824 eV)
   176     176       --         4.016 au  C             1.00      1 F:z3            7
                        (     109.271 eV)
   177     177       --         4.016 au  C             1.00      1 F:z             7
                        (     109.271 eV)
   178     178       --         4.016 au  C             1.00      1 F:xyz           7
                        (     109.271 eV)
   179     179       --         4.016 au  C             1.00      1 F:z2x           7
                        (     109.271 eV)
   180     180       --         4.016 au  C             1.00      1 F:z2y           7
                        (     109.271 eV)
   181     181       --         4.016 au  C             1.00      1 F:x             7
                        (     109.271 eV)
   182     182       --         4.016 au  C             1.00      1 F:y             7
                        (     109.271 eV)
   183     183      2.000     -10.066 au  C             1.00      1 S               8
                        (    -273.921 eV)
   184     184      2.000      -0.501 au  C             1.00      2 S               8
                        (     -13.620 eV)
   185     185       --         0.373 au  C             1.00      3 S               8
                        (      10.158 eV)
   186     186       --         5.405 au  C             1.00      4 S               8
                        (     147.073 eV)
   187     187       --        49.848 au  C             1.00      5 S               8
                        (    1356.422 eV)
   188     188      0.667      -0.193 au  C             1.00      1 P:x             8
                        (      -5.239 eV)
   189     189       --         0.169 au  C             1.00      2 P:x             8
                        (       4.589 eV)
   190     190       --         2.013 au  C             1.00      3 P:x             8
                        (      54.789 eV)
   191     191      0.667      -0.193 au  C             1.00      1 P:y             8
                        (      -5.239 eV)
   192     192       --         0.169 au  C             1.00      2 P:y             8
                        (       4.589 eV)
   193     193       --         2.013 au  C             1.00      3 P:y             8
                        (      54.789 eV)
   194     194      0.667      -0.193 au  C             1.00      1 P:z             8
                        (      -5.239 eV)
   195     195       --         0.169 au  C             1.00      2 P:z             8
                        (       4.589 eV)
   196     196       --         2.013 au  C             1.00      3 P:z             8
                        (      54.789 eV)
   197     197       --         1.243 au  C             1.00      1 D:z2            8
                        (      33.824 eV)
   198     198       --         1.243 au  C             1.00      1 D:x2-y2         8
                        (      33.824 eV)
   199     199       --         1.243 au  C             1.00      1 D:xy            8
                        (      33.824 eV)
   200     200       --         1.243 au  C             1.00      1 D:xz            8
                        (      33.824 eV)
   201     201       --         1.243 au  C             1.00      1 D:yz            8
                        (      33.824 eV)
   202     202       --         4.016 au  C             1.00      1 F:z3            8
                        (     109.271 eV)
   203     203       --         4.016 au  C             1.00      1 F:z             8
                        (     109.271 eV)
   204     204       --         4.016 au  C             1.00      1 F:xyz           8
                        (     109.271 eV)
   205     205       --         4.016 au  C             1.00      1 F:z2x           8
                        (     109.271 eV)
   206     206       --         4.016 au  C             1.00      1 F:z2y           8
                        (     109.271 eV)
   207     207       --         4.016 au  C             1.00      1 F:x             8
                        (     109.271 eV)
   208     208       --         4.016 au  C             1.00      1 F:y             8
                        (     109.271 eV)
   209     209      2.000     -10.066 au  C             1.00      1 S               9
                        (    -273.921 eV)
   210     210      2.000      -0.501 au  C             1.00      2 S               9
                        (     -13.620 eV)
   211     211       --         0.373 au  C             1.00      3 S               9
                        (      10.158 eV)
   212     212       --         5.405 au  C             1.00      4 S               9
                        (     147.073 eV)
   213     213       --        49.848 au  C             1.00      5 S               9
                        (    1356.422 eV)
   214     214      0.667      -0.193 au  C             1.00      1 P:x             9
                        (      -5.239 eV)
   215     215       --         0.169 au  C             1.00      2 P:x             9
                        (       4.589 eV)
   216     216       --         2.013 au  C             1.00      3 P:x             9
                        (      54.789 eV)
   217     217      0.667      -0.193 au  C             1.00      1 P:y             9
                        (      -5.239 eV)
   218     218       --         0.169 au  C             1.00      2 P:y             9
                        (       4.589 eV)
   219     219       --         2.013 au  C             1.00      3 P:y             9
                        (      54.789 eV)
   220     220      0.667      -0.193 au  C             1.00      1 P:z             9
                        (      -5.239 eV)
   221     221       --         0.169 au  C             1.00      2 P:z             9
                        (       4.589 eV)
   222     222       --         2.013 au  C             1.00      3 P:z             9
                        (      54.789 eV)
   223     223       --         1.243 au  C             1.00      1 D:z2            9
                        (      33.824 eV)
   224     224       --         1.243 au  C             1.00      1 D:x2-y2         9
                        (      33.824 eV)
   225     225       --         1.243 au  C             1.00      1 D:xy            9
                        (      33.824 eV)
   226     226       --         1.243 au  C             1.00      1 D:xz            9
                        (      33.824 eV)
   227     227       --         1.243 au  C             1.00      1 D:yz            9
                        (      33.824 eV)
   228     228       --         4.016 au  C             1.00      1 F:z3            9
                        (     109.271 eV)
   229     229       --         4.016 au  C             1.00      1 F:z             9
                        (     109.271 eV)
   230     230       --         4.016 au  C             1.00      1 F:xyz           9
                        (     109.271 eV)
   231     231       --         4.016 au  C             1.00      1 F:z2x           9
                        (     109.271 eV)
   232     232       --         4.016 au  C             1.00      1 F:z2y           9
                        (     109.271 eV)
   233     233       --         4.016 au  C             1.00      1 F:x             9
                        (     109.271 eV)
   234     234       --         4.016 au  C             1.00      1 F:y             9
                        (     109.271 eV)
   235     235      2.000     -24.402 au  F             1.00      1 S              10
                        (    -664.014 eV)
   236     236      2.000      -1.095 au  F             1.00      2 S              10
                        (     -29.785 eV)
   237     237       --         0.023 au  F             1.00      3 S              10
                        (       0.624 eV)
   238     238       --         1.576 au  F             1.00      4 S              10
                        (      42.880 eV)
   239     239       --        47.803 au  F             1.00      5 S              10
                        (    1300.785 eV)
   240     240      1.667      -0.409 au  F             1.00      1 P:x            10
                        (     -11.127 eV)
   241     241       --         0.428 au  F             1.00      2 P:x            10
                        (      11.654 eV)
   242     242       --         4.556 au  F             1.00      3 P:x            10
                        (     123.977 eV)
   243     243      1.667      -0.409 au  F             1.00      1 P:y            10
                        (     -11.127 eV)
   244     244       --         0.428 au  F             1.00      2 P:y            10
                        (      11.654 eV)
   245     245       --         4.556 au  F             1.00      3 P:y            10
                        (     123.977 eV)
   246     246      1.667      -0.409 au  F             1.00      1 P:z            10
                        (     -11.127 eV)
   247     247       --         0.428 au  F             1.00      2 P:z            10
                        (      11.654 eV)
   248     248       --         4.556 au  F             1.00      3 P:z            10
                        (     123.977 eV)
   249     249       --         1.117 au  F             1.00      1 D:z2           10
                        (      30.390 eV)
   250     250       --         1.117 au  F             1.00      1 D:x2-y2        10
                        (      30.390 eV)
   251     251       --         1.117 au  F             1.00      1 D:xy           10
                        (      30.390 eV)
   252     252       --         1.117 au  F             1.00      1 D:xz           10
                        (      30.390 eV)
   253     253       --         1.117 au  F             1.00      1 D:yz           10
                        (      30.390 eV)
   254     254       --         3.416 au  F             1.00      1 F:z3           10
                        (      92.949 eV)
   255     255       --         3.416 au  F             1.00      1 F:z            10
                        (      92.949 eV)
   256     256       --         3.416 au  F             1.00      1 F:xyz          10
                        (      92.949 eV)
   257     257       --         3.416 au  F             1.00      1 F:z2x          10
                        (      92.949 eV)
   258     258       --         3.416 au  F             1.00      1 F:z2y          10
                        (      92.949 eV)
   259     259       --         3.416 au  F             1.00      1 F:x            10
                        (      92.949 eV)
   260     260       --         3.416 au  F             1.00      1 F:y            10
                        (      92.949 eV)
   261     261      2.000     -24.402 au  F             1.00      1 S              11
                        (    -664.014 eV)
   262     262      2.000      -1.095 au  F             1.00      2 S              11
                        (     -29.785 eV)
   263     263       --         0.023 au  F             1.00      3 S              11
                        (       0.624 eV)
   264     264       --         1.576 au  F             1.00      4 S              11
                        (      42.880 eV)
   265     265       --        47.803 au  F             1.00      5 S              11
                        (    1300.785 eV)
   266     266      1.667      -0.409 au  F             1.00      1 P:x            11
                        (     -11.127 eV)
   267     267       --         0.428 au  F             1.00      2 P:x            11
                        (      11.654 eV)
   268     268       --         4.556 au  F             1.00      3 P:x            11
                        (     123.977 eV)
   269     269      1.667      -0.409 au  F             1.00      1 P:y            11
                        (     -11.127 eV)
   270     270       --         0.428 au  F             1.00      2 P:y            11
                        (      11.654 eV)
   271     271       --         4.556 au  F             1.00      3 P:y            11
                        (     123.977 eV)
   272     272      1.667      -0.409 au  F             1.00      1 P:z            11
                        (     -11.127 eV)
   273     273       --         0.428 au  F             1.00      2 P:z            11
                        (      11.654 eV)
   274     274       --         4.556 au  F             1.00      3 P:z            11
                        (     123.977 eV)
   275     275       --         1.117 au  F             1.00      1 D:z2           11
                        (      30.390 eV)
   276     276       --         1.117 au  F             1.00      1 D:x2-y2        11
                        (      30.390 eV)
   277     277       --         1.117 au  F             1.00      1 D:xy           11
                        (      30.390 eV)
   278     278       --         1.117 au  F             1.00      1 D:xz           11
                        (      30.390 eV)
   279     279       --         1.117 au  F             1.00      1 D:yz           11
                        (      30.390 eV)
   280     280       --         3.416 au  F             1.00      1 F:z3           11
                        (      92.949 eV)
   281     281       --         3.416 au  F             1.00      1 F:z            11
                        (      92.949 eV)
   282     282       --         3.416 au  F             1.00      1 F:xyz          11
                        (      92.949 eV)
   283     283       --         3.416 au  F             1.00      1 F:z2x          11
                        (      92.949 eV)
   284     284       --         3.416 au  F             1.00      1 F:z2y          11
                        (      92.949 eV)
   285     285       --         3.416 au  F             1.00      1 F:x            11
                        (      92.949 eV)
   286     286       --         3.416 au  F             1.00      1 F:y            11
                        (      92.949 eV)
   287     287      2.000     -24.402 au  F             1.00      1 S              12
                        (    -664.014 eV)
   288     288      2.000      -1.095 au  F             1.00      2 S              12
                        (     -29.785 eV)
   289     289       --         0.023 au  F             1.00      3 S              12
                        (       0.624 eV)
   290     290       --         1.576 au  F             1.00      4 S              12
                        (      42.880 eV)
   291     291       --        47.803 au  F             1.00      5 S              12
                        (    1300.785 eV)
   292     292      1.667      -0.409 au  F             1.00      1 P:x            12
                        (     -11.127 eV)
   293     293       --         0.428 au  F             1.00      2 P:x            12
                        (      11.654 eV)
   294     294       --         4.556 au  F             1.00      3 P:x            12
                        (     123.977 eV)
   295     295      1.667      -0.409 au  F             1.00      1 P:y            12
                        (     -11.127 eV)
   296     296       --         0.428 au  F             1.00      2 P:y            12
                        (      11.654 eV)
   297     297       --         4.556 au  F             1.00      3 P:y            12
                        (     123.977 eV)
   298     298      1.667      -0.409 au  F             1.00      1 P:z            12
                        (     -11.127 eV)
   299     299       --         0.428 au  F             1.00      2 P:z            12
                        (      11.654 eV)
   300     300       --         4.556 au  F             1.00      3 P:z            12
                        (     123.977 eV)
   301     301       --         1.117 au  F             1.00      1 D:z2           12
                        (      30.390 eV)
   302     302       --         1.117 au  F             1.00      1 D:x2-y2        12
                        (      30.390 eV)
   303     303       --         1.117 au  F             1.00      1 D:xy           12
                        (      30.390 eV)
   304     304       --         1.117 au  F             1.00      1 D:xz           12
                        (      30.390 eV)
   305     305       --         1.117 au  F             1.00      1 D:yz           12
                        (      30.390 eV)
   306     306       --         3.416 au  F             1.00      1 F:z3           12
                        (      92.949 eV)
   307     307       --         3.416 au  F             1.00      1 F:z            12
                        (      92.949 eV)
   308     308       --         3.416 au  F             1.00      1 F:xyz          12
                        (      92.949 eV)
   309     309       --         3.416 au  F             1.00      1 F:z2x          12
                        (      92.949 eV)
   310     310       --         3.416 au  F             1.00      1 F:z2y          12
                        (      92.949 eV)
   311     311       --         3.416 au  F             1.00      1 F:x            12
                        (      92.949 eV)
   312     312       --         3.416 au  F             1.00      1 F:y            12
                        (      92.949 eV)
   313     313      2.000     -18.941 au  O             1.00      1 S              13
                        (    -515.403 eV)
   314     314      2.000      -0.876 au  O             1.00      2 S              13
                        (     -23.838 eV)
   315     315       --         0.791 au  O             1.00      3 S              13
                        (      21.524 eV)
   316     316       --        13.422 au  O             1.00      4 S              13
                        (     365.226 eV)
   317     317       --       121.561 au  O             1.00      5 S              13
                        (    3307.838 eV)
   318     318      1.333      -0.331 au  O             1.00      1 P:x            13
                        (      -9.020 eV)
   319     319       --         0.347 au  O             1.00      2 P:x            13
                        (       9.437 eV)
   320     320       --         3.820 au  O             1.00      3 P:x            13
                        (     103.939 eV)
   321     321      1.333      -0.331 au  O             1.00      1 P:y            13
                        (      -9.020 eV)
   322     322       --         0.347 au  O             1.00      2 P:y            13
                        (       9.437 eV)
   323     323       --         3.820 au  O             1.00      3 P:y            13
                        (     103.939 eV)
   324     324      1.333      -0.331 au  O             1.00      1 P:z            13
                        (      -9.020 eV)
   325     325       --         0.347 au  O             1.00      2 P:z            13
                        (       9.437 eV)
   326     326       --         3.820 au  O             1.00      3 P:z            13
                        (     103.939 eV)
   327     327       --         1.071 au  O             1.00      1 D:z2           13
                        (      29.134 eV)
   328     328       --         1.071 au  O             1.00      1 D:x2-y2        13
                        (      29.134 eV)
   329     329       --         1.071 au  O             1.00      1 D:xy           13
                        (      29.134 eV)
   330     330       --         1.071 au  O             1.00      1 D:xz           13
                        (      29.134 eV)
   331     331       --         1.071 au  O             1.00      1 D:yz           13
                        (      29.134 eV)
   332     332       --         3.359 au  O             1.00      1 F:z3           13
                        (      91.410 eV)
   333     333       --         3.359 au  O             1.00      1 F:z            13
                        (      91.410 eV)
   334     334       --         3.359 au  O             1.00      1 F:xyz          13
                        (      91.410 eV)
   335     335       --         3.359 au  O             1.00      1 F:z2x          13
                        (      91.410 eV)
   336     336       --         3.359 au  O             1.00      1 F:z2y          13
                        (      91.410 eV)
   337     337       --         3.359 au  O             1.00      1 F:x            13
                        (      91.410 eV)
   338     338       --         3.359 au  O             1.00      1 F:y            13
                        (      91.410 eV)
   339     339      1.000      -0.240 au  H             1.00      1 S              14
                        (      -6.532 eV)
   340     340       --         0.088 au  H             1.00      2 S              14
                        (       2.394 eV)
   341     341       --         1.502 au  H             1.00      3 S              14
                        (      40.869 eV)
   342     342       --         0.406 au  H             1.00      1 P:x            14
                        (      11.051 eV)
   343     343       --         0.406 au  H             1.00      1 P:y            14
                        (      11.051 eV)
   344     344       --         0.406 au  H             1.00      1 P:z            14
                        (      11.051 eV)
   345     345       --         2.569 au  H             1.00      1 D:z2           14
                        (      69.917 eV)
   346     346       --         2.569 au  H             1.00      1 D:x2-y2        14
                        (      69.917 eV)
   347     347       --         2.569 au  H             1.00      1 D:xy           14
                        (      69.917 eV)
   348     348       --         2.569 au  H             1.00      1 D:xz           14
                        (      69.917 eV)
   349     349       --         2.569 au  H             1.00      1 D:yz           14
                        (      69.917 eV)
   350     350      1.000      -0.240 au  H             1.00      1 S              15
                        (      -6.532 eV)
   351     351       --         0.088 au  H             1.00      2 S              15
                        (       2.394 eV)
   352     352       --         1.502 au  H             1.00      3 S              15
                        (      40.869 eV)
   353     353       --         0.406 au  H             1.00      1 P:x            15
                        (      11.051 eV)
   354     354       --         0.406 au  H             1.00      1 P:y            15
                        (      11.051 eV)
   355     355       --         0.406 au  H             1.00      1 P:z            15
                        (      11.051 eV)
   356     356       --         2.569 au  H             1.00      1 D:z2           15
                        (      69.917 eV)
   357     357       --         2.569 au  H             1.00      1 D:x2-y2        15
                        (      69.917 eV)
   358     358       --         2.569 au  H             1.00      1 D:xy           15
                        (      69.917 eV)
   359     359       --         2.569 au  H             1.00      1 D:xz           15
                        (      69.917 eV)
   360     360       --         2.569 au  H             1.00      1 D:yz           15
                        (      69.917 eV)
   361     361      1.000      -0.240 au  H             1.00      1 S              16
                        (      -6.532 eV)
   362     362       --         0.088 au  H             1.00      2 S              16
                        (       2.394 eV)
   363     363       --         1.502 au  H             1.00      3 S              16
                        (      40.869 eV)
   364     364       --         0.406 au  H             1.00      1 P:x            16
                        (      11.051 eV)
   365     365       --         0.406 au  H             1.00      1 P:y            16
                        (      11.051 eV)
   366     366       --         0.406 au  H             1.00      1 P:z            16
                        (      11.051 eV)
   367     367       --         2.569 au  H             1.00      1 D:z2           16
                        (      69.917 eV)
   368     368       --         2.569 au  H             1.00      1 D:x2-y2        16
                        (      69.917 eV)
   369     369       --         2.569 au  H             1.00      1 D:xy           16
                        (      69.917 eV)
   370     370       --         2.569 au  H             1.00      1 D:xz           16
                        (      69.917 eV)
   371     371       --         2.569 au  H             1.00      1 D:yz           16
                        (      69.917 eV)
   372     372      1.000      -0.240 au  H             1.00      1 S              17
                        (      -6.532 eV)
   373     373       --         0.088 au  H             1.00      2 S              17
                        (       2.394 eV)
   374     374       --         1.502 au  H             1.00      3 S              17
                        (      40.869 eV)
   375     375       --         0.406 au  H             1.00      1 P:x            17
                        (      11.051 eV)
   376     376       --         0.406 au  H             1.00      1 P:y            17
                        (      11.051 eV)
   377     377       --         0.406 au  H             1.00      1 P:z            17
                        (      11.051 eV)
   378     378       --         2.569 au  H             1.00      1 D:z2           17
                        (      69.917 eV)
   379     379       --         2.569 au  H             1.00      1 D:x2-y2        17
                        (      69.917 eV)
   380     380       --         2.569 au  H             1.00      1 D:xy           17
                        (      69.917 eV)
   381     381       --         2.569 au  H             1.00      1 D:xz           17
                        (      69.917 eV)
   382     382       --         2.569 au  H             1.00      1 D:yz           17
                        (      69.917 eV)
   383     383      1.000      -0.240 au  H             1.00      1 S              18
                        (      -6.532 eV)
   384     384       --         0.088 au  H             1.00      2 S              18
                        (       2.394 eV)
   385     385       --         1.502 au  H             1.00      3 S              18
                        (      40.869 eV)
   386     386       --         0.406 au  H             1.00      1 P:x            18
                        (      11.051 eV)
   387     387       --         0.406 au  H             1.00      1 P:y            18
                        (      11.051 eV)
   388     388       --         0.406 au  H             1.00      1 P:z            18
                        (      11.051 eV)
   389     389       --         2.569 au  H             1.00      1 D:z2           18
                        (      69.917 eV)
   390     390       --         2.569 au  H             1.00      1 D:x2-y2        18
                        (      69.917 eV)
   391     391       --         2.569 au  H             1.00      1 D:xy           18
                        (      69.917 eV)
   392     392       --         2.569 au  H             1.00      1 D:xz           18
                        (      69.917 eV)
   393     393       --         2.569 au  H             1.00      1 D:yz           18
                        (      69.917 eV)
   394     394      1.000      -0.240 au  H             1.00      1 S              19
                        (      -6.532 eV)
   395     395       --         0.088 au  H             1.00      2 S              19
                        (       2.394 eV)
   396     396       --         1.502 au  H             1.00      3 S              19
                        (      40.869 eV)
   397     397       --         0.406 au  H             1.00      1 P:x            19
                        (      11.051 eV)
   398     398       --         0.406 au  H             1.00      1 P:y            19
                        (      11.051 eV)
   399     399       --         0.406 au  H             1.00      1 P:z            19
                        (      11.051 eV)
   400     400       --         2.569 au  H             1.00      1 D:z2           19
                        (      69.917 eV)
   401     401       --         2.569 au  H             1.00      1 D:x2-y2        19
                        (      69.917 eV)
   402     402       --         2.569 au  H             1.00      1 D:xy           19
                        (      69.917 eV)
   403     403       --         2.569 au  H             1.00      1 D:xz           19
                        (      69.917 eV)
   404     404       --         2.569 au  H             1.00      1 D:yz           19
                        (      69.917 eV)
   405     405      1.000      -0.240 au  H             1.00      1 S              20
                        (      -6.532 eV)
   406     406       --         0.088 au  H             1.00      2 S              20
                        (       2.394 eV)
   407     407       --         1.502 au  H             1.00      3 S              20
                        (      40.869 eV)
   408     408       --         0.406 au  H             1.00      1 P:x            20
                        (      11.051 eV)
   409     409       --         0.406 au  H             1.00      1 P:y            20
                        (      11.051 eV)
   410     410       --         0.406 au  H             1.00      1 P:z            20
                        (      11.051 eV)
   411     411       --         2.569 au  H             1.00      1 D:z2           20
                        (      69.917 eV)
   412     412       --         2.569 au  H             1.00      1 D:x2-y2        20
                        (      69.917 eV)
   413     413       --         2.569 au  H             1.00      1 D:xy           20
                        (      69.917 eV)
   414     414       --         2.569 au  H             1.00      1 D:xz           20
                        (      69.917 eV)
   415     415       --         2.569 au  H             1.00      1 D:yz           20
                        (      69.917 eV)
   416     416      1.000      -0.240 au  H             1.00      1 S              21
                        (      -6.532 eV)
   417     417       --         0.088 au  H             1.00      2 S              21
                        (       2.394 eV)
   418     418       --         1.502 au  H             1.00      3 S              21
                        (      40.869 eV)
   419     419       --         0.406 au  H             1.00      1 P:x            21
                        (      11.051 eV)
   420     420       --         0.406 au  H             1.00      1 P:y            21
                        (      11.051 eV)
   421     421       --         0.406 au  H             1.00      1 P:z            21
                        (      11.051 eV)
   422     422       --         2.569 au  H             1.00      1 D:z2           21
                        (      69.917 eV)
   423     423       --         2.569 au  H             1.00      1 D:x2-y2        21
                        (      69.917 eV)
   424     424       --         2.569 au  H             1.00      1 D:xy           21
                        (      69.917 eV)
   425     425       --         2.569 au  H             1.00      1 D:xz           21
                        (      69.917 eV)
   426     426       --         2.569 au  H             1.00      1 D:yz           21
                        (      69.917 eV)
   427     427      1.000      -0.240 au  H             1.00      1 S              22
                        (      -6.532 eV)
   428     428       --         0.088 au  H             1.00      2 S              22
                        (       2.394 eV)
   429     429       --         1.502 au  H             1.00      3 S              22
                        (      40.869 eV)
   430     430       --         0.406 au  H             1.00      1 P:x            22
                        (      11.051 eV)
   431     431       --         0.406 au  H             1.00      1 P:y            22
                        (      11.051 eV)
   432     432       --         0.406 au  H             1.00      1 P:z            22
                        (      11.051 eV)
   433     433       --         2.569 au  H             1.00      1 D:z2           22
                        (      69.917 eV)
   434     434       --         2.569 au  H             1.00      1 D:x2-y2        22
                        (      69.917 eV)
   435     435       --         2.569 au  H             1.00      1 D:xy           22
                        (      69.917 eV)
   436     436       --         2.569 au  H             1.00      1 D:xz           22
                        (      69.917 eV)
   437     437       --         2.569 au  H             1.00      1 D:yz           22
                        (      69.917 eV)
   438     438      1.000      -0.240 au  H             1.00      1 S              23
                        (      -6.532 eV)
   439     439       --         0.088 au  H             1.00      2 S              23
                        (       2.394 eV)
   440     440       --         1.502 au  H             1.00      3 S              23
                        (      40.869 eV)
   441     441       --         0.406 au  H             1.00      1 P:x            23
                        (      11.051 eV)
   442     442       --         0.406 au  H             1.00      1 P:y            23
                        (      11.051 eV)
   443     443       --         0.406 au  H             1.00      1 P:z            23
                        (      11.051 eV)
   444     444       --         2.569 au  H             1.00      1 D:z2           23
                        (      69.917 eV)
   445     445       --         2.569 au  H             1.00      1 D:x2-y2        23
                        (      69.917 eV)
   446     446       --         2.569 au  H             1.00      1 D:xy           23
                        (      69.917 eV)
   447     447       --         2.569 au  H             1.00      1 D:xz           23
                        (      69.917 eV)
   448     448       --         2.569 au  H             1.00      1 D:yz           23
                        (      69.917 eV)
   449     449      1.000      -0.240 au  H             1.00      1 S              24
                        (      -6.532 eV)
   450     450       --         0.088 au  H             1.00      2 S              24
                        (       2.394 eV)
   451     451       --         1.502 au  H             1.00      3 S              24
                        (      40.869 eV)
   452     452       --         0.406 au  H             1.00      1 P:x            24
                        (      11.051 eV)
   453     453       --         0.406 au  H             1.00      1 P:y            24
                        (      11.051 eV)
   454     454       --         0.406 au  H             1.00      1 P:z            24
                        (      11.051 eV)
   455     455       --         2.569 au  H             1.00      1 D:z2           24
                        (      69.917 eV)
   456     456       --         2.569 au  H             1.00      1 D:x2-y2        24
                        (      69.917 eV)
   457     457       --         2.569 au  H             1.00      1 D:xy           24
                        (      69.917 eV)
   458     458       --         2.569 au  H             1.00      1 D:xz           24
                        (      69.917 eV)
   459     459       --         2.569 au  H             1.00      1 D:yz           24
                        (      69.917 eV)



 ================================
 (Slater-type)  F U N C T I O N S  ***  (Basis and Fit)  ***
 ================================
  

 Atom Type    1  (C)
 ==============

 Valence Basis Sets:  10
 -----------------------
   1 S    7.680000
   1 S    5.000000
   2 S    1.280000
   2 S    2.100000
   2 S    4.600000
   2 P    0.820000
   2 P    1.480000
   2 P    2.940000
   3 D    2.200000
   4 F    3.300000

 Atom Type    2  (F)
 ==============

 Valence Basis Sets:  10
 -----------------------
   1 S   10.880000
   1 S    7.700000
   2 S    3.240000
   2 S    1.940000
   2 S    0.740000
   2 P    4.540000
   2 P    2.300000
   2 P    1.240000
   3 D    2.000000
   4 F    3.000000

 Atom Type    3  (O)
 ==============

 Valence Basis Sets:  10
 -----------------------
   1 S    9.800000
   1 S    6.800000
   2 S    7.580000
   2 S    2.880000
   2 S    1.720000
   2 P    4.080000
   2 P    2.080000
   2 P    1.120000
   3 D    2.000000
   4 F    3.000000

 Atom Type    4  (H)
 ==============

 Valence Basis Sets:   5
 -----------------------
   1 S    0.690000
   1 S    0.920000
   1 S    1.580000
   2 P    1.250000
   3 D    2.500000


 BAS: List of all Elementary Cartesian Basis Functions
 =====================================================

 The numbering in the list below (to the right of the function characteristics) is referred
 to in print-outs of MO eigenvectors and Mulliken populations in the BAS representation
 (as contrasted to the SFO representation).

 Notes:
 1. The functions are characterized by a polynomial prefactor (powers of x,y,z and r) and
    an exponential decay factor alpha.
[...]
                                    1.64%     2 S             -13.620  2.00     9 C
                                    1.40%     4 S              42.880  0.00    11 F
                                    1.34%     1 P:x            -5.239  0.67     4 C
                                    1.31%     2 P:x             4.589  0.00     2 C
                                    1.29%     2 S             -13.620  2.00     1 C
                                    1.24%     3 P:z            54.789  0.00     9 C
                                    1.16%     2 P:x             4.589  0.00     5 C
                                   -1.16%     2 P:y             4.589  0.00     3 C
                                    1.15%     3 S              40.869  0.00    19 H
                                   -1.11%     3 S              10.158  0.00     9 C
                                    1.10%     1 S              -6.532  1.00    15 H
                                   -1.08%     2 S               2.394  0.00    24 H
       2.508  0.00    66 A         11.52%     1 P:x            -5.239  0.67     3 C
                                    9.52%     1 P:z            -5.239  0.67     3 C
                                    9.03%     1 P:z            -5.239  0.67     9 C
                                    7.69%     1 S              -6.532  1.00    16 H
                                    5.96%     1 P:y            -5.239  0.67     4 C
                                   -5.76%     2 S               2.394  0.00    15 H
                                    5.69%     2 S               2.394  0.00    18 H
                                    5.09%     1 S              -6.532  1.00    23 H
                                    4.84%     2 S             -13.620  2.00     3 C
                                    4.79%     1 P:x           -11.127  1.67    10 F
                                    3.27%     1 S              -6.532  1.00    20 H
                                   -3.18%     2 P:x             4.589  0.00     3 C
                                    3.16%     2 P:y             4.589  0.00     4 C
                                    3.12%     1 S              -6.532  1.00    15 H
                                    3.10%     2 S             -13.620  2.00     5 C
                                    3.09%     1 S              -6.532  1.00    17 H
                                   -2.98%     3 S              10.158  0.00     5 C
                                    2.86%     1 S              -6.532  1.00    18 H
                                   -2.80%     2 S               2.394  0.00    23 H
                                    2.53%     1 S              -6.532  1.00    21 H
                                    2.28%     1 S              -6.532  1.00    14 H
                                    2.06%     1 P:z           -11.127  1.67    10 F
                                    2.02%     1 P:y            -5.239  0.67     9 C
                                    1.88%     3 S               0.624  0.00    11 F
                                    1.80%     2 S               2.394  0.00    19 H
                                    1.69%     2 S               2.394  0.00    20 H
                                    1.67%     1 S              -6.532  1.00    19 H
                                   -1.50%     2 P:x            11.654  0.00    10 F
                                    1.50%     1 P:x            -5.239  0.67     6 C
                                    1.46%     1 P:x           -11.127  1.67    12 F
                                   -1.44%     4 S              42.880  0.00    10 F
                                    1.43%     2 P:y             4.589  0.00     7 C
                                    1.32%     2 P:y             4.589  0.00     6 C
                                   -1.30%     2 S               2.394  0.00    22 H
                                   -1.29%     2 S               2.394  0.00    16 H
                                   -1.22%     3 S              10.158  0.00     3 C
                                    1.18%     2 S             -29.785  2.00    10 F
                                    1.17%     1 P:y            -5.239  0.67     7 C
                                    1.17%     2 S               2.394  0.00    14 H
                                    1.16%     1 P:y            -5.239  0.67     6 C
                                    1.05%     1 P:z           -11.127  1.67    11 F
                                    1.04%     1 P:z            -5.239  0.67     4 C



 =======================================================================
 Electrostatic potential at the Nuclei due to electrons and other nuclei
 =======================================================================
  
         Atom                  Potential
         ----                  ---------
     1)   C                  14.77170537
     2)   C                  14.76790727
     3)   C                  14.61750496
     4)   F                  26.65516786
     5)   O                  22.36106004
     6)   C                  14.72508350
     7)   C                  14.75977612
     8)   C                  14.76755520
     9)   C                  14.77091483
    10)   C                  14.76378738
    11)   C                  14.59633704
    12)   F                  26.63944352
    13)   F                  26.63939336
    14)   H                   1.09568781
    15)   H                   1.09350178
    16)   H                   1.09527999
    17)   H                   1.09046010
    18)   H                   1.09197503
    19)   H                   1.10932977
    20)   H                   1.11011374
    21)   H                   1.11146136
    22)   H                   1.11201901
    23)   H                   1.09427552
    24)   H                   1.09577077
 Mulliken charges used for AMS results%charges...


    =====================
     CALCULATION RESULTS
    =====================

Energy (hartree)            -4.85295125


--------------
Atomic charges
--------------
  Index   Atom    Charge
      1      C   -0.0900
      2      C   -0.0577
      3      C    0.7286
      4      F   -0.4328
      5      O   -0.5722
      6      C    0.9703
      7      C    0.4095
      8      C    0.3978
      9      C    0.3736
     10      C    0.4028
     11      C    0.8566
     12      F   -0.4153
     13      F   -0.4118
     14      H   -0.1899
     15      H   -0.2399
     16      H   -0.2032
     17      H   -0.1893
     18      H   -0.1897
     19      H   -0.2081
     20      H   -0.1884
     21      H   -0.1582
     22      H   -0.1974
     23      H   -0.2016
     24      H   -0.1938


Dipole moment vector    (Debye):    -3.70125014   -2.52365293   -2.32047742
              magnitude (Debye):     5.04506612


-----------------------
Molecular orbitals info
-----------------------
n orbitals:              459
n spin:                    1

Note: only printing virtual orbitals with
      energy smaller than HOMO + 100. eV

HOMO (eV):              -6.9815
LUMO (eV):              -2.7072
HOMO-LUMO gap (eV):      4.2744

   Index   Energy (eV)    Occupation
     287       92.3083         0.000       
     286       92.2810         0.000       
     285       91.7882         0.000       
     284       91.6911         0.000       
     283       91.2870         0.000       
     282       90.7774         0.000       
     281       89.8478         0.000       
     280       89.4240         0.000       
     279       89.0187         0.000       
     278       88.7720         0.000       
     277       88.2960         0.000       
     276       87.9219         0.000       
     275       87.1346         0.000       
     274       86.8108         0.000       
     273       86.1247         0.000       
     272       85.6578         0.000       
     271       84.8501         0.000       
     270       83.8310         0.000       
     269       83.5942         0.000       
     268       83.3321         0.000       
     267       82.9543         0.000       
     266       82.5409         0.000       
     265       81.6838         0.000       
     264       81.1023         0.000       
     263       80.7902         0.000       
     262       80.3779         0.000       
     261       80.0859         0.000       
     260       79.5918         0.000       
     259       79.1742         0.000       
     258       79.0752         0.000       
     257       78.3676         0.000       
     256       77.9638         0.000       
     255       77.6002         0.000       
     254       77.3848         0.000       
     253       77.0746         0.000       
     252       76.4247         0.000       
     251       76.3301         0.000       
     250       75.8200         0.000       
     249       75.6949         0.000       
     248       75.2530         0.000       
     247       74.5746         0.000       
     246       73.9556         0.000       
     245       73.4556         0.000       
     244       72.8673         0.000       
     243       71.9123         0.000       
     242       71.4957         0.000       
     241       71.1508         0.000       
     240       70.7495         0.000       
     239       69.0625         0.000       
     238       68.7162         0.000       
     237       67.4802         0.000       
     236       67.0229         0.000       
     235       66.2345         0.000       
     234       65.5437         0.000       
     233       65.0783         0.000       
     232       64.4904         0.000       
     231       63.5674         0.000       
     230       62.9812         0.000       
     229       62.7704         0.000       
     228       61.9291         0.000       
     227       61.6413         0.000       
     226       60.8162         0.000       
     225       60.6528         0.000       
     224       59.4892         0.000       
     223       59.3740         0.000       
     222       58.6496         0.000       
     221       58.1792         0.000       
     220       57.9962         0.000       
     219       57.2720         0.000       
     218       56.6850         0.000       
     217       56.3108         0.000       
     216       55.8362         0.000       
     215       55.6312         0.000       
     214       55.4497         0.000       
     213       55.0962         0.000       
     212       54.2013         0.000       
     211       53.3406         0.000       
     210       53.1171         0.000       
     209       52.6034         0.000       
     208       52.2578         0.000       
     207       51.9877         0.000       
     206       51.4070         0.000       
     205       50.9298         0.000       
     204       50.8165         0.000       
     203       50.3507         0.000       
     202       49.5504         0.000       
     201       49.3613         0.000       
     200       48.9814         0.000       
     199       48.5917         0.000       
     198       47.8874         0.000       
     197       47.3258         0.000       
     196       46.6512         0.000       
     195       46.3425         0.000       
     194       46.1195         0.000       
     193       45.9329         0.000       
     192       45.2941         0.000       
     191       44.9433         0.000       
     190       44.3897         0.000       
     189       44.0640         0.000       
     188       43.6759         0.000       
     187       43.0763         0.000       
     186       42.6105         0.000       
     185       42.1674         0.000       
     184       41.6929         0.000       
     183       41.3340         0.000       
     182       41.2959         0.000       
     181       40.9112         0.000       
     180       40.1599         0.000       
     179       39.7791         0.000       
     178       39.4657         0.000       
     177       39.1753         0.000       
     176       38.7099         0.000       
     175       38.5899         0.000       
     174       37.9621         0.000       
     173       36.9791         0.000       
     172       36.8607         0.000       
     171       36.5242         0.000       
     170       36.1333         0.000       
     169       35.8822         0.000       
     168       35.5663         0.000       
     167       35.1368         0.000       
     166       34.5988         0.000       
     165       34.2318         0.000       
     164       33.7754         0.000       
     163       33.7249         0.000       
     162       33.5634         0.000       
     161       33.3213         0.000       
     160       33.1903         0.000       
     159       32.6148         0.000       
     158       31.9133         0.000       
     157       31.8698         0.000       
     156       31.3470         0.000       
     155       30.9119         0.000       
     154       30.6824         0.000       
     153       30.4706         0.000       
     152       30.1672         0.000       
     151       29.8479         0.000       
     150       29.4251         0.000       
     149       29.1961         0.000       
     148       28.6437         0.000       
     147       28.3753         0.000       
     146       27.8939         0.000       
     145       27.5778         0.000       
     144       27.1538         0.000       
     143       26.9614         0.000       
     142       26.5368         0.000       
     141       26.0389         0.000       
     140       25.8895         0.000       
     139       25.5655         0.000       
     138       25.1280         0.000       
     137       24.8900         0.000       
     136       24.7118         0.000       
     135       24.3914         0.000       
     134       24.0351         0.000       
     133       23.6797         0.000       
     132       23.3382         0.000       
     131       22.6047         0.000       
     130       22.1887         0.000       
     129       22.0387         0.000       
     128       21.4475         0.000       
     127       21.2460         0.000       
     126       20.7808         0.000       
     125       20.2259         0.000       
     124       20.0642         0.000       
     123       19.9098         0.000       
     122       19.0871         0.000       
     121       18.8530         0.000       
     120       18.3563         0.000       
     119       18.2189         0.000       
     118       17.4608         0.000       
     117       17.2219         0.000       
     116       16.6653         0.000       
     115       15.8454         0.000       
     114       14.5659         0.000       
     113       14.5442         0.000       
     112       14.1442         0.000       
     111       13.5731         0.000       
     110       13.4287         0.000       
     109       12.6554         0.000       
     108       12.5414         0.000       
     107       12.1911         0.000       
     106       11.7387         0.000       
     105       11.6334         0.000       
     104       11.3903         0.000       
     103       11.2235         0.000       
     102       11.0642         0.000       
     101       10.6200         0.000       
     100       10.4875         0.000       
      99       10.3378         0.000       
      98       10.0136         0.000       
      97        9.7715         0.000       
      96        9.5752         0.000       
      95        9.2334         0.000       
      94        9.0673         0.000       
      93        8.8608         0.000       
      92        8.7032         0.000       
      91        8.4856         0.000       
      90        8.4100         0.000       
      89        8.0630         0.000       
      88        7.8229         0.000       
      87        7.6530         0.000       
      86        7.1467         0.000       
      85        6.9918         0.000       
      84        6.6967         0.000       
      83        6.4140         0.000       
      82        6.1665         0.000       
      81        5.8755         0.000       
      80        5.6561         0.000       
      79        5.4226         0.000       
      78        5.3571         0.000       
      77        5.2794         0.000       
      76        4.5432         0.000       
      75        4.4370         0.000       
      74        4.2030         0.000       
      73        4.0361         0.000       
      72        3.8617         0.000       
      71        3.4902         0.000       
      70        3.3724         0.000       
      69        3.2677         0.000       
      68        3.1167         0.000       
      67        2.8019         0.000       
      66        2.5078         0.000       
      65        2.3065         0.000       
      64        2.0998         0.000       
      63        1.8032         0.000       
      62        1.6797         0.000       
      61        1.3656         0.000       
      60        1.2309         0.000       
      59        1.0194         0.000       
      58        0.9605         0.000       
      57        0.8380         0.000       
      56        0.3900         0.000       
      55        0.2209         0.000       
      54       -0.1387         0.000       
      53       -0.5026         0.000       
      52       -1.2012         0.000       
      51       -2.7072         0.000 < LUMO
      50       -6.9815         2.000 < HOMO
      49       -7.0413         2.000       
      48       -7.3758         2.000       
      47       -7.8166         2.000       
      46       -8.1405         2.000       
      45       -8.4328         2.000       
      44       -8.5764         2.000       
      43       -9.0032         2.000       
      42       -9.1087         2.000       
      41       -9.2729         2.000       
      40       -9.5096         2.000       
      39       -9.7295         2.000       
      38      -10.0146         2.000       
      37      -10.1182         2.000       
      36      -10.6133         2.000       
      35      -10.6980         2.000       
      34      -10.9302         2.000       
      33      -11.1924         2.000       
      32      -11.3543         2.000       
      31      -12.3213         2.000       
      30      -12.5076         2.000       
      29      -13.3543         2.000       
      28      -13.4060         2.000       
      27      -13.5110         2.000       
      26      -14.0172         2.000       
      25      -14.9834         2.000       
      24      -15.2339         2.000       
      23      -16.6594         2.000       
      22      -17.4209         2.000       
      21      -18.2188         2.000       
      20      -19.4990         2.000       
      19      -19.8929         2.000       
      18      -20.9975         2.000       
      17      -26.7245         2.000       
      16      -29.7936         2.000       
      15      -30.1083         2.000       
      14      -31.3833         2.000       
      13     -270.3663         2.000       
      12     -270.4685         2.000       
      11     -270.6262         2.000       
      10     -270.6363         2.000       
       9     -270.7255         2.000       
       8     -270.7778         2.000       
       7     -271.6288         2.000       
       6     -274.4952         2.000       
       5     -275.0607         2.000       
       4     -512.4389         2.000       
       3     -661.3000         2.000       
       2     -661.7040         2.000       
       1     -661.7172         2.000       

AMS application finished. Exiting.
NORMAL TERMINATION
     Total cpu time:     108.06
  Total system time:       0.42
 Total elapsed time:     109.10
NORMAL TERMINATION
