srun: Job 662083 step creation still disabled, retrying (Requested nodes are busy)
srun: Job 662083 step creation still disabled, retrying (Requested nodes are busy)
srun: Job 662083 step creation still disabled, retrying (Requested nodes are busy)
srun: Job 662083 step creation still disabled, retrying (Requested nodes are busy)
srun: Job 662083 step creation still disabled, retrying (Requested nodes are busy)
srun: Job 662083 step creation still disabled, retrying (Requested nodes are busy)
srun: Job 662083 step creation still disabled, retrying (Requested nodes are busy)
srun: Job 662083 step creation still disabled, retrying (Requested nodes are busy)
srun: Job 662083 step creation still disabled, retrying (Requested nodes are busy)
srun: Job 662083 step creation still disabled, retrying (Requested nodes are busy)
srun: Job 662083 step creation still disabled, retrying (Requested nodes are busy)
srun: Job 662083 step creation still disabled, retrying (Requested nodes are busy)
srun: Job 662083 step creation still disabled, retrying (Requested nodes are busy)
srun: Job 662083 step creation still disabled, retrying (Requested nodes are busy)
srun: Job 662083 step creation still disabled, retrying (Requested nodes are busy)
srun: Job 662083 step creation still disabled, retrying (Requested nodes are busy)
srun: Job 662083 step creation still disabled, retrying (Requested nodes are busy)
srun: Job 662083 step creation still disabled, retrying (Requested nodes are busy)
srun: Job 662083 step creation still disabled, retrying (Requested nodes are busy)
srun: Step created for StepId=662083.68

 *******************************************************************************
 *                                                                             *
 *  --------------------------------                                           *
 *   Amsterdam Modeling Suite (AMS)              2026.103                      *
 *  --------------------------------                                           *
 *                                               r260501 2026-05-01 873454b5   *
 *                                                                             *
 *                                                                             *
 *                              =================                              *
 *                              |               |                              *
 *                              |     A M S     |                              *
 *                              |               |                              *
 *                              =================                              *
 *                                                                             *
 *                                                                             *
 *   Online information and documentation:  https://www.scm.com/support/       *
 *   E-mail:  support@scm.com   info@scm.com                                   *
 *                                                                             *
 *   Scientific publications using AMS results must be properly referenced     *
 *   See the User Manuals (or the web site) for recommended citations          *
 *   The terms and conditions of the End User License Agreement apply to       *
 *   the use of AMS, https://www.scm.com/license-terms/                        *
 *                                                                             *
 **********************  x86_64_linux_intel / intelmpi  ************************
 
 Licensed to: Jong-June Jeon / University of Seoul 2026-06-02 13:44:15
 SCM User ID: u30731
  
 AMS 2026.103  RunTime: Jun03-2026 04:31:12  ShM Nodes: 1  Procs: 1

 AMS jobname: c4_fragA_opt
 AMS jobid  : 614571710

 Start   directory: /gpfs/home1/yeseo1ee/projects/eda-asm-prediction/ADF_800/adf_outputs/batch_000/dipolar_000444/
 Results directory: /gpfs/home1/yeseo1ee/projects/eda-asm-prediction/ADF_800/adf_outputs/batch_000/dipolar_000444/c4_fragA_opt.results/
 Scratch directory: /tmp/amstmp_c4_fragA_opt_kid0.614571710/

 RNG seed: 947047968 1157675654 -1828198029 -791310120 177304171 -1192725447 -1482105096 1141534572



                      ************************************************************************
                      *  ADF 2026.103  RunTime: Jun03-2026 04:31:12  ShM Nodes: 1  Procs: 1  *
                      ************************************************************************
  

       ***************************
       *  GEOMETRY OPTIMIZATION  *
       ***************************

Optimization Method                    Quasi Newton
Optimization Coordinates               Delocalized Coordinates
Optimize lattice                       F
 
 ------------------------------------------------------
 Convergence criteria (Hartree,Angstrom)
 ------------------------------------------------------
 Maximum gradient               0.000100000000
 Maximum rms gradient           0.000066666667
 Maximum step allowed           0.010000000000
 Maximum rms step allowed       0.006666666667
 Maximum energy change allowe   0.000100000000
 Maximum stress energy allowe   0.000500000000
 
Initial model Hessian                  Automatic Hessian
 
------------------------------------
Quasi-Newton Optimizer Parameters
------------------------------------
Hessian Update Method                  BFGS
Maximum number of steps                  200
First GDIIS cycle                          0
Maximum GDIIS vectors                      0
Trust radius (bohr)                        0.200000
Trust radius varies                        T
Constraints converged at all steps         T
Use projector                              T
 
 Rigid motions settings for: old optimizer
 Atomic rotations (x,y,z):     T T T
 Atomic translations (x,y,z):  T T T
 Tolerance:                  1.000000000000000E-006

--------
Geometry
--------
Formula: C2H3N3O2
Atoms
  Index Symbol   x (angstrom)   y (angstrom)   z (angstrom)
      1      C    -4.46642000    -0.01529000     1.79999000
      2      O    -3.05390000     0.23391000     1.91788000
      3      C    -2.48034000     0.86871000     0.89796000
      4      O    -3.04058000     1.23258000    -0.10984000
      5      N    -1.10491000     1.08159000     1.09606000
      6      N    -0.54524000     0.63712000     2.13250000
      7      N     0.46152000     0.24143000     2.52785000
      8      H    -4.66777000    -0.65396000     0.92855000
      9      H    -5.01310000     0.93312000     1.70247000
     10      H    -4.75339000    -0.52849000     2.72456000

Total System Charge              0.00000


----------------
ADF Engine Input
----------------
 
   Basis
     Type TZ2P
     Core None
   End
   XC
     GGA BLYP
     Dispersion GRIMME3 BJDAMP
   End
   Symmetry NOSYM
   NumericalQuality Normal
   Unrestricted No
   SCF
     Iterations 200
     Converge 1.0e-6
   End
   Save TAPE21
 

 Title: *** (NO TITLE) ***

 Using automatic Hessian for delocalized coordinates.
 *** GO1_GOStep1 ***

 Energy gradients wrt nuclear displacements
 ==========================================

     Atom      Cartesian (a.u./angstrom)
                 X         Y         Z
 ----------------------------------------
     1 C     0.023873  0.005392  0.002350
     2 O     0.001315  0.024028 -0.047912
     3 C    -0.009866 -0.022988  0.017619
     4 O     0.006194 -0.006507  0.020233
     5 N     0.057940 -0.030648  0.016681
     6 N    -0.103915  0.034492  0.058095
     7 N     0.028688 -0.001799 -0.068596
     8 H     0.000162 -0.004221 -0.003240
     9 H    -0.002103  0.004536  0.001217
    10 H    -0.002287 -0.002285  0.003553
 ----------------------------------------
 
----------------------------------------------------------------------
Geometry Convergence after Step   1       (Hartree/Angstrom,Angstrom)
----------------------------------------------------------------------
current energy                               -2.28011029 Hartree
energy change                      -2.28011029     0.00010000    F
constrained gradient max            0.10391193     0.00010000    F
constrained gradient rms            0.03186036     0.00006667    F
gradient max                        0.10391193
gradient rms                        0.03186036
cart. step max                      0.11571717     0.01000000    F
cart. step rms                      0.03222049     0.00666667    F
 

--------
Geometry
--------
Formula: C2H3N3O2
Atoms
  Index Symbol   x (angstrom)   y (angstrom)   z (angstrom)
      1      C    -4.46094972    -0.02223287     1.81197595
      2      O    -3.03912394     0.23023575     1.91066773
      3      C    -2.48013943     0.88718015     0.86848837
      4      O    -3.05970389     1.26030564    -0.13447190
      5      N    -1.09384398     1.09675455     1.03670510
      6      N    -0.51407079     0.62845862     2.07609831
      7      N     0.40031967     0.22033205     2.64356717
      8      H    -4.67633380    -0.65029229     0.93884887
      9      H    -5.01033170     0.92380530     1.73119681
     10      H    -4.72995243    -0.54382690     2.73490357

Total System Charge              0.00000

 *** GO1_GOStep2 ***

 Energy gradients wrt nuclear displacements
 ==========================================

     Atom      Cartesian (a.u./angstrom)
                 X         Y         Z
 ----------------------------------------
     1 C     0.015207  0.002313  0.002954
     2 O    -0.006457  0.008100 -0.021005
     3 C     0.007163 -0.011218  0.020006
     4 O    -0.004800  0.002312 -0.007924
     5 N     0.008238 -0.002888 -0.026748
     6 N    -0.059539  0.018777  0.050907
     7 N     0.044511 -0.015977 -0.019181
     8 H    -0.000584 -0.002346 -0.001461
     9 H    -0.001562  0.002260  0.000818
    10 H    -0.002177 -0.001333  0.001634
 ----------------------------------------

 dE(predicted):    -0.12675E-01, dE(actual):    -0.13309E-01, Trust radius:    0.400000, all in a.u.
 
----------------------------------------------------------------------
Geometry Convergence after Step   2       (Hartree/Angstrom,Angstrom)
----------------------------------------------------------------------
current energy                               -2.29341905 Hartree
energy change                      -0.01330876     0.00010000    F
constrained gradient max            0.05954691     0.00010000    F
constrained gradient rms            0.01947029     0.00006667    F
gradient max                        0.05954691
gradient rms                        0.01947029
cart. step max                      0.20664251     0.01000000    F
cart. step rms                      0.05694349     0.00666667    F
 

--------
Geometry
--------
Formula: C2H3N3O2
Atoms
  Index Symbol   x (angstrom)   y (angstrom)   z (angstrom)
      1      C    -4.42582115    -0.02565957     1.82628252
      2      O    -2.98339695     0.18127945     1.89400788
      3      C    -2.46012383     0.84507027     0.81381820
      4      O    -3.08976682     1.30116556    -0.11232704
      5      N    -1.07754249     1.11911355     0.97048402
      6      N    -0.51709446     0.62158646     1.98844631
      7      N     0.19367716     0.23192484     2.76828236
      8      H    -4.68158835    -0.62315714     0.94610481
      9      H    -4.94378692     0.93695464     1.77821792
     10      H    -4.67868619    -0.55755806     2.74466301

Total System Charge              0.00000

 *** GO1_GOStep3 ***

 Energy gradients wrt nuclear displacements
 ==========================================

     Atom      Cartesian (a.u./angstrom)
                 X         Y         Z
 ----------------------------------------
     1 C     0.004188  0.002320 -0.000360
     2 O    -0.003983  0.006998  0.006215
     3 C     0.011020 -0.032409 -0.015534
     4 O     0.002314  0.011590  0.009745
     5 N    -0.004481  0.011795 -0.011663
     6 N     0.020165 -0.017421  0.059175
     7 N    -0.027787  0.017051 -0.047498
     8 H    -0.000145  0.000163  0.000022
     9 H    -0.000975 -0.000529  0.000211
    10 H    -0.000317  0.000442 -0.000314
 ----------------------------------------

 dE(predicted):    -0.71726E-02, dE(actual):    -0.68302E-02, Trust radius:    0.800000, all in a.u.
 Residual max backtransformation error   0.1491E+02
 
----------------------------------------------------------------------
Geometry Convergence after Step   3       (Hartree/Angstrom,Angstrom)
----------------------------------------------------------------------
current energy                               -2.30024929 Hartree
energy change                      -0.00683024     0.00010000    F
constrained gradient max            0.05921137     0.00010000    F
constrained gradient rms            0.01789022     0.00006667    F
gradient max                        0.05921137
gradient rms                        0.01789022
cart. step max                      0.21340465     0.01000000    F
cart. step rms                      0.07587342     0.00666667    F
 

--------
Geometry
--------
Formula: C2H3N3O2
Atoms
  Index Symbol   x (angstrom)   y (angstrom)   z (angstrom)
      1      C    -4.38197352    -0.02265759     1.84015691
      2      O    -2.95727163     0.31020933     1.95436451
      3      C    -2.48322499     1.04160079     0.88156449
      4      O    -3.09421324     1.22737933    -0.13741185
      5      N    -1.05773632     1.04586930     0.87929115
      6      N    -0.53062067     0.58114454     1.90717989
      7      N    -0.01972749     0.16552783     2.81541601
      8      H    -4.55871612    -0.61865328     0.94196942
      9      H    -4.97619682     0.89273654     1.79385774
     10      H    -4.60444921    -0.59243679     2.74159174

Total System Charge              0.00000

 *** GO1_GOStep4 ***

 Energy gradients wrt nuclear displacements
 ==========================================

     Atom      Cartesian (a.u./angstrom)
                 X         Y         Z
 ----------------------------------------
     1 C    -0.004408 -0.003220 -0.005781
     2 O     0.015651 -0.027981 -0.005437
     3 C    -0.015051  0.105110  0.024397
     4 O     0.023442 -0.047257  0.009087
     5 N    -0.008952 -0.030583  0.000919
     6 N     0.031465 -0.022747  0.029201
     7 N    -0.043365  0.025783 -0.051680
     8 H    -0.001998  0.001090  0.002198
     9 H     0.002004 -0.000720 -0.000918
    10 H     0.001212  0.000524 -0.001984
 ----------------------------------------
 Rebuilding optimization coordinates
Challenging geometry: could not add a dihedral for atom    7

 dE(predicted):    -0.74620E-02, dE(actual):     0.96129E-02, Trust radius:    0.600000, all in a.u.
 
----------------------------------------------------------------------
Geometry Convergence after Step   4       (Hartree/Angstrom,Angstrom)
----------------------------------------------------------------------
current energy                               -2.29063637 Hartree
energy change                       0.00961291     0.00010000    F
constrained gradient max            0.10504633     0.00010000    F
constrained gradient rms            0.02855943     0.00006667    F
gradient max                        0.10502513
gradient rms                        0.02855944
cart. step max                      0.21410009     0.01000000    F
cart. step rms                      0.06339200     0.00666667    F
 

--------
Geometry
--------
Formula: C2H3N3O2
Atoms
  Index Symbol   x (angstrom)   y (angstrom)   z (angstrom)
      1      C    -4.43142385    -0.02674244     1.82787780
      2      O    -2.99130086     0.21787823     1.91059463
      3      C    -2.47037758     0.89825265     0.83542305
      4      O    -3.09428580     1.28867980    -0.12396935
      5      N    -1.06102441     1.08971944     0.95079517
      6      N    -0.50425855     0.61639793     1.96924267
      7      N     0.19437260     0.21759982     2.78567033
      8      H    -4.65994561    -0.62686082     0.94258494
      9      H    -4.97009182     0.92364223     1.77687753
     10      H    -4.67579413    -0.56784683     2.74288324

Total System Charge              0.00000

 *** GO1_GOStep5 ***

 Energy gradients wrt nuclear displacements
 ==========================================

     Atom      Cartesian (a.u./angstrom)
                 X         Y         Z
 ----------------------------------------
     1 C    -0.000443 -0.000484 -0.000324
     2 O    -0.005227 -0.004512  0.005101
     3 C     0.006682  0.005094 -0.000727
     4 O    -0.001158 -0.001650 -0.000414
     5 N     0.008072 -0.001161 -0.005096
     6 N    -0.029539  0.014816 -0.012764
     7 N     0.021807 -0.012192  0.014433
     8 H    -0.000342  0.000365  0.000367
     9 H     0.000138 -0.000393 -0.000191
    10 H     0.000009  0.000117 -0.000385
 ----------------------------------------

 dE(predicted):    -0.13462E-01, dE(actual):    -0.11210E-01, Trust radius:    0.600000, all in a.u.
 
----------------------------------------------------------------------
Geometry Convergence after Step   5       (Hartree/Angstrom,Angstrom)
----------------------------------------------------------------------
current energy                               -2.30184670 Hartree
energy change                      -0.01121032     0.00010000    F
constrained gradient max            0.02952839     0.00010000    F
constrained gradient rms            0.00881336     0.00006667    F
gradient max                        0.02954147
gradient rms                        0.00881345
cart. step max                      0.09963754     0.01000000    F
cart. step rms                      0.02382140     0.00666667    F
 

--------
Geometry
--------
Formula: C2H3N3O2
Atoms
  Index Symbol   x (angstrom)   y (angstrom)   z (angstrom)
      1      C    -4.41515783    -0.02842933     1.83526817
      2      O    -2.97256661     0.21683074     1.89602614
      3      C    -2.46840733     0.89864677     0.81564577
      4      O    -3.10114351     1.31052305    -0.12835106
      5      N    -1.05526594     1.08077742     0.92572761
      6      N    -0.49388167     0.61817481     1.94560890
      7      N     0.09473506     0.21161074     2.82835549
      8      H    -4.65505967    -0.62432726     0.95022233
      9      H    -4.95482667     0.92183178     1.79810802
     10      H    -4.64255583    -0.57491874     2.75136863

Total System Charge              0.00000

 *** GO1_GOStep6 ***

 Energy gradients wrt nuclear displacements
 ==========================================

     Atom      Cartesian (a.u./angstrom)
                 X         Y         Z
 ----------------------------------------
     1 C    -0.001929 -0.000432 -0.000564
     2 O    -0.000405 -0.002948  0.006921
     3 C     0.002755  0.003047 -0.007259
     4 O    -0.002085  0.000755 -0.000689
     5 N    -0.005538 -0.003310  0.000800
     6 N     0.017700  0.004481  0.006216
     7 N    -0.011123 -0.001623 -0.005356
     8 H     0.000032  0.000369  0.000349
     9 H     0.000192 -0.000488 -0.000149
    10 H     0.000401  0.000149 -0.000267
 ----------------------------------------

 dE(predicted):    -0.63020E-03, dE(actual):    -0.13738E-03, Trust radius:    0.600000, all in a.u.
 
----------------------------------------------------------------------
Geometry Convergence after Step   6       (Hartree/Angstrom,Angstrom)
----------------------------------------------------------------------
current energy                               -2.30198408 Hartree
energy change                      -0.00013738     0.00010000    F
constrained gradient max            0.01770417     0.00010000    F
constrained gradient rms            0.00485117     0.00006667    F
gradient max                        0.01770024
gradient rms                        0.00485119
cart. step max                      0.05538598     0.01000000    F
cart. step rms                      0.01315996     0.00666667    F
 

--------
Geometry
--------
Formula: C2H3N3O2
Atoms
  Index Symbol   x (angstrom)   y (angstrom)   z (angstrom)
      1      C    -4.42395467    -0.02676338     1.83130696
      2      O    -2.98190314     0.21126474     1.89599189
      3      C    -2.47147369     0.89263599     0.82321312
      4      O    -3.09486632     1.29914456    -0.12911679
      5      N    -1.06112028     1.07894015     0.94061045
      6      N    -0.49899396     0.61869608     1.96266003
      7      N     0.15012104     0.22467620     2.80860859
      8      H    -4.66498054    -0.61809423     0.94302818
      9      H    -4.95946664     0.92641854     1.79720837
     10      H    -4.65749181    -0.57619865     2.74446920

Total System Charge              0.00000

 *** GO1_GOStep7 ***

 Energy gradients wrt nuclear displacements
 ==========================================

     Atom      Cartesian (a.u./angstrom)
                 X         Y         Z
 ----------------------------------------
     1 C    -0.000106  0.000188 -0.000250
     2 O    -0.000291 -0.001520  0.002366
     3 C     0.000232  0.001874 -0.003301
     4 O     0.000176 -0.000271  0.000470
     5 N    -0.001300 -0.002708 -0.002285
     6 N     0.005189  0.003751  0.010673
     7 N    -0.004091 -0.001188 -0.007587
     8 H     0.000054  0.000037  0.000023
     9 H    -0.000005 -0.000128 -0.000066
    10 H     0.000141 -0.000036 -0.000042
 ----------------------------------------

 dE(predicted):    -0.27663E-03, dE(actual):    -0.27402E-03, Trust radius:    0.600000, all in a.u.
 
----------------------------------------------------------------------
Geometry Convergence after Step   7       (Hartree/Angstrom,Angstrom)
----------------------------------------------------------------------
current energy                               -2.30225809 Hartree
energy change                      -0.00027402     0.00010000    F
constrained gradient max            0.01065906     0.00010000    F
constrained gradient rms            0.00298762     0.00006667    F
gradient max                        0.01068470
gradient rms                        0.00298772
cart. step max                      0.00522696     0.01000000    T
cart. step rms                      0.00205859     0.00666667    T
 

--------
Geometry
--------
Formula: C2H3N3O2
Atoms
  Index Symbol   x (angstrom)   y (angstrom)   z (angstrom)
      1      C    -4.42331592    -0.02674168     1.83177305
      2      O    -2.98093765     0.21067805     1.89431159
      3      C    -2.47058809     0.89150370     0.82256370
      4      O    -3.09468415     1.29940429    -0.12875530
      5      N    -1.05972342     1.07707637     0.93702253
      6      N    -0.49962220     0.61987909     1.95973084
      7      N     0.14498166     0.22612253     2.81383555
      8      H    -4.66627371    -0.61560783     0.94234681
      9      H    -4.95832481     0.92686644     1.80126828
     10      H    -4.65564170    -0.57846095     2.74388295

Total System Charge              0.00000

 *** GO1_GOStep8 ***

 Energy gradients wrt nuclear displacements
 ==========================================

     Atom      Cartesian (a.u./angstrom)
                 X         Y         Z
 ----------------------------------------
     1 C    -0.000120  0.000017 -0.000034
     2 O    -0.000603 -0.000917  0.001337
     3 C     0.001330  0.001094 -0.001690
     4 O     0.000302 -0.000332  0.000791
     5 N    -0.000718 -0.002928 -0.001496
     6 N    -0.003162  0.009101 -0.001605
     7 N     0.002990 -0.005855  0.002769
     8 H     0.000003 -0.000019  0.000003
     9 H    -0.000024 -0.000105 -0.000028
    10 H     0.000002 -0.000056 -0.000048
 ----------------------------------------
 
----------------------------------------------------------------------
Geometry Convergence after Step   8       (Hartree/Angstrom,Angstrom)
----------------------------------------------------------------------
current energy                               -2.30225876 Hartree
energy change                      -0.00000067     0.00010000    T
constrained gradient max            0.00905298     0.00010000    F
constrained gradient rms            0.00236126     0.00006667    F
gradient max                        0.00909945
gradient rms                        0.00236137
cart. step max                      0.00298337     0.01000000    T
cart. step rms                      0.00121340     0.00666667    T
 

--------
Geometry
--------
Formula: C2H3N3O2
Atoms
  Index Symbol   x (angstrom)   y (angstrom)   z (angstrom)
      1      C    -4.42361192    -0.02655074     1.83179068
      2      O    -2.98112489     0.21001690     1.89318685
      3      C    -2.47080475     0.89041391     0.82238688
      4      O    -3.09435588     1.29905916    -0.12941682
      5      N    -1.05939245     1.07465236     0.93674500
      6      N    -0.49862712     0.62007610     1.96019764
      7      N     0.14488878     0.22907599     2.81474257
      8      H    -4.66784067    -0.61320145     0.94121327
      9      H    -4.95807698     0.92748904     1.80425164
     10      H    -4.65518410    -0.58031126     2.74288229

Total System Charge              0.00000

 *** GO1_GOStep9 ***

 Energy gradients wrt nuclear displacements
 ==========================================

     Atom      Cartesian (a.u./angstrom)
                 X         Y         Z
 ----------------------------------------
     1 C     0.000016  0.000029  0.000021
     2 O    -0.000350 -0.000498  0.000566
     3 C     0.000862  0.000545 -0.000572
     4 O    -0.000125 -0.000049  0.000059
     5 N    -0.000597 -0.003197 -0.001055
     6 N     0.000084  0.007512  0.001892
     7 N     0.000134 -0.004138 -0.000850
     8 H     0.000007 -0.000066 -0.000032
     9 H    -0.000026 -0.000066 -0.000002
    10 H    -0.000004 -0.000071 -0.000027
 ----------------------------------------

 dE(predicted):    -0.60763E-05, dE(actual):    -0.13460E-04, Trust radius:    0.600000, all in a.u.
 
----------------------------------------------------------------------
Geometry Convergence after Step   9       (Hartree/Angstrom,Angstrom)
----------------------------------------------------------------------
current energy                               -2.30227222 Hartree
energy change                      -0.00001346     0.00010000    T
constrained gradient max            0.00746188     0.00010000    F
constrained gradient rms            0.00174785     0.00006667    F
gradient max                        0.00750744
gradient rms                        0.00174800
cart. step max                      0.00413972     0.01000000    T
cart. step rms                      0.00153646     0.00666667    T
 

--------
Geometry
--------
Formula: C2H3N3O2
Atoms
  Index Symbol   x (angstrom)   y (angstrom)   z (angstrom)
      1      C    -4.42369901    -0.02619623     1.83188640
      2      O    -2.98105401     0.20936501     1.89195350
      3      C    -2.47105322     0.88879390     0.82182073
      4      O    -3.09392779     1.29786712    -0.13033298
      5      N    -1.05917329     1.07241528     0.93612542
      6      N    -0.49852088     0.62039214     1.96063658
      7      N     0.14449657     0.23220681     2.81631823
      8      H    -4.66951709    -0.60966544     0.93966325
      9      H    -4.95747671     0.92836252     1.80839137
     10      H    -4.65420457    -0.58282113     2.74151751

Total System Charge              0.00000

 *** GO1_GOStep10 ***

 Energy gradients wrt nuclear displacements
 ==========================================

     Atom      Cartesian (a.u./angstrom)
                 X         Y         Z
 ----------------------------------------
     1 C     0.000131  0.000058  0.000035
     2 O     0.000046  0.000046 -0.000281
     3 C     0.000067 -0.000070  0.000193
     4 O    -0.000074  0.000030 -0.000013
     5 N    -0.000451 -0.003298 -0.000784
     6 N     0.001055  0.006953  0.002956
     7 N    -0.000787 -0.003516 -0.002051
     8 H     0.000016 -0.000082 -0.000061
     9 H    -0.000019 -0.000039  0.000013
    10 H     0.000016 -0.000081 -0.000006
 ----------------------------------------

 dE(predicted):    -0.23594E-05, dE(actual):    -0.66945E-05, Trust radius:    0.600000, all in a.u.
 
----------------------------------------------------------------------
Geometry Convergence after Step  10       (Hartree/Angstrom,Angstrom)
----------------------------------------------------------------------
current energy                               -2.30227892 Hartree
energy change                      -0.00000669     0.00010000    T
constrained gradient max            0.00690169     0.00010000    F
constrained gradient rms            0.00170516     0.00006667    F
gradient max                        0.00694650
gradient rms                        0.00170530
cart. step max                      0.00608580     0.01000000    T
cart. step rms                      0.00217797     0.00666667    T
 

--------
Geometry
--------
Formula: C2H3N3O2
Atoms
  Index Symbol   x (angstrom)   y (angstrom)   z (angstrom)
      1      C    -4.42405095    -0.02569076     1.83212946
      2      O    -2.98117941     0.20906904     1.89082776
      3      C    -2.47119160     0.88668104     0.82102643
      4      O    -3.09313582     1.29553673    -0.13194954
      5      N    -1.05854356     1.06977870     0.93513817
      6      N    -0.49828484     0.62072262     1.96099751
      7      N     0.14420059     0.23631388     2.81852504
      8      H    -4.67165495    -0.60438703     0.93736756
      9      H    -4.95717613     0.92937745     1.81447717
     10      H    -4.65311333    -0.58668167     2.73944044

Total System Charge              0.00000

 *** GO1_GOStep11 ***

 Energy gradients wrt nuclear displacements
 ==========================================

     Atom      Cartesian (a.u./angstrom)
                 X         Y         Z
 ----------------------------------------
     1 C     0.000151 -0.000003  0.000076
     2 O     0.000366  0.000618 -0.001168
     3 C    -0.000789 -0.000749  0.001137
     4 O    -0.000050  0.000126 -0.000156
     5 N     0.000022 -0.003260 -0.000541
     6 N     0.001505  0.006526  0.003335
     7 N    -0.001260 -0.003087 -0.002650
     8 H     0.000027 -0.000064 -0.000062
     9 H    -0.000002 -0.000024  0.000026
    10 H     0.000030 -0.000083  0.000002
 ----------------------------------------

 dE(predicted):    -0.28546E-05, dE(actual):    -0.64125E-05, Trust radius:    0.600000, all in a.u.
 
----------------------------------------------------------------------
Geometry Convergence after Step  11       (Hartree/Angstrom,Angstrom)
----------------------------------------------------------------------
current energy                               -2.30228533 Hartree
energy change                      -0.00000641     0.00010000    T
constrained gradient max            0.00647533     0.00010000    F
constrained gradient rms            0.00172682     0.00006667    F
gradient max                        0.00651855
gradient rms                        0.00172695
cart. step max                      0.01175189     0.01000000    F
cart. step rms                      0.00412498     0.00666667    T
 

--------
Geometry
--------
Formula: C2H3N3O2
Atoms
  Index Symbol   x (angstrom)   y (angstrom)   z (angstrom)
      1      C    -4.42448597    -0.02462684     1.83271798
      2      O    -2.98114815     0.20884028     1.88950572
      3      C    -2.47125498     0.88281990     0.81914713
      4      O    -3.09182825     1.29014647    -0.13542818
      5      N    -1.05747149     1.06592433     0.93329565
      6      N    -0.49840525     0.62111368     1.96155349
      7      N     0.14307921     0.24338156     2.82264078
      8      H    -4.67507312    -0.59398380     0.93299125
      9      H    -4.95649602     0.93122940     1.82622906
     10      H    -4.65104598    -0.59412499     2.73532710

Total System Charge              0.00000

 *** GO1_GOStep12 ***

 Energy gradients wrt nuclear displacements
 ==========================================

     Atom      Cartesian (a.u./angstrom)
                 X         Y         Z
 ----------------------------------------
     1 C     0.000047 -0.000107  0.000050
     2 O     0.000916  0.001312 -0.002123
     3 C    -0.002179 -0.001616  0.002122
     4 O     0.000075  0.000223 -0.000234
     5 N     0.000797 -0.002941 -0.000323
     6 N     0.001674  0.005817  0.003390
     7 N    -0.001498 -0.002597 -0.002905
     8 H     0.000058  0.000010 -0.000031
     9 H     0.000033 -0.000020  0.000048
    10 H     0.000078 -0.000080  0.000006
 ----------------------------------------

 dE(predicted):    -0.55316E-05, dE(actual):    -0.95784E-05, Trust radius:    0.600000, all in a.u.
 
----------------------------------------------------------------------
Geometry Convergence after Step  12       (Hartree/Angstrom,Angstrom)
----------------------------------------------------------------------
current energy                               -2.30229491 Hartree
energy change                      -0.00000958     0.00010000    T
constrained gradient max            0.00576773     0.00010000    F
constrained gradient rms            0.00177017     0.00006667    F
gradient max                        0.00580720
gradient rms                        0.00177028
cart. step max                      0.01650820     0.01000000    F
cart. step rms                      0.00577411     0.00666667    T
 

--------
Geometry
--------
Formula: C2H3N3O2
Atoms
  Index Symbol   x (angstrom)   y (angstrom)   z (angstrom)
      1      C    -4.42519185    -0.02308095     1.83364413
      2      O    -2.98124722     0.20928914     1.88887804
      3      C    -2.47092481     0.87775590     0.81640637
      4      O    -3.08999125     1.28169808    -0.14052891
      5      N    -1.05590838     1.06138816     0.93075634
      6      N    -0.49864291     0.62107314     1.96198319
      7      N     0.14170304     0.25297271     2.82806865
      8      H    -4.67917916    -0.57911515     0.92683742
      9      H    -4.95601051     0.93346202     1.84273726
     10      H    -4.64873695    -0.60472304     2.72919751

Total System Charge              0.00000

 *** GO1_GOStep13 ***

 Energy gradients wrt nuclear displacements
 ==========================================

     Atom      Cartesian (a.u./angstrom)
                 X         Y         Z
 ----------------------------------------
     1 C    -0.000233 -0.000323 -0.000045
     2 O     0.001339  0.001814 -0.002624
     3 C    -0.003510 -0.002238  0.002668
     4 O     0.000228  0.000263 -0.000214
     5 N     0.001815 -0.002215 -0.000219
     6 N     0.001484  0.004622  0.002972
     7 N    -0.001419 -0.001979 -0.002661
     8 H     0.000085  0.000132  0.000043
     9 H     0.000091  0.000006  0.000083
    10 H     0.000121 -0.000081 -0.000003
 ----------------------------------------

 dE(predicted):    -0.89180E-05, dE(actual):    -0.12613E-04, Trust radius:    0.600000, all in a.u.
 
----------------------------------------------------------------------
Geometry Convergence after Step  13       (Hartree/Angstrom,Angstrom)
----------------------------------------------------------------------
current energy                               -2.30230752 Hartree
energy change                      -0.00001261     0.00010000    T
constrained gradient max            0.00458223     0.00010000    F
constrained gradient rms            0.00173635     0.00006667    F
gradient max                        0.00461433
gradient rms                        0.00173642
cart. step max                      0.01539044     0.01000000    F
cart. step rms                      0.00540479     0.00666667    T
 

--------
Geometry
--------
Formula: C2H3N3O2
Atoms
  Index Symbol   x (angstrom)   y (angstrom)   z (angstrom)
      1      C    -4.42581288    -0.02148915     1.83462369
      2      O    -2.98146926     0.21098792     1.88980640
      3      C    -2.47017869     0.87351037     0.81359990
      4      O    -3.08829622     1.27284944    -0.14571456
      5      N    -1.05472800     1.05825334     0.92870318
      6      N    -0.49921025     0.61965522     1.96192922
      7      N     0.14074348     0.26163073     2.83273650
      8      H    -4.68183284    -0.56499568     0.92105435
      9      H    -4.95638002     0.93500716     1.85812770
     10      H    -4.64696533    -0.61468936     2.72311362

Total System Charge              0.00000

 *** GO1_GOStep14 ***

 Energy gradients wrt nuclear displacements
 ==========================================

     Atom      Cartesian (a.u./angstrom)
                 X         Y         Z
 ----------------------------------------
     1 C    -0.000599 -0.000518 -0.000176
     2 O     0.001458  0.001753 -0.002058
     3 C    -0.003930 -0.002160  0.002130
     4 O     0.000322  0.000232 -0.000121
     5 N     0.002413 -0.001139 -0.000284
     6 N     0.000822  0.002941  0.001984
     7 N    -0.000862 -0.001321 -0.001703
     8 H     0.000099  0.000232  0.000108
     9 H     0.000128  0.000017  0.000126
    10 H     0.000149 -0.000038 -0.000006
 ----------------------------------------

 dE(predicted):    -0.12086E-04, dE(actual):    -0.14485E-04, Trust radius:    0.600000, all in a.u.
 
----------------------------------------------------------------------
Geometry Convergence after Step  14       (Hartree/Angstrom,Angstrom)
----------------------------------------------------------------------
current energy                               -2.30232201 Hartree
energy change                      -0.00001449     0.00010000    T
constrained gradient max            0.00391495     0.00010000    F
constrained gradient rms            0.00142454     0.00006667    F
gradient max                        0.00391638
gradient rms                        0.00142458
cart. step max                      0.00777536     0.01000000    T
cart. step rms                      0.00297736     0.00666667    T
 

--------
Geometry
--------
Formula: C2H3N3O2
Atoms
  Index Symbol   x (angstrom)   y (angstrom)   z (angstrom)
      1      C    -4.42631455    -0.02056732     1.83501347
      2      O    -2.98170576     0.21083561     1.89130691
      3      C    -2.46907873     0.87127628     0.81217600
      4      O    -3.08762266     1.26737807    -0.14800160
      5      N    -1.05479618     1.05774935     0.92836288
      6      N    -0.49936126     0.61762327     1.96139496
      7      N     0.14196786     0.26736046     2.83470248
      8      H    -4.68329994    -0.55722032     0.91772033
      9      H    -4.95635846     0.93608415     1.86589931
     10      H    -4.64756030    -0.61979956     2.71940526

Total System Charge              0.00000

 *** GO1_GOStep15 ***

 Energy gradients wrt nuclear displacements
 ==========================================

     Atom      Cartesian (a.u./angstrom)
                 X         Y         Z
 ----------------------------------------
     1 C    -0.000802 -0.000546 -0.000210
     2 O     0.000970  0.000995 -0.000675
     3 C    -0.002738 -0.001151  0.000644
     4 O     0.000297  0.000026  0.000119
     5 N     0.001984 -0.000150 -0.000418
     6 N    -0.000025  0.001349  0.000632
     7 N    -0.000002 -0.000795 -0.000327
     8 H     0.000094  0.000253  0.000104
     9 H     0.000098  0.000020  0.000164
    10 H     0.000125 -0.000002 -0.000033
 ----------------------------------------

 dE(predicted):    -0.11753E-04, dE(actual):    -0.12426E-04, Trust radius:    0.600000, all in a.u.
 
----------------------------------------------------------------------
Geometry Convergence after Step  15       (Hartree/Angstrom,Angstrom)
----------------------------------------------------------------------
current energy                               -2.30233443 Hartree
energy change                      -0.00001243     0.00010000    T
constrained gradient max            0.00272495     0.00010000    F
constrained gradient rms            0.00081511     0.00006667    F
gradient max                        0.00272572
gradient rms                        0.00081513
cart. step max                      0.00695032     0.01000000    T
cart. step rms                      0.00240473     0.00666667    T
 

--------
Geometry
--------
Formula: C2H3N3O2
Atoms
  Index Symbol   x (angstrom)   y (angstrom)   z (angstrom)
      1      C    -4.42601111    -0.02123983     1.83447150
      2      O    -2.98167783     0.20941484     1.89218362
      3      C    -2.46857778     0.87324096     0.81316807
      4      O    -3.08867054     1.27134907    -0.14519631
      5      N    -1.05612654     1.05962146     0.92971544
      6      N    -0.49940787     0.61535747     1.96043544
      7      N     0.14392198     0.26598574     2.83278800
      8      H    -4.68194276    -0.56314253     0.91981144
      9      H    -4.95601061     0.93565849     1.85894899
     10      H    -4.64962693    -0.61552567     2.72165381

Total System Charge              0.00000

 *** GO1_GOStep16 ***

 Energy gradients wrt nuclear displacements
 ==========================================

     Atom      Cartesian (a.u./angstrom)
                 X         Y         Z
 ----------------------------------------
     1 C    -0.000566 -0.000467 -0.000204
     2 O     0.000353  0.000282  0.000484
     3 C    -0.000829 -0.000214 -0.000472
     4 O     0.000125 -0.000013  0.000149
     5 N     0.000773  0.000087 -0.000373
     6 N    -0.000508  0.000695 -0.000143
     7 N     0.000471 -0.000588  0.000382
     8 H     0.000052  0.000181  0.000052
     9 H     0.000056  0.000046  0.000162
    10 H     0.000073 -0.000009 -0.000038
 ----------------------------------------

 dE(predicted):    -0.63289E-05, dE(actual):    -0.73914E-05, Trust radius:    0.600000, all in a.u.
 
----------------------------------------------------------------------
Geometry Convergence after Step  16       (Hartree/Angstrom,Angstrom)
----------------------------------------------------------------------
current energy                               -2.30234183 Hartree
energy change                      -0.00000739     0.00010000    T
constrained gradient max            0.00081608     0.00010000    F
constrained gradient rms            0.00037842     0.00006667    F
gradient max                        0.00081648
gradient rms                        0.00037842
cart. step max                      0.01143019     0.01000000    F
cart. step rms                      0.00400216     0.00666667    T
 

--------
Geometry
--------
Formula: C2H3N3O2
Atoms
  Index Symbol   x (angstrom)   y (angstrom)   z (angstrom)
      1      C    -4.42561890    -0.02255748     1.83352008
      2      O    -2.98140835     0.20581780     1.89121424
      3      C    -2.46846088     0.87613435     0.81500500
      4      O    -3.09018892     1.27915095    -0.14033086
      5      N    -1.05740127     1.06166283     0.93138570
      6      N    -0.49889447     0.61381630     1.95953191
      7      N     0.14580150     0.26313086     2.83027892
      8      H    -4.68129235    -0.57341554     0.92393555
      9      H    -4.95470820     0.93503507     1.84751880
     10      H    -4.65195815    -0.60805515     2.72592066

Total System Charge              0.00000

 *** GO1_GOStep17 ***

 Energy gradients wrt nuclear displacements
 ==========================================

     Atom      Cartesian (a.u./angstrom)
                 X         Y         Z
 ----------------------------------------
     1 C    -0.000192 -0.000271 -0.000118
     2 O    -0.000208 -0.000209  0.000850
     3 C     0.000695  0.000434 -0.000881
     4 O    -0.000029 -0.000068  0.000158
     5 N    -0.000337 -0.000041 -0.000219
     6 N    -0.000352  0.000474 -0.000320
     7 N     0.000409 -0.000413  0.000411
     8 H     0.000003  0.000094  0.000008
     9 H    -0.000012  0.000035  0.000140
    10 H     0.000024 -0.000035 -0.000029
 ----------------------------------------

 dE(predicted):    -0.34034E-05, dE(actual):    -0.45994E-05, Trust radius:    0.600000, all in a.u.
 
----------------------------------------------------------------------
Geometry Convergence after Step  17       (Hartree/Angstrom,Angstrom)
----------------------------------------------------------------------
current energy                               -2.30234642 Hartree
energy change                      -0.00000460     0.00010000    T
constrained gradient max            0.00088560     0.00010000    F
constrained gradient rms            0.00034409     0.00006667    F
gradient max                        0.00088544
gradient rms                        0.00034409
cart. step max                      0.01285933     0.01000000    F
cart. step rms                      0.00450077     0.00666667    T
 

--------
Geometry
--------
Formula: C2H3N3O2
Atoms
  Index Symbol   x (angstrom)   y (angstrom)   z (angstrom)
      1      C    -4.42502816    -0.02405811     1.83254304
      2      O    -2.98104890     0.20320530     1.88989908
      3      C    -2.46895651     0.87953247     0.81705531
      4      O    -3.09190831     1.28834273    -0.13516538
      5      N    -1.05832967     1.06347386     0.93281559
      6      N    -0.49863128     0.61216355     1.95868055
      7      N     0.14685546     0.25907811     2.82771928
      8      H    -4.67989488    -0.58520798     0.92886514
      9      H    -4.95367667     0.93381691     1.83465947
     10      H    -4.65351107    -0.59962684     2.73090790

Total System Charge              0.00000

 *** GO1_GOStep18 ***

 Energy gradients wrt nuclear displacements
 ==========================================

     Atom      Cartesian (a.u./angstrom)
                 X         Y         Z
 ----------------------------------------
     1 C     0.000166 -0.000081 -0.000112
     2 O    -0.000380 -0.000277  0.000713
     3 C     0.001255  0.000474 -0.000636
     4 O    -0.000177  0.000013 -0.000005
     5 N    -0.000859 -0.000243 -0.000010
     6 N    -0.000093  0.000374 -0.000168
     7 N     0.000153 -0.000231  0.000110
     8 H    -0.000034  0.000030 -0.000008
     9 H    -0.000033  0.000002  0.000099
    10 H     0.000002 -0.000061  0.000016
 ----------------------------------------

 dE(predicted):    -0.18387E-05, dE(actual):    -0.23173E-05, Trust radius:    0.600000, all in a.u.
 
----------------------------------------------------------------------
Geometry Convergence after Step  18       (Hartree/Angstrom,Angstrom)
----------------------------------------------------------------------
current energy                               -2.30234874 Hartree
energy change                      -0.00000232     0.00010000    T
constrained gradient max            0.00126886     0.00010000    F
constrained gradient rms            0.00036873     0.00006667    F
gradient max                        0.00126871
gradient rms                        0.00036873
cart. step max                      0.01081019     0.01000000    F
cart. step rms                      0.00384747     0.00666667    T
 

--------
Geometry
--------
Formula: C2H3N3O2
Atoms
  Index Symbol   x (angstrom)   y (angstrom)   z (angstrom)
      1      C    -4.42471151    -0.02543223     1.83174542
      2      O    -2.98070241     0.20061613     1.88807364
      3      C    -2.46959652     0.88229002     0.81876221
      4      O    -3.09319625     1.29628945    -0.13079728
      5      N    -1.05868937     1.06530985     0.93399006
      6      N    -0.49825633     0.61086465     1.95799586
      7      N     0.14753838     0.25565634     2.82581073
      8      H    -4.67925114    -0.59527381     0.93331064
      9      H    -4.95262182     0.93275598     1.82384929
     10      H    -4.65464305    -0.59235638     2.73523944

Total System Charge              0.00000

 *** GO1_GOStep19 ***

 Energy gradients wrt nuclear displacements
 ==========================================

     Atom      Cartesian (a.u./angstrom)
                 X         Y         Z
 ----------------------------------------
     1 C     0.000364  0.000022 -0.000032
     2 O    -0.000385 -0.000150  0.000216
     3 C     0.001001  0.000306 -0.000230
     4 O    -0.000134 -0.000005  0.000010
     5 N    -0.000800 -0.000279  0.000102
     6 N     0.000174  0.000224  0.000030
     7 N    -0.000113 -0.000040 -0.000198
     8 H    -0.000045 -0.000016  0.000003
     9 H    -0.000045 -0.000001  0.000057
    10 H    -0.000018 -0.000061  0.000042
 ----------------------------------------
 
----------------------------------------------------------------------
Geometry Convergence after Step  19       (Hartree/Angstrom,Angstrom)
----------------------------------------------------------------------
current energy                               -2.30234941 Hartree
energy change                      -0.00000067     0.00010000    T
constrained gradient max            0.00101519     0.00010000    F
constrained gradient rms            0.00028194     0.00006667    F
gradient max                        0.00101510
gradient rms                        0.00028195
cart. step max                      0.00375334     0.01000000    T
cart. step rms                      0.00135983     0.00666667    T
 

--------
Geometry
--------
Formula: C2H3N3O2
Atoms
  Index Symbol   x (angstrom)   y (angstrom)   z (angstrom)
      1      C    -4.42468825    -0.02595198     1.83150071
      2      O    -2.98051719     0.19980090     1.88728039
      3      C    -2.47005739     0.88321743     0.81931910
      4      O    -3.09369190     1.29922854    -0.12933908
      5      N    -1.05852256     1.06601068     0.93427208
      6      N    -0.49815959     0.61023121     1.95775564
      7      N     0.14763513     0.25447619     2.82535243
      8      H    -4.67901264    -0.59882745     0.93492106
      9      H    -4.95226414     0.93233626     1.82009595
     10      H    -4.65485147    -0.58980178     2.73682172

Total System Charge              0.00000

 *** GO1_GOStep20 ***

 Energy gradients wrt nuclear displacements
 ==========================================

     Atom      Cartesian (a.u./angstrom)
                 X         Y         Z
 ----------------------------------------
     1 C     0.000303  0.000025 -0.000001
     2 O    -0.000202 -0.000008 -0.000051
     3 C     0.000397  0.000043  0.000078
     4 O    -0.000101  0.000036 -0.000050
     5 N    -0.000374 -0.000151  0.000088
     6 N     0.000161  0.000086  0.000065
     7 N    -0.000122  0.000040 -0.000214
     8 H    -0.000028 -0.000016  0.000012
     9 H    -0.000030 -0.000006  0.000036
    10 H    -0.000004 -0.000049  0.000036
 ----------------------------------------
 
----------------------------------------------------------------------
Geometry Convergence after Step  20       (Hartree/Angstrom,Angstrom)
----------------------------------------------------------------------
current energy                               -2.30234849 Hartree
energy change                       0.00000092     0.00010000    T
constrained gradient max            0.00041100     0.00010000    F
constrained gradient rms            0.00013957     0.00006667    F
gradient max                        0.00041097
gradient rms                        0.00013957
cart. step max                      0.00139165     0.01000000    T
cart. step rms                      0.00050812     0.00666667    T
 

--------
Geometry
--------
Formula: C2H3N3O2
Atoms
  Index Symbol   x (angstrom)   y (angstrom)   z (angstrom)
      1      C    -4.42477924    -0.02615288     1.83144640
      2      O    -2.98044559     0.19972400     1.88712066
      3      C    -2.47025822     0.88361394     0.81949992
      4      O    -3.09384632     1.30017069    -0.12888186
      5      N    -1.05831504     1.06652404     0.93435367
      6      N    -0.49812138     0.60991866     1.95762638
      7      N     0.14764137     0.25384363     2.82516097
      8      H    -4.67878745    -0.60016956     0.93551464
      9      H    -4.95229135     0.93211701     1.81870430
     10      H    -4.65492678    -0.58886955     2.73743492

Total System Charge              0.00000

 *** GO1_GOStep21 ***

 Energy gradients wrt nuclear displacements
 ==========================================

     Atom      Cartesian (a.u./angstrom)
                 X         Y         Z
 ----------------------------------------
     1 C     0.000146 -0.000003  0.000028
     2 O    -0.000073  0.000036 -0.000100
     3 C     0.000002 -0.000033  0.000082
     4 O    -0.000026  0.000018  0.000011
     5 N    -0.000058 -0.000013  0.000018
     6 N     0.000067  0.000008  0.000020
     7 N    -0.000044  0.000047 -0.000120
     8 H    -0.000011 -0.000011  0.000013
     9 H    -0.000014 -0.000017  0.000030
    10 H     0.000011 -0.000033  0.000018
 ----------------------------------------

 dE(predicted):    -0.13571E-06, dE(actual):     0.11061E-05, Trust radius:    0.020000, all in a.u.
 
----------------------------------------------------------------------
Geometry Convergence after Step  21       (Hartree/Angstrom,Angstrom)
----------------------------------------------------------------------
current energy                               -2.30234738 Hartree
energy change                       0.00000111     0.00010000    T
constrained gradient max            0.00013883     0.00010000    F
constrained gradient rms            0.00004790     0.00006667    T
gradient max                        0.00013883
gradient rms                        0.00004790
cart. step max                      0.00017869     0.01000000    T
cart. step rms                      0.00006620     0.00666667    T
 

--------
Geometry
--------
Formula: C2H3N3O2
Atoms
  Index Symbol   x (angstrom)   y (angstrom)   z (angstrom)
      1      C    -4.42480112    -0.02616185     1.83145624
      2      O    -2.98039878     0.19979330     1.88720532
      3      C    -2.47027650     0.88367072     0.81948970
      4      O    -3.09389225     1.30013014    -0.12891057
      5      N    -1.05827805     1.06670273     0.93436308
      6      N    -0.49815660     0.60988370     1.95760649
      7      N     0.14757830     0.25367052     2.82513206
      8      H    -4.67867552    -0.60025967     0.93554473
      9      H    -4.95230925     0.93209854     1.81860945
     10      H    -4.65492023    -0.58880812     2.73748349

Total System Charge              0.00000

 *** GO1_GOStep22 ***

 Energy gradients wrt nuclear displacements
 ==========================================

     Atom      Cartesian (a.u./angstrom)
                 X         Y         Z
 ----------------------------------------
     1 C     0.000068 -0.000010  0.000024
     2 O    -0.000021  0.000011 -0.000037
     3 C    -0.000042 -0.000018  0.000040
     4 O    -0.000033  0.000021 -0.000001
     5 N     0.000001  0.000022 -0.000007
     6 N     0.000012  0.000008 -0.000020
     7 N     0.000007  0.000024 -0.000054
     8 H    -0.000004 -0.000010  0.000012
     9 H    -0.000008 -0.000020  0.000030
    10 H     0.000020 -0.000027  0.000013
 ----------------------------------------
 
---------------------------------------------------------
Geometry Convergence after Step  22       ** CONVERGED **
---------------------------------------------------------
current energy                               -2.30234693 Hartree
energy change                       0.00000045     0.00010000    T
constrained gradient max            0.00006121     0.00010000    T
constrained gradient rms            0.00001877     0.00006667    T
gradient max                        0.00006121
gradient rms                        0.00001877
cart. step max                      0.00006977     0.01000000    T
cart. step rms                      0.00002599     0.00666667    T
 
Geometry optimization converged

Optimized geometry:

--------
Geometry
--------
Formula: C2H3N3O2
Atoms
  Index Symbol   x (angstrom)   y (angstrom)   z (angstrom)
      1      C    -4.42480112    -0.02616185     1.83145624
      2      O    -2.98039878     0.19979330     1.88720532
      3      C    -2.47027650     0.88367072     0.81948970
      4      O    -3.09389225     1.30013014    -0.12891057
      5      N    -1.05827805     1.06670273     0.93436308
      6      N    -0.49815660     0.60988370     1.95760649
      7      N     0.14757830     0.25367052     2.82513206
      8      H    -4.67867552    -0.60025967     0.93554473
      9      H    -4.95230925     0.93209854     1.81860945
     10      H    -4.65492023    -0.58880812     2.73748349

Total System Charge              0.00000

Performing a single point calculation on the final geometry ...

 *** adf ***



 ===========================
 A T T A C H E D   F I L E S
 ===========================
  
 Restart/tmp/amstmp_c4_fragA_opt_kid0.614571710/GO1_GOStep22.rkf*** GO1_GOStep22 ***



 ===============================
 M O D E L   P A R A M E T E R S
 ===============================
  
 DENSITY FUNCTIONAL POTENTIAL (scf)
    LDA:                               Exchange only                           == Not Default ==
    Gradient Corrections:              Becke88 LYP                             == Not Default ==

 SPIN  (restricted / unrestr.)
    Molecule:                          Restricted                               
    Fragments:                         Restricted                               

 OTHER ASPECTS
    Relativistic Corrections:          scalar (ZORA,MAPA)                       

    Nuclear Charge Density Model:      Point Charge Nuclei                      
    Core Treatment:                    Frozen Orbital(s)                        

    Hyperfine or Zeeman Interaction:   ---                                      

 Settings for Grimme D3 dispersion correction

      damping                        BJ
      s6                          1.000
      s8                          2.700
      a1                          0.430
      a2                          4.236

 Other (technical) parameters

      alpha                      14.000
      version                         4
 



 ===============
 G E O M E T R Y  ***  3D  Molecule  ***
 ===============
  

 ATOMS
 =====                            X Y Z                    CHARGE
                                (Angstrom)             Nucl     +Core       At.Mass
                       --------------------------    ----------------       -------
    1  C              -4.4248   -0.0262    1.8315      6.00      6.00       12.0000
    2  O              -2.9804    0.1998    1.8872      8.00      8.00       15.9949
    3  C              -2.4703    0.8837    0.8195      6.00      6.00       12.0000
    4  O              -3.0939    1.3001   -0.1289      8.00      8.00       15.9949
    5  N              -1.0583    1.0667    0.9344      7.00      7.00       14.0031
    6  N              -0.4982    0.6099    1.9576      7.00      7.00       14.0031
    7  N               0.1476    0.2537    2.8251      7.00      7.00       14.0031
    8  H              -4.6787   -0.6003    0.9355      1.00      1.00        1.0078
    9  H              -4.9523    0.9321    1.8186      1.00      1.00        1.0078
   10  H              -4.6549   -0.5888    2.7375      1.00      1.00        1.0078


 FRAGMENTS
 =========                                     Atoms in this Fragment     Cart. coord.s (Angstrom)
                                               -------------------------------------------------------
    1  C                                                 1  C           -4.4248   -0.0262    1.8315
    2  C                                                 3  C           -2.4703    0.8837    0.8195
    3  O                                                 2  O           -2.9804    0.1998    1.8872
    4  O                                                 4  O           -3.0939    1.3001   -0.1289
    5  N                                                 5  N           -1.0583    1.0667    0.9344
    6  N                                                 6  N           -0.4982    0.6099    1.9576
    7  N                                                 7  N            0.1476    0.2537    2.8251
    8  H                                                 8  H           -4.6787   -0.6003    0.9355
    9  H                                                 9  H           -4.9523    0.9321    1.8186
   10  H                                                10  H           -4.6549   -0.5888    2.7375


 Interatomic Distance Matrix (Angstrom)
 --------------------------------------

   1)     0.000
   2)     1.463   0.000
   3)     2.382   1.367   0.000
   4)     2.715   2.300   1.209   0.000
   5)     3.651   2.314   1.428   2.308   0.000
   6)     3.980   2.517   2.293   3.401   1.253   0.000
   7)     4.687   3.266   3.357   4.509   2.385   1.139   0.000
   8)     1.094   2.105   2.663   2.694   3.986   4.471   5.253   0.000
   9)     1.094   2.105   2.676   2.717   3.995   4.468   5.242   1.790   0.000
  10)     1.091   2.037   3.259   3.771   4.351   4.396   4.877   1.802   1.802   0.000

 Min. Distance =    1.0911
 Max. Distance =    5.2529



 =====================================
 S Y M M E T R Y ,   E L E C T R O N S
 =====================================
  
 Symmetry: NOSYM

 Irreducible Representations, including subspecies
 -------------------------------------------------
 A


 Configuration of Valence Electrons
 ==================================
 ( determined in the SCF procedure )

 Total:   52

 Net Charge: 0 (Nuclei minus Electrons)

 Aufbau principle for MO occupations will be applied through SCF cycle no.     100
 Thereafter, the program will assign electrons to MOs that are spatially
 similar to the occupied MOs in a "reference" cycle ("KeepOrbitals").
 The reference cycle is always the PREVIOUS cycle: it will evolve with
 the SCF procedure.
 ***************************************************************************************************



                                      ****************************************
                                      *  B U I L D : (Fragments, Functions)  *
                                      ****************************************
  



 =======
 S F O s  ***  (Symmetrized Fragment Orbitals)  ***
 =======
  
 SFOs are linear combinations of (valence) Fragment Orbitals (FOs), such that the SFOs transform as the
 irreducible representations of the (molecular) symmetry group. Each SFO is therefore characterized by
 an irrep of the molecule and by a few (or only one) generating FOs.
 The SFOs constitute a symmetry-adapted basis for the Fock matrix. The MO eigenvector coefficients in
 this basis provide a direct interpretation of the MOs in terms of Frontier Orbital Theory.

 The SFOs are combined with auxiliary Core Functions (CFs) to ensure orthogonalization on the (frozen)
 Core Orbitals (COs). The Core-orthogonalized SFOs (CSFOs) constitute the true Fock basis.

 The FOs, and hence also the (C)SFOs are combinations of the elementary basis functions (BAS). The basis
 functions that participate in the description of the SFOs depend on the irrep. The indices of the
 involved functions are printed below for each irrep.
 (The complete list of primitive basis functions is printed in another section)

 Total nr. of (C)SFOs (summation over all irreps) :   215

 NOTE: a (C)SFO that is defined as a combination of more than one FO is usually NOT normalized.



                                       === A ===
 Nr. of SFOs :  215
 Cartesian basis functions that participate in this irrep (total number =   246) :
      1     2     3     4     5     6     9    12     7    10
     13     8    11    14    15    16    17    18    19    20
     21    22    23    24    25    26    27    28    29    30
     31    32    33    34    35    36    39    42    37    40
     43    38    41    44    45    46    47    48    49    50
     51    52    53    54    55    56    57    58    59    60
     61    62    63    64    65    66    69    72    67    70
     73    68    71    74    75    76    77    78    79    80
     81    82    83    84    85    86    87    88    89    90
     91    92    93    94    95    96    99   102    97   100
    103    98   101   104   105   106   107   108   109   110
    111   112   113   114   115   116   117   118   119   120
    121   122   123   124   125   126   129   132   127   130
    133   128   131   134   135   136   137   138   139   140
    141   142   143   144   145   146   147   148   149   150
    151   152   153   154   155   156   159   162   157   160
    163   158   161   164   165   166   167   168   169   170
    171   172   173   174   175   176   177   178   179   180
    181   182   183   184   185   186   189   192   187   190
    193   188   191   194   195   196   197   198   199   200
    201   202   203   204   205   206   207   208   209   210
    211   212   213   214   215   216   217   218   219   220
    221   222   223   224   225   226   227   228   229   230
    231   232   233   234   235   236   237   238   239   240
    241   242   243   244   245   246

    SFO  (index         Fragment          Generating    Expansion in Fragment Orbitals
  indx  incl.CFs)   Occup   Orb.Energy   FragmentType  Coeff.   Orbital     on Fragment
 --------------------------------------------------------------------------------------
     1       1      2.000     -10.066 au  C             1.00      1 S               1
                        (    -273.921 eV)
     2       2      2.000      -0.501 au  C             1.00      2 S               1
                        (     -13.620 eV)
     3       3       --         0.373 au  C             1.00      3 S               1
                        (      10.158 eV)
     4       4       --         5.405 au  C             1.00      4 S               1
                        (     147.073 eV)
     5       5       --        49.848 au  C             1.00      5 S               1
                        (    1356.422 eV)
     6       6      0.667      -0.193 au  C             1.00      1 P:x             1
                        (      -5.239 eV)
     7       7       --         0.169 au  C             1.00      2 P:x             1
                        (       4.589 eV)
     8       8       --         2.013 au  C             1.00      3 P:x             1
                        (      54.789 eV)
     9       9      0.667      -0.193 au  C             1.00      1 P:y             1
                        (      -5.239 eV)
    10      10       --         0.169 au  C             1.00      2 P:y             1
                        (       4.589 eV)
    11      11       --         2.013 au  C             1.00      3 P:y             1
                        (      54.789 eV)
    12      12      0.667      -0.193 au  C             1.00      1 P:z             1
                        (      -5.239 eV)
    13      13       --         0.169 au  C             1.00      2 P:z             1
                        (       4.589 eV)
    14      14       --         2.013 au  C             1.00      3 P:z             1
                        (      54.789 eV)
    15      15       --         1.243 au  C             1.00      1 D:z2            1
                        (      33.824 eV)
    16      16       --         1.243 au  C             1.00      1 D:x2-y2         1
                        (      33.824 eV)
    17      17       --         1.243 au  C             1.00      1 D:xy            1
                        (      33.824 eV)
    18      18       --         1.243 au  C             1.00      1 D:xz            1
                        (      33.824 eV)
    19      19       --         1.243 au  C             1.00      1 D:yz            1
                        (      33.824 eV)
    20      20       --         4.016 au  C             1.00      1 F:z3            1
                        (     109.271 eV)
    21      21       --         4.016 au  C             1.00      1 F:z             1
                        (     109.271 eV)
    22      22       --         4.016 au  C             1.00      1 F:xyz           1
                        (     109.271 eV)
    23      23       --         4.016 au  C             1.00      1 F:z2x           1
                        (     109.271 eV)
    24      24       --         4.016 au  C             1.00      1 F:z2y           1
                        (     109.271 eV)
    25      25       --         4.016 au  C             1.00      1 F:x             1
                        (     109.271 eV)
    26      26       --         4.016 au  C             1.00      1 F:y             1
                        (     109.271 eV)
    27      27      2.000     -10.066 au  C             1.00      1 S               2
                        (    -273.921 eV)
    28      28      2.000      -0.501 au  C             1.00      2 S               2
                        (     -13.620 eV)
    29      29       --         0.373 au  C             1.00      3 S               2
                        (      10.158 eV)
    30      30       --         5.405 au  C             1.00      4 S               2
                        (     147.073 eV)
    31      31       --        49.848 au  C             1.00      5 S               2
                        (    1356.422 eV)
    32      32      0.667      -0.193 au  C             1.00      1 P:x             2
                        (      -5.239 eV)
    33      33       --         0.169 au  C             1.00      2 P:x             2
                        (       4.589 eV)
    34      34       --         2.013 au  C             1.00      3 P:x             2
                        (      54.789 eV)
    35      35      0.667      -0.193 au  C             1.00      1 P:y             2
                        (      -5.239 eV)
    36      36       --         0.169 au  C             1.00      2 P:y             2
                        (       4.589 eV)
    37      37       --         2.013 au  C             1.00      3 P:y             2
                        (      54.789 eV)
    38      38      0.667      -0.193 au  C             1.00      1 P:z             2
                        (      -5.239 eV)
    39      39       --         0.169 au  C             1.00      2 P:z             2
                        (       4.589 eV)
    40      40       --         2.013 au  C             1.00      3 P:z             2
                        (      54.789 eV)
    41      41       --         1.243 au  C             1.00      1 D:z2            2
                        (      33.824 eV)
    42      42       --         1.243 au  C             1.00      1 D:x2-y2         2
                        (      33.824 eV)
    43      43       --         1.243 au  C             1.00      1 D:xy            2
                        (      33.824 eV)
    44      44       --         1.243 au  C             1.00      1 D:xz            2
                        (      33.824 eV)
    45      45       --         1.243 au  C             1.00      1 D:yz            2
                        (      33.824 eV)
    46      46       --         4.016 au  C             1.00      1 F:z3            2
                        (     109.271 eV)
    47      47       --         4.016 au  C             1.00      1 F:z             2
                        (     109.271 eV)
    48      48       --         4.016 au  C             1.00      1 F:xyz           2
                        (     109.271 eV)
    49      49       --         4.016 au  C             1.00      1 F:z2x           2
                        (     109.271 eV)
    50      50       --         4.016 au  C             1.00      1 F:z2y           2
                        (     109.271 eV)
    51      51       --         4.016 au  C             1.00      1 F:x             2
                        (     109.271 eV)
    52      52       --         4.016 au  C             1.00      1 F:y             2
                        (     109.271 eV)
    53      53      2.000     -18.941 au  O             1.00      1 S               3
                        (    -515.403 eV)
    54      54      2.000      -0.876 au  O             1.00      2 S               3
                        (     -23.838 eV)
    55      55       --         0.791 au  O             1.00      3 S               3
                        (      21.524 eV)
    56      56       --        13.422 au  O             1.00      4 S               3
                        (     365.226 eV)
    57      57       --       121.561 au  O             1.00      5 S               3
                        (    3307.838 eV)
    58      58      1.333      -0.331 au  O             1.00      1 P:x             3
                        (      -9.020 eV)
    59      59       --         0.347 au  O             1.00      2 P:x             3
                        (       9.437 eV)
    60      60       --         3.820 au  O             1.00      3 P:x             3
                        (     103.939 eV)
    61      61      1.333      -0.331 au  O             1.00      1 P:y             3
                        (      -9.020 eV)
    62      62       --         0.347 au  O             1.00      2 P:y             3
                        (       9.437 eV)
    63      63       --         3.820 au  O             1.00      3 P:y             3
                        (     103.939 eV)
    64      64      1.333      -0.331 au  O             1.00      1 P:z             3
                        (      -9.020 eV)
    65      65       --         0.347 au  O             1.00      2 P:z             3
                        (       9.437 eV)
    66      66       --         3.820 au  O             1.00      3 P:z             3
                        (     103.939 eV)
    67      67       --         1.071 au  O             1.00      1 D:z2            3
                        (      29.134 eV)
    68      68       --         1.071 au  O             1.00      1 D:x2-y2         3
                        (      29.134 eV)
    69      69       --         1.071 au  O             1.00      1 D:xy            3
                        (      29.134 eV)
    70      70       --         1.071 au  O             1.00      1 D:xz            3
                        (      29.134 eV)
    71      71       --         1.071 au  O             1.00      1 D:yz            3
                        (      29.134 eV)
    72      72       --         3.359 au  O             1.00      1 F:z3            3
                        (      91.410 eV)
    73      73       --         3.359 au  O             1.00      1 F:z             3
                        (      91.410 eV)
    74      74       --         3.359 au  O             1.00      1 F:xyz           3
                        (      91.410 eV)
    75      75       --         3.359 au  O             1.00      1 F:z2x           3
                        (      91.410 eV)
    76      76       --         3.359 au  O             1.00      1 F:z2y           3
                        (      91.410 eV)
    77      77       --         3.359 au  O             1.00      1 F:x             3
                        (      91.410 eV)
    78      78       --         3.359 au  O             1.00      1 F:y             3
                        (      91.410 eV)
    79      79      2.000     -18.941 au  O             1.00      1 S               4
                        (    -515.403 eV)
    80      80      2.000      -0.876 au  O             1.00      2 S               4
                        (     -23.838 eV)
    81      81       --         0.791 au  O             1.00      3 S               4
                        (      21.524 eV)
    82      82       --        13.422 au  O             1.00      4 S               4
                        (     365.226 eV)
    83      83       --       121.561 au  O             1.00      5 S               4
                        (    3307.838 eV)
    84      84      1.333      -0.331 au  O             1.00      1 P:x             4
                        (      -9.020 eV)
    85      85       --         0.347 au  O             1.00      2 P:x             4
                        (       9.437 eV)
    86      86       --         3.820 au  O             1.00      3 P:x             4
                        (     103.939 eV)
    87      87      1.333      -0.331 au  O             1.00      1 P:y             4
                        (      -9.020 eV)
    88      88       --         0.347 au  O             1.00      2 P:y             4
                        (       9.437 eV)
    89      89       --         3.820 au  O             1.00      3 P:y             4
                        (     103.939 eV)
    90      90      1.333      -0.331 au  O             1.00      1 P:z             4
                        (      -9.020 eV)
    91      91       --         0.347 au  O             1.00      2 P:z             4
                        (       9.437 eV)
    92      92       --         3.820 au  O             1.00      3 P:z             4
                        (     103.939 eV)
    93      93       --         1.071 au  O             1.00      1 D:z2            4
                        (      29.134 eV)
    94      94       --         1.071 au  O             1.00      1 D:x2-y2         4
                        (      29.134 eV)
    95      95       --         1.071 au  O             1.00      1 D:xy            4
                        (      29.134 eV)
    96      96       --         1.071 au  O             1.00      1 D:xz            4
                        (      29.134 eV)
    97      97       --         1.071 au  O             1.00      1 D:yz            4
                        (      29.134 eV)
    98      98       --         3.359 au  O             1.00      1 F:z3            4
                        (      91.410 eV)
    99      99       --         3.359 au  O             1.00      1 F:z             4
                        (      91.410 eV)
   100     100       --         3.359 au  O             1.00      1 F:xyz           4
                        (      91.410 eV)
   101     101       --         3.359 au  O             1.00      1 F:z2x           4
                        (      91.410 eV)
   102     102       --         3.359 au  O             1.00      1 F:z2y           4
                        (      91.410 eV)
   103     103       --         3.359 au  O             1.00      1 F:x             4
                        (      91.410 eV)
   104     104       --         3.359 au  O             1.00      1 F:y             4
                        (      91.410 eV)
   105     105      2.000     -14.160 au  N             1.00      1 S               5
                        (    -385.319 eV)
   106     106      2.000      -0.678 au  N             1.00      2 S               5
                        (     -18.450 eV)
   107     107       --         0.517 au  N             1.00      3 S               5
                        (      14.073 eV)
   108     108       --         6.872 au  N             1.00      4 S               5
                        (     186.990 eV)
   109     109       --        63.432 au  N             1.00      5 S               5
                        (    1726.082 eV)
   110     110      1.000      -0.260 au  N             1.00      1 P:x             5
                        (      -7.062 eV)
   111     111       --         0.281 au  N             1.00      2 P:x             5
                        (       7.649 eV)
   112     112       --         3.275 au  N             1.00      3 P:x             5
                        (      89.105 eV)
   113     113      1.000      -0.260 au  N             1.00      1 P:y             5
                        (      -7.062 eV)
   114     114       --         0.281 au  N             1.00      2 P:y             5
                        (       7.649 eV)
   115     115       --         3.275 au  N             1.00      3 P:y             5
                        (      89.105 eV)
[...]
                                   -1.06%     2 P:z             7.649  0.00     6 N
      -2.350  0.00    28 A         26.82%     1 P:y            -7.062  1.00     7 N
                                   19.77%     1 P:y            -7.062  1.00     6 N
                                   14.24%     1 P:y            -5.239  0.67     2 C
                                   10.41%     1 P:y            -9.020  1.33     4 O
                                    7.77%     1 P:z            -7.062  1.00     7 N
                                    5.73%     1 P:z            -7.062  1.00     6 N
                                    4.36%     1 P:z            -5.239  0.67     2 C
                                    4.15%     1 P:y            -7.062  1.00     5 N
                                    3.20%     1 P:z            -9.020  1.33     4 O
                                   -2.82%     2 P:y             7.649  0.00     6 N
                                    2.77%     1 P:y            -9.020  1.33     3 O
                                    1.19%     1 P:z            -7.062  1.00     5 N
      -0.332  0.00    29 A         29.59%     2 S               2.394  0.00    10 H
                                   23.35%     2 S               2.394  0.00     9 H
                                   22.69%     2 S               2.394  0.00     8 H
                                   15.45%     1 S              -6.532  1.00    10 H
                                   13.88%     1 S              -6.532  1.00     9 H
                                   13.34%     1 S              -6.532  1.00     8 H
                                   -9.63%     3 S              10.158  0.00     1 C
                                    7.26%     1 P:x            -5.239  0.67     1 C
                                   -5.36%     2 P:x             4.589  0.00     2 C
                                   -4.14%     2 P:x             4.589  0.00     1 C
                                   -1.84%     1 P:x            -5.239  0.67     2 C
                                   -1.33%     3 S              14.073  0.00     7 N
                                    1.25%     2 S             -13.620  2.00     2 C
                                   -1.09%     3 S              40.869  0.00     9 H
                                   -1.08%     3 S              40.869  0.00    10 H
                                   -1.08%     2 P:x             7.649  0.00     5 N
                                   -1.05%     3 S              40.869  0.00     8 H
       0.002  0.00    30 A         29.56%     1 P:y            -5.239  0.67     2 C
                                   18.98%     1 P:y            -7.062  1.00     5 N
                                   10.75%     1 P:y            -9.020  1.33     4 O
                                    9.77%     1 P:y            -7.062  1.00     6 N
                                    9.34%     1 P:z            -5.239  0.67     2 C
                                    7.26%     1 P:y            -7.062  1.00     7 N
                                    5.56%     1 P:z            -7.062  1.00     5 N
                                    3.63%     1 P:y            -9.020  1.33     3 O
                                    3.32%     1 P:z            -9.020  1.33     4 O
                                    2.89%     1 P:z            -7.062  1.00     6 N
                                   -2.86%     2 P:y             7.649  0.00     5 N
                                    2.45%     1 S              -6.532  1.00     8 H
                                    2.27%     1 S              -6.532  1.00     9 H
                                    2.17%     1 P:z            -7.062  1.00     7 N
                                   -2.00%     2 P:y             4.589  0.00     2 C
                                   -1.95%     2 P:y             7.649  0.00     6 N
                                   -1.77%     2 P:y             9.437  0.00     4 O
                                   -1.44%     2 P:y             4.589  0.00     1 C
                                    1.07%     1 P:z            -9.020  1.33     3 O
       0.222  0.00    31 A         48.45%     1 P:x            -5.239  0.67     1 C
                                   28.64%     2 P:x             4.589  0.00     1 C
                                    8.51%     1 P:x            -9.020  1.33     3 O
                                    6.65%     2 S             -13.620  2.00     1 C
                                    5.59%     2 P:x             4.589  0.00     2 C
                                   -5.20%     3 S              21.524  0.00     3 O
                                    5.11%     2 S             -13.620  2.00     2 C
                                    4.55%     2 S             -23.838  2.00     3 O
                                   -2.89%     3 S              10.158  0.00     1 C
                                    2.67%     1 P:x            -7.062  1.00     5 N
                                    2.38%     1 P:x            -5.239  0.67     2 C
                                   -2.07%     3 S              14.073  0.00     7 N
                                    1.84%     2 P:z             7.649  0.00     5 N
                                   -1.74%     3 S              14.073  0.00     5 N
                                    1.69%     1 P:y            -5.239  0.67     1 C
                                   -1.37%     1 S              -6.532  1.00     8 H
                                    1.31%     1 P:x            11.051  0.00     9 H
                                    1.29%     3 S              10.158  0.00     2 C
                                   -1.29%     3 P:x            54.789  0.00     1 C
                                   -1.27%     1 S              -6.532  1.00     9 H
                                   -1.19%     2 P:z             4.589  0.00     2 C
                                   -1.11%     2 P:x             7.649  0.00     5 N
       1.043  0.00    32 A         49.51%     1 S              -6.532  1.00    10 H
                                  -33.79%     2 P:z             4.589  0.00     1 C
                                   27.74%     2 S               2.394  0.00    10 H
                                   14.18%     1 S              -6.532  1.00     9 H
                                   13.50%     1 S              -6.532  1.00     8 H
                                  -10.75%     2 P:y             4.589  0.00     1 C
                                   10.04%     2 S               2.394  0.00     9 H
                                    9.41%     2 S               2.394  0.00     8 H
                                    5.10%     1 P:z            -5.239  0.67     1 C
                                    3.29%     3 S              40.869  0.00    10 H
                                    1.94%     1 P:y            -5.239  0.67     1 C
                                    1.73%     2 P:z             4.589  0.00     2 C
                                    1.67%     2 S             -13.620  2.00     2 C
       1.290  0.00    33 A         30.29%     1 S              -6.532  1.00     8 H
                                   29.28%     1 S              -6.532  1.00     9 H
                                   25.26%     2 S               2.394  0.00     8 H
                                   24.42%     2 S               2.394  0.00     9 H
                                  -20.88%     2 P:y             4.589  0.00     1 C
                                   -7.22%     2 P:z             4.589  0.00     1 C
                                    3.82%     2 P:y             4.589  0.00     2 C
                                    2.56%     1 P:y            -5.239  0.67     1 C
                                    2.36%     3 S              40.869  0.00     8 H
                                    2.34%     3 S              40.869  0.00     9 H
                                    1.27%     2 P:z             4.589  0.00     2 C
       1.915  0.00    34 A         23.79%     2 P:x             4.589  0.00     2 C
                                   22.24%     1 P:x            -5.239  0.67     2 C
                                   20.42%     2 P:x             7.649  0.00     5 N
                                  -18.52%     3 S              14.073  0.00     7 N
                                   10.28%     2 S             -18.450  2.00     6 N
                                    9.27%     2 P:x             7.649  0.00     6 N
                                    6.75%     1 P:x            -5.239  0.67     1 C
                                    5.88%     2 P:z             7.649  0.00     5 N
                                    4.64%     2 S             -18.450  2.00     5 N
                                   -4.22%     3 S              14.073  0.00     5 N
                                    3.79%     2 S             -13.620  2.00     2 C
                                    3.44%     1 P:x            -9.020  1.33     4 O
                                    3.23%     2 P:z             7.649  0.00     6 N
                                   -2.98%     1 S              -6.532  1.00    10 H
                                   -2.90%     2 P:x             9.437  0.00     4 O
                                    2.79%     1 S              -6.532  1.00     8 H
                                    2.76%     1 P:x            -7.062  1.00     6 N
                                    2.72%     1 S              -6.532  1.00     9 H
                                    2.38%     1 P:z            -7.062  1.00     7 N
                                    2.25%     1 P:x            -9.020  1.33     3 O
                                   -2.16%     2 P:z             7.649  0.00     7 N
                                   -2.03%     1 P:z            -7.062  1.00     6 N
                                    1.92%     1 P:y            -5.239  0.67     2 C
                                    1.85%     2 S             -18.450  2.00     7 N
                                   -1.82%     3 P:x            54.789  0.00     2 C
                                    1.70%     3 S              14.073  0.00     6 N
                                   -1.68%     3 S              10.158  0.00     1 C
                                    1.58%     1 D:xz           34.005  0.00     6 N
                                   -1.58%     2 S               2.394  0.00    10 H
                                   -1.47%     3 S              10.158  0.00     2 C
                                    1.28%     2 P:z             4.589  0.00     1 C
                                    1.23%     1 P:x            11.051  0.00     8 H
                                   -1.19%     1 P:z            -7.062  1.00     5 N
                                   -1.11%     2 S             -13.620  2.00     1 C
                                    1.01%     1 P:z            -5.239  0.67     1 C

 Energy gradients wrt nuclear displacements
 ==========================================

     Atom      Cartesian (a.u./angstrom)
                 X         Y         Z
 ----------------------------------------
     1 C     0.000068 -0.000010  0.000024
     2 O    -0.000021  0.000011 -0.000036
     3 C    -0.000042 -0.000018  0.000040
     4 O    -0.000033  0.000021 -0.000001
     5 N     0.000001  0.000022 -0.000007
     6 N     0.000012  0.000007 -0.000020
     7 N     0.000007  0.000024 -0.000054
     8 H    -0.000004 -0.000010  0.000012
     9 H    -0.000008 -0.000020  0.000030
    10 H     0.000020 -0.000027  0.000013
 ----------------------------------------



 =======================================================================
 Electrostatic potential at the Nuclei due to electrons and other nuclei
 =======================================================================
  
         Atom                  Potential
         ----                  ---------
     1)   C                  14.71444112
     2)   O                  22.32857190
     3)   C                  14.61244526
     4)   O                  22.39396748
     5)   N                  18.34228586
     6)   N                  18.23134548
     7)   N                  18.33834061
     8)   H                   1.08433615
     9)   H                   1.08445821
    10)   H                   1.08083003
 Mulliken charges used for AMS results%charges...


    =====================
     CALCULATION RESULTS
    =====================

Energy (hartree)            -2.30234693

Gradients (hartree/bohr)
  Index   Atom            d/dx            d/dy            d/dz
      1      C    0.0000362010   -0.0000055152    0.0000125585
      2      O   -0.0000109063    0.0000056024   -0.0000192819
      3      C   -0.0000223409   -0.0000095528    0.0000210429
      4      O   -0.0000173616    0.0000111379   -0.0000003799
      5      N    0.0000003175    0.0000114919   -0.0000038332
      6      N    0.0000061755    0.0000039444   -0.0000106261
      7      N    0.0000037873    0.0000128345   -0.0000285928
      8      H   -0.0000022996   -0.0000052965    0.0000062376
      9      H   -0.0000040586   -0.0000103625    0.0000160140
     10      H    0.0000104856   -0.0000142841    0.0000068609


--------------
Atomic charges
--------------
  Index   Atom    Charge
      1      C    0.9428
      2      O   -0.5504
      3      C    0.7751
      4      O   -0.5298
      5      N   -0.2257
      6      N    0.2238
      7      N   -0.0679
      8      H   -0.1743
      9      H   -0.1750
     10      H   -0.2187


Dipole moment vector    (Debye):    -1.48674654   -1.27243107    1.81860070
              magnitude (Debye):     2.67147986


-----------------------
Molecular orbitals info
-----------------------
n orbitals:              215
n spin:                    1

Note: only printing virtual orbitals with
      energy smaller than HOMO + 100. eV

HOMO (eV):              -7.2381
LUMO (eV):              -2.6620
HOMO-LUMO gap (eV):      4.5761

   Index   Energy (eV)    Occupation
     132       92.7016         0.000       
     131       92.5211         0.000       
     130       91.5690         0.000       
     129       90.9764         0.000       
     128       89.2672         0.000       
     127       88.8065         0.000       
     126       87.4246         0.000       
     125       87.2711         0.000       
     124       85.7216         0.000       
     123       85.3232         0.000       
     122       83.2525         0.000       
     121       79.8897         0.000       
     120       79.3157         0.000       
     119       76.8091         0.000       
     118       76.3441         0.000       
     117       76.0462         0.000       
     116       75.5471         0.000       
     115       74.8189         0.000       
     114       72.3513         0.000       
     113       70.7905         0.000       
     112       70.3332         0.000       
     111       66.6121         0.000       
     110       65.6412         0.000       
     109       65.4202         0.000       
     108       63.2997         0.000       
     107       60.8790         0.000       
     106       60.0228         0.000       
     105       58.6875         0.000       
     104       56.9743         0.000       
     103       55.6158         0.000       
     102       55.5049         0.000       
     101       54.9465         0.000       
     100       53.6438         0.000       
      99       53.4976         0.000       
      98       50.1468         0.000       
      97       49.5092         0.000       
      96       47.8223         0.000       
      95       47.6337         0.000       
      94       46.5074         0.000       
      93       45.6185         0.000       
      92       44.7568         0.000       
      91       43.6426         0.000       
      90       42.3286         0.000       
      89       41.1587         0.000       
      88       40.3038         0.000       
      87       40.2699         0.000       
      86       39.0866         0.000       
      85       37.9669         0.000       
      84       37.7001         0.000       
      83       36.6395         0.000       
      82       35.6592         0.000       
      81       33.8361         0.000       
      80       33.7098         0.000       
      79       33.0578         0.000       
      78       31.7498         0.000       
      77       30.7027         0.000       
      76       30.6129         0.000       
      75       28.8466         0.000       
      74       28.5245         0.000       
      73       28.4611         0.000       
      72       26.8433         0.000       
      71       26.2993         0.000       
      70       25.0373         0.000       
      69       24.8948         0.000       
      68       24.6651         0.000       
      67       24.2521         0.000       
      66       23.5884         0.000       
      65       21.9336         0.000       
      64       21.6409         0.000       
      63       21.0349         0.000       
      62       19.2573         0.000       
      61       18.5182         0.000       
      60       17.6931         0.000       
      59       16.1269         0.000       
      58       16.1004         0.000       
      57       14.5816         0.000       
      56       13.2661         0.000       
      55       12.4489         0.000       
      54       12.4069         0.000       
      53       11.6917         0.000       
      52       11.1458         0.000       
      51       10.3652         0.000       
      50       10.2528         0.000       
      49        9.7974         0.000       
      48        9.1812         0.000       
      47        8.5413         0.000       
      46        8.2126         0.000       
      45        7.6213         0.000       
      44        7.0792         0.000       
      43        6.5129         0.000       
      42        5.8177         0.000       
      41        5.0654         0.000       
      40        4.8249         0.000       
      39        4.6013         0.000       
      38        4.5735         0.000       
      37        3.8967         0.000       
      36        3.6149         0.000       
      35        3.3020         0.000       
      34        1.9152         0.000       
      33        1.2903         0.000       
      32        1.0434         0.000       
      31        0.2221         0.000       
      30        0.0017         0.000       
      29       -0.3319         0.000       
      28       -2.3504         0.000       
      27       -2.6620         0.000 < LUMO
      26       -7.2381         2.000 < HOMO
      25       -7.3042         2.000       
      24       -7.8693         2.000       
      23       -8.4043         2.000       
      22       -9.4073         2.000       
      21      -10.3621         2.000       
      20      -11.0875         2.000       
      19      -11.6351         2.000       
      18      -11.8072         2.000       
      17      -12.1128         2.000       
      16      -13.2484         2.000       
      15      -13.3570         2.000       
      14      -14.1713         2.000       
      13      -17.0542         2.000       
      12      -18.8698         2.000       
      11      -25.1197         2.000       
      10      -25.9737         2.000       
       9      -28.0700         2.000       
       8      -29.3588         2.000       
       7     -271.9433         2.000       
       6     -274.7423         2.000       
       5     -383.7832         2.000       
       4     -384.3103         2.000       
       3     -386.7779         2.000       
       2     -511.6732         2.000       
       1     -513.3545         2.000       

AMS application finished. Exiting.
NORMAL TERMINATION
     Total cpu time:     339.83
  Total system time:       1.80
 Total elapsed time:     343.64
NORMAL TERMINATION
