
 *******************************************************************************
 *                                                                             *
 *  --------------------------------                                           *
 *   Amsterdam Modeling Suite (AMS)              2026.103                      *
 *  --------------------------------                                           *
 *                                               r260501 2026-05-01 873454b5   *
 *                                                                             *
 *                                                                             *
 *                              =================                              *
 *                              |               |                              *
 *                              |     A M S     |                              *
 *                              |               |                              *
 *                              =================                              *
 *                                                                             *
 *                                                                             *
 *   Online information and documentation:  https://www.scm.com/support/       *
 *   E-mail:  support@scm.com   info@scm.com                                   *
 *                                                                             *
 *   Scientific publications using AMS results must be properly referenced     *
 *   See the User Manuals (or the web site) for recommended citations          *
 *   The terms and conditions of the End User License Agreement apply to       *
 *   the use of AMS, https://www.scm.com/license-terms/                        *
 *                                                                             *
 **********************  x86_64_linux_intel / intelmpi  ************************
 
 Licensed to: Jong-June Jeon / University of Seoul 2026-06-02 13:44:15
 SCM User ID: u30731
  
 AMS 2026.103  RunTime: Jun03-2026 15:35:35  ShM Nodes: 1  Procs: 1

 AMS jobname: c5_fragB_opt
 AMS jobid  : 582473083

 Start   directory: /gpfs/home1/yeseo1ee/projects/eda-asm-prediction/ADF_800/adf_outputs/batch_003/qmrxn20_e2_A_E_D_E_B_B/
 Results directory: /gpfs/home1/yeseo1ee/projects/eda-asm-prediction/ADF_800/adf_outputs/batch_003/qmrxn20_e2_A_E_D_E_B_B/c5_fragB_opt.results/
 Scratch directory: /tmp/amstmp_c5_fragB_opt_kid0.582473083/

 RNG seed: -210575343 1394294266 115940812 2108230430 836603256 -241634717 1109519505 1925027613



                      ************************************************************************
                      *  ADF 2026.103  RunTime: Jun03-2026 15:35:35  ShM Nodes: 1  Procs: 1  *
                      ************************************************************************
  

       ***************************
       *  GEOMETRY OPTIMIZATION  *
       ***************************

Optimization Method                    Quasi Newton
Optimization Coordinates               Delocalized Coordinates
Optimize lattice                       F
 
 ------------------------------------------------------
 Convergence criteria (Hartree,Angstrom)
 ------------------------------------------------------
 Maximum gradient               0.000100000000
 Maximum rms gradient           0.000066666667
 Maximum step allowed           0.010000000000
 Maximum rms step allowed       0.006666666667
 Maximum energy change allowe   0.000140000000
 Maximum stress energy allowe   0.000500000000
 
Initial model Hessian                  Automatic Hessian
 
------------------------------------
Quasi-Newton Optimizer Parameters
------------------------------------
Hessian Update Method                  BFGS
Maximum number of steps                  200
First GDIIS cycle                          0
Maximum GDIIS vectors                      0
Trust radius (bohr)                        0.200000
Trust radius varies                        T
Constraints converged at all steps         T
Use projector                              T
 
 Rigid motions settings for: old optimizer
 Atomic rotations (x,y,z):     T T T
 Atomic translations (x,y,z):  T T T
 Tolerance:                  1.000000000000000E-006

--------
Geometry
--------
Formula: C3H8ClN2
Atoms
  Index Symbol   x (angstrom)   y (angstrom)   z (angstrom)
      1      C    -0.18255491     0.00724057    -0.30949895
      2      C    -0.04511088    -0.05489488     1.11507966
      3     Cl     1.67784846     0.14621699    -1.24828303
      4      H    -0.46371175    -0.95358940    -0.74467714
      5      N    -0.92583750     1.08865727    -0.91442598
      6      H    -0.42016217     1.94891964    -0.73753886
      7      H    -1.78747747     1.12365485    -0.36836646
      8      C     0.45417318     1.18939998     1.80951897
      9      H    -0.15294385     2.06215451     1.55445070
     10      H     0.38945962     1.04266348     2.89032732
     11      H     1.50206062     1.40765041     1.55185512
     12      N     0.61122560    -1.25127489     1.63327417
     13      H     0.04107892    -2.05979352     1.40940698
     14      H     1.49184601    -1.37026563     1.13027701

Total System Charge              0.00000


----------------
ADF Engine Input
----------------
 
   Basis
     Type TZ2P
     Core None
   End
   XC
     GGA BLYP
     Dispersion GRIMME3 BJDAMP
   End
   Symmetry NOSYM
   NumericalQuality Normal
   Unrestricted No
   SCF
     Iterations 200
     Converge 1.0e-6
   End
   Save TAPE21
 

 Title: *** (NO TITLE) ***

 Using automatic Hessian for delocalized coordinates.
 *** GO1_GOStep1 ***

 Integrated fractional orbital density (NFOD):         1.000

 Energy gradients wrt nuclear displacements
 ==========================================

     Atom      Cartesian (a.u./angstrom)
                 X         Y         Z
 ----------------------------------------
     1 C     0.037205  0.021223  0.032214
     2 C    -0.123220 -0.006145 -0.007749
     3 Cl    0.010047  0.002164 -0.016908
     4 H     0.000144  0.003038  0.004055
     5 N     0.002099  0.008248  0.001310
     6 H    -0.001525 -0.017337  0.001110
     7 H     0.013703 -0.011519  0.005717
     8 C     0.038379  0.003305 -0.018438
     9 H    -0.002183 -0.005842  0.002780
    10 H    -0.004379 -0.001417 -0.004167
    11 H    -0.001259  0.005444  0.004419
    12 N     0.043303 -0.016437 -0.008348
    13 H     0.003039  0.016064  0.007589
    14 H    -0.015353 -0.000788 -0.003583
 ----------------------------------------
 
----------------------------------------------------------------------
Geometry Convergence after Step   1       (Hartree/Angstrom,Angstrom)
----------------------------------------------------------------------
current energy                               -2.57728657 Hartree
energy change                      -2.57728657     0.00014000    F
constrained gradient max            0.12326486     0.00010000    F
constrained gradient rms            0.02392964     0.00006667    F
gradient max                        0.12326486
gradient rms                        0.02392964
cart. step max                      0.06757457     0.01000000    F
cart. step rms                      0.02512650     0.00666667    F
 

--------
Geometry
--------
Formula: C3H8ClN2
Atoms
  Index Symbol   x (angstrom)   y (angstrom)   z (angstrom)
      1      C    -0.19914581     0.00852608    -0.31976834
      2      C    -0.00946950    -0.04737582     1.11308589
      3     Cl     1.66936578     0.12710800    -1.22530609
      4      H    -0.48334778    -0.95794932    -0.74521330
      5      N    -0.95042971     1.08615507    -0.94830409
      6      H    -0.45296680     1.96504922    -0.80511343
      7      H    -1.83254328     1.15819442    -0.43200705
      8      C     0.46617739     1.18547518     1.83969059
      9      H    -0.13871491     2.06616616     1.59933730
     10      H     0.41013507     1.02144260     2.92017475
     11      H     1.51372808     1.40291459     1.57761012
     12      N     0.62110743    -1.24870524     1.63553576
     13      H     0.05251345    -2.06298572     1.39736298
     14      H     1.52348446    -1.37727585     1.16431442

Total System Charge              0.00000

 *** GO1_GOStep2 ***

 Integrated fractional orbital density (NFOD):         1.000

 Energy gradients wrt nuclear displacements
 ==========================================

     Atom      Cartesian (a.u./angstrom)
                 X         Y         Z
 ----------------------------------------
     1 C     0.035049  0.010780  0.014927
     2 C    -0.094857 -0.004209 -0.000213
     3 Cl    0.007862  0.000076 -0.010368
     4 H     0.000219  0.000361  0.000578
     5 N    -0.004877  0.004432 -0.008573
     6 H    -0.000465 -0.005724  0.001239
     7 H     0.005143 -0.003464  0.005557
     8 C     0.031033  0.002332 -0.008669
     9 H    -0.002325 -0.003267  0.003563
    10 H    -0.003013  0.000334 -0.000886
    11 H    -0.001688  0.002014  0.002387
    12 N     0.039133 -0.007789  0.001187
    13 H    -0.002411  0.006163  0.006485
    14 H    -0.008803 -0.002039 -0.007214
 ----------------------------------------

 dE(predicted):    -0.66166E-02, dE(actual):    -0.65378E-02, Trust radius:    0.400000, all in a.u.
 
----------------------------------------------------------------------
Geometry Convergence after Step   2       (Hartree/Angstrom,Angstrom)
----------------------------------------------------------------------
current energy                               -2.58382441 Hartree
energy change                      -0.00653784     0.00014000    F
constrained gradient max            0.09489110     0.00010000    F
constrained gradient rms            0.01817986     0.00006667    F
gradient max                        0.09489110
gradient rms                        0.01817986
cart. step max                      0.11542325     0.01000000    F
cart. step rms                      0.02701238     0.00666667    F
 

--------
Geometry
--------
Formula: C3H8ClN2
Atoms
  Index Symbol   x (angstrom)   y (angstrom)   z (angstrom)
      1      C    -0.21247177     0.00122676    -0.33045621
      2      C     0.05250044    -0.04659689     1.09704168
      3     Cl     1.64504219     0.11462574    -1.23142520
      4      H    -0.51712272    -0.96337686    -0.74672797
      5      N    -0.96273921     1.09141972    -0.94123097
      6      H    -0.45630844     1.97244232    -0.81574586
      7      H    -1.85231051     1.19079208    -0.43959845
      8      C     0.46886178     1.18874067     1.84207963
      9      H    -0.14272276     2.06277326     1.58678792
     10      H     0.40838119     1.01815121     2.92188148
     11      H     1.51715008     1.42278129     1.59002724
     12      N     0.61003892    -1.26001367     1.63629133
     13      H     0.06538191    -2.07008314     1.32273724
     14      H     1.56621279    -1.39614310     1.27973766

Total System Charge              0.00000

 *** GO1_GOStep3 ***

 Integrated fractional orbital density (NFOD):         1.000

 Energy gradients wrt nuclear displacements
 ==========================================

     Atom      Cartesian (a.u./angstrom)
                 X         Y         Z
 ----------------------------------------
     1 C     0.028651  0.002200 -0.003491
     2 C    -0.053188  0.002100  0.003955
     3 Cl    0.001215 -0.000336 -0.001651
     4 H     0.000036 -0.000471 -0.000887
     5 N    -0.006599 -0.000544 -0.008958
     6 H     0.000626  0.001705  0.001536
     7 H     0.000869  0.001739  0.004405
     8 C     0.013895  0.003640 -0.001018
     9 H    -0.002081  0.000615  0.002272
    10 H    -0.001195  0.000230  0.000440
    11 H    -0.001601 -0.001984 -0.000614
    12 N     0.028944 -0.004769  0.010772
    13 H    -0.005614 -0.000808  0.005326
    14 H    -0.003958 -0.003317 -0.012087
 ----------------------------------------

 dE(predicted):    -0.69912E-02, dE(actual):    -0.75741E-02, Trust radius:    0.800000, all in a.u.
 
----------------------------------------------------------------------
Geometry Convergence after Step   3       (Hartree/Angstrom,Angstrom)
----------------------------------------------------------------------
current energy                               -2.59139850 Hartree
energy change                      -0.00757409     0.00014000    F
constrained gradient max            0.05321059     0.00010000    F
constrained gradient rms            0.01121291     0.00006667    F
gradient max                        0.05321059
gradient rms                        0.01121291
cart. step max                      0.21055855     0.01000000    F
cart. step rms                      0.04394804     0.00666667    F
 

--------
Geometry
--------
Formula: C3H8ClN2
Atoms
  Index Symbol   x (angstrom)   y (angstrom)   z (angstrom)
      1      C    -0.23052015    -0.00144327    -0.33812036
      2      C     0.09991445    -0.04667914     1.07614234
      3     Cl     1.60391624     0.08841550    -1.27257718
      4      H    -0.56398820    -0.96217984    -0.74025267
      5      N    -0.97446321     1.09924798    -0.93091475
      6      H    -0.45641019     1.97677080    -0.82381321
      7      H    -1.86746176     1.21821337    -0.44003167
      8      C     0.47912784     1.18208750     1.83899959
      9      H    -0.13347751     2.05116448     1.56966074
     10      H     0.40462638     1.00348865     2.91663317
     11      H     1.53025292     1.43511087     1.60895629
     12      N     0.57932363    -1.26637906     1.63078517
     13      H     0.12499757    -2.07145508     1.18563584
     14      H     1.59405588    -1.37962337     1.49029621

Total System Charge              0.00000

 *** GO1_GOStep4 ***

 Integrated fractional orbital density (NFOD):         1.000

 Energy gradients wrt nuclear displacements
 ==========================================

     Atom      Cartesian (a.u./angstrom)
                 X         Y         Z
 ----------------------------------------
     1 C     0.023678 -0.000876 -0.013915
     2 C    -0.024365  0.006783  0.002668
     3 Cl   -0.006206 -0.000673  0.005395
     4 H    -0.000062 -0.000069 -0.000918
     5 N    -0.006047 -0.002730 -0.008214
     6 H     0.000885  0.004173  0.001332
     7 H    -0.000627  0.003972  0.003162
     8 C     0.000128  0.000887  0.003129
     9 H    -0.001058  0.001753  0.000764
    10 H     0.000487 -0.000321  0.000481
    11 H    -0.000456 -0.003309 -0.001886
    12 N     0.019514 -0.003015  0.020871
    13 H    -0.006623 -0.002664  0.002150
    14 H     0.000753 -0.003911 -0.015018
 ----------------------------------------

 dE(predicted):    -0.91843E-02, dE(actual):    -0.71551E-02, Trust radius:    0.800000, all in a.u.
 
----------------------------------------------------------------------
Geometry Convergence after Step   4       (Hartree/Angstrom,Angstrom)
----------------------------------------------------------------------
current energy                               -2.59855362 Hartree
energy change                      -0.00715512     0.00014000    F
constrained gradient max            0.02438158     0.00010000    F
constrained gradient rms            0.00813773     0.00006667    F
gradient max                        0.02438158
gradient rms                        0.00813773
cart. step max                      0.21421054     0.01000000    F
cart. step rms                      0.04310551     0.00666667    F
 

--------
Geometry
--------
Formula: C3H8ClN2
Atoms
  Index Symbol   x (angstrom)   y (angstrom)   z (angstrom)
      1      C    -0.23864824    -0.00102514    -0.34596685
      2      C     0.13826362    -0.04806023     1.05298037
      3     Cl     1.56836925     0.07879620    -1.33524708
      4      H    -0.59393423    -0.95803903    -0.73787079
      5      N    -0.98417943     1.10528548    -0.91480308
      6      H    -0.46105050     1.98040254    -0.82209995
      7      H    -1.87727074     1.22812143    -0.42679261
      8      C     0.49421759     1.17465290     1.83022473
      9      H    -0.11956332     2.03849608     1.54961643
     10      H     0.40150135     0.99070427     2.90550016
     11      H     1.54700337     1.44824168     1.62555837
     12      N     0.54656901    -1.27061266     1.61417254
     13      H     0.20079163    -2.06885345     1.07162051
     14      H     1.56782453    -1.37137070     1.70450676

Total System Charge              0.00000

 *** GO1_GOStep5 ***

 Integrated fractional orbital density (NFOD):         1.000

 Energy gradients wrt nuclear displacements
 ==========================================

     Atom      Cartesian (a.u./angstrom)
                 X         Y         Z
 ----------------------------------------
     1 C     0.020982 -0.001442 -0.018467
     2 C    -0.008274  0.005948  0.002610
     3 Cl   -0.011590 -0.000488  0.009424
     4 H    -0.000389  0.000216 -0.000762
     5 N    -0.004247 -0.003849 -0.006020
     6 H     0.000716  0.003987  0.001085
     7 H    -0.000918  0.004272  0.002154
     8 C    -0.006961 -0.001726  0.003950
     9 H     0.000085  0.001671 -0.000398
    10 H     0.001410 -0.000686 -0.000114
    11 H     0.000729 -0.002102 -0.001790
    12 N     0.009036  0.002078  0.023021
    13 H    -0.005640 -0.003357 -0.001021
    14 H     0.005061 -0.004522 -0.013671
 ----------------------------------------

 dE(predicted):    -0.90907E-02, dE(actual):    -0.57704E-02, Trust radius:    0.800000, all in a.u.
 
----------------------------------------------------------------------
Geometry Convergence after Step   5       (Hartree/Angstrom,Angstrom)
----------------------------------------------------------------------
current energy                               -2.60432402 Hartree
energy change                      -0.00577040     0.00014000    F
constrained gradient max            0.02304791     0.00010000    F
constrained gradient rms            0.00724085     0.00006667    F
gradient max                        0.02304791
gradient rms                        0.00724085
cart. step max                      0.21824995     0.01000000    F
cart. step rms                      0.04633412     0.00666667    F
 

--------
Geometry
--------
Formula: C3H8ClN2
Atoms
  Index Symbol   x (angstrom)   y (angstrom)   z (angstrom)
      1      C    -0.24000719     0.00214649    -0.35385724
      2      C     0.17771653    -0.04890391     1.02616774
      3     Cl     1.53583501     0.07447244    -1.41867557
      4      H    -0.61331708    -0.95222167    -0.73513858
      5      N    -0.99335374     1.11050633    -0.89398219
      6      H    -0.47009826     1.98485833    -0.81675244
      7      H    -1.88436299     1.22667072    -0.40342470
      8      C     0.51379747     1.16786323     1.81943525
      9      H    -0.10400490     2.02530048     1.53142932
     10      H     0.40019092     0.97835759     2.89203842
     11      H     1.56630180     1.46324107     1.64192110
     12      N     0.51762000    -1.27358728     1.58497839
     13      H     0.29961048    -2.06434538     0.97450330
     14      H     1.48396583    -1.36761906     1.92275670

Total System Charge              0.00000

 *** GO1_GOStep6 ***

 Integrated fractional orbital density (NFOD):         1.000

 Energy gradients wrt nuclear displacements
 ==========================================

     Atom      Cartesian (a.u./angstrom)
                 X         Y         Z
 ----------------------------------------
     1 C     0.019749 -0.000310 -0.019581
     2 C     0.002212 -0.000197  0.003910
     3 Cl   -0.015271 -0.000276  0.011636
     4 H    -0.000703  0.000305 -0.000216
     5 N    -0.002423 -0.004008 -0.002754
     6 H     0.000354  0.002280  0.000803
     7 H    -0.000468  0.003279  0.001283
     8 C    -0.009528 -0.003258  0.003244
     9 H     0.001018  0.001170 -0.001027
    10 H     0.001767 -0.000720 -0.000659
    11 H     0.001472 -0.000006 -0.000985
    12 N    -0.003233  0.008548  0.015110
    13 H    -0.002954 -0.001764 -0.001680
    14 H     0.008006 -0.005044 -0.009085
 ----------------------------------------

 dE(predicted):    -0.72360E-02, dE(actual):    -0.48717E-02, Trust radius:    0.800000, all in a.u.
 
----------------------------------------------------------------------
Geometry Convergence after Step   6       (Hartree/Angstrom,Angstrom)
----------------------------------------------------------------------
current energy                               -2.60919571 Hartree
energy change                      -0.00487169     0.00014000    F
constrained gradient max            0.01979360     0.00010000    F
constrained gradient rms            0.00660494     0.00006667    F
gradient max                        0.01979360
gradient rms                        0.00660494
cart. step max                      0.22057822     0.01000000    F
cart. step rms                      0.05355482     0.00666667    F
 

--------
Geometry
--------
Formula: C3H8ClN2
Atoms
  Index Symbol   x (angstrom)   y (angstrom)   z (angstrom)
      1      C    -0.24681099     0.00719754    -0.36071337
      2      C     0.21469218    -0.05172299     0.99583363
      3     Cl     1.49960604     0.06063198    -1.51509125
      4      H    -0.63969942    -0.94310856    -0.73220603
      5      N    -1.00086885     1.12240836    -0.87267462
      6      H    -0.47455948     1.99398980    -0.81180063
      7      H    -1.89025664     1.23358801    -0.38108833
      8      C     0.53402050     1.15736583     1.80805041
      9      H    -0.09324894     2.00786729     1.52275080
     10      H     0.40510253     0.95832928     2.87809826
     11      H     1.58365819     1.47190085     1.65064463
     12      N     0.50643549    -1.27739222     1.54786512
     13      H     0.45645842    -2.06179627     0.89839598
     14      H     1.33536485    -1.35251953     2.14333492

Total System Charge              0.00000

 *** GO1_GOStep7 ***

 Integrated fractional orbital density (NFOD):         1.000

 Energy gradients wrt nuclear displacements
 ==========================================

     Atom      Cartesian (a.u./angstrom)
                 X         Y         Z
 ----------------------------------------
     1 C     0.018271  0.001908 -0.017720
     2 C     0.008813 -0.007498  0.002862
     3 Cl   -0.017533  0.000245  0.012690
     4 H    -0.000898 -0.000239  0.000250
     5 N    -0.001727 -0.002823 -0.000272
     6 H     0.000017  0.000514  0.000283
     7 H     0.000178  0.001766  0.000493
     8 C    -0.008105 -0.004337  0.002033
     9 H     0.001198  0.000481 -0.001275
    10 H     0.001419 -0.000646 -0.000821
    11 H     0.001542  0.001576 -0.000276
    12 N    -0.010473  0.014130  0.005034
    13 H     0.000208 -0.000171 -0.000946
    14 H     0.007090 -0.004905 -0.002336
 ----------------------------------------

 dE(predicted):    -0.43818E-02, dE(actual):    -0.35123E-02, Trust radius:    0.800000, all in a.u.
 
----------------------------------------------------------------------
Geometry Convergence after Step   7       (Hartree/Angstrom,Angstrom)
----------------------------------------------------------------------
current energy                               -2.61270798 Hartree
energy change                      -0.00351227     0.00014000    F
constrained gradient max            0.01830129     0.00010000    F
constrained gradient rms            0.00653394     0.00006667    F
gradient max                        0.01830129
gradient rms                        0.00653394
cart. step max                      0.19627265     0.01000000    F
cart. step rms                      0.05118694     0.00666667    F
 

--------
Geometry
--------
Formula: C3H8ClN2
Atoms
  Index Symbol   x (angstrom)   y (angstrom)   z (angstrom)
      1      C    -0.26786446     0.00953812    -0.35592619
      2      C     0.23642105    -0.05124565     0.97563960
      3     Cl     1.46412757    -0.00286798    -1.59497556
      4      H    -0.68827052    -0.93387536    -0.71299666
      5      N    -0.99681469     1.14140971    -0.85814660
      6      H    -0.45525257     2.00261712    -0.80887465
      7      H    -1.88962159     1.26293261    -0.37749912
      8      C     0.54024379     1.15191036     1.80665382
      9      H    -0.10712663     1.99258603     1.53953772
     10      H     0.41339544     0.93904495     2.87555700
     11      H     1.58268560     1.48541215     1.65264431
     12      N     0.52983913    -1.28466613     1.50242830
     13      H     0.65273107    -2.04801735     0.84112721
     14      H     1.17540068    -1.33803920     2.28623033

Total System Charge              0.00000

 *** GO1_GOStep8 ***

 Integrated fractional orbital density (NFOD):         1.000

 Energy gradients wrt nuclear displacements
 ==========================================

     Atom      Cartesian (a.u./angstrom)
                 X         Y         Z
 ----------------------------------------
     1 C     0.017281 -0.000380 -0.011471
     2 C     0.010557 -0.004985 -0.000454
     3 Cl   -0.016799  0.001401  0.011541
     4 H    -0.000769 -0.001002  0.000452
     5 N    -0.002430  0.000322  0.000641
     6 H    -0.000057 -0.000742 -0.000568
     7 H     0.000769  0.000384  0.000412
     8 C    -0.004007 -0.002792  0.001214
     9 H     0.000766  0.000116 -0.000631
    10 H     0.000405  0.000024 -0.000424
    11 H     0.000696  0.001720 -0.000068
    12 N    -0.009803  0.008439 -0.001634
    13 H     0.001960  0.000546  0.000795
    14 H     0.001431 -0.003049  0.000195
 ----------------------------------------

 dE(predicted):    -0.13685E-02, dE(actual):    -0.16721E-02, Trust radius:    0.800000, all in a.u.
 
----------------------------------------------------------------------
Geometry Convergence after Step   8       (Hartree/Angstrom,Angstrom)
----------------------------------------------------------------------
current energy                               -2.61438009 Hartree
energy change                      -0.00167211     0.00014000    F
constrained gradient max            0.01730477     0.00010000    F
constrained gradient rms            0.00536842     0.00006667    F
gradient max                        0.01730477
gradient rms                        0.00536842
cart. step max                      0.12365716     0.01000000    F
cart. step rms                      0.03343242     0.00666667    F
 

--------
Geometry
--------
Formula: C3H8ClN2
Atoms
  Index Symbol   x (angstrom)   y (angstrom)   z (angstrom)
      1      C    -0.30098891     0.01046817    -0.34637163
      2      C     0.22403010    -0.05398860     0.97367882
      3     Cl     1.44408926    -0.09965981    -1.61189796
      4      H    -0.75167179    -0.92071408    -0.69573448
      5      N    -0.97931600     1.16572631    -0.86118079
      6      H    -0.41470173     2.01078792    -0.79689485
      7      H    -1.88476098     1.30968090    -0.41156651
      8      C     0.52326208     1.14581107     1.81401152
      9      H    -0.14343134     1.97865701     1.57140360
     10      H     0.41687428     0.91884286     2.88297115
     11      H     1.55829223     1.49100180     1.64638362
     12      N     0.57347916    -1.28591786     1.47920307
     13      H     0.77638823    -2.02768016     0.81368308
     14      H     1.14834929    -1.31627616     2.31371087

Total System Charge              0.00000

 *** GO1_GOStep9 ***

 Integrated fractional orbital density (NFOD):         1.000

 Energy gradients wrt nuclear displacements
 ==========================================

     Atom      Cartesian (a.u./angstrom)
                 X         Y         Z
 ----------------------------------------
     1 C     0.017032 -0.002352 -0.008938
     2 C     0.004788  0.001276 -0.003691
     3 Cl   -0.015529  0.002249  0.010346
     4 H    -0.000676 -0.000991  0.000715
     5 N    -0.003204  0.003469 -0.001730
     6 H     0.000210 -0.000738 -0.001210
     7 H     0.000932  0.000046  0.001318
     8 C    -0.000588 -0.002175  0.000800
     9 H     0.000186 -0.000079 -0.000290
    10 H    -0.000025  0.000293  0.000056
    11 H    -0.000119  0.000704 -0.000028
    12 N    -0.003555 -0.000599  0.001758
    13 H     0.001901  0.000008  0.001231
    14 H    -0.001352 -0.001111 -0.000337
 ----------------------------------------

 dE(predicted):    -0.54715E-03, dE(actual):    -0.90533E-03, Trust radius:    0.800000, all in a.u.
 
----------------------------------------------------------------------
Geometry Convergence after Step   9       (Hartree/Angstrom,Angstrom)
----------------------------------------------------------------------
current energy                               -2.61528541 Hartree
energy change                      -0.00090533     0.00014000    F
constrained gradient max            0.01706331     0.00010000    F
constrained gradient rms            0.00444426     0.00006667    F
gradient max                        0.01706331
gradient rms                        0.00444426
cart. step max                      0.21069213     0.01000000    F
cart. step rms                      0.06122594     0.00666667    F
 

--------
Geometry
--------
Formula: C3H8ClN2
Atoms
  Index Symbol   x (angstrom)   y (angstrom)   z (angstrom)
      1      C    -0.36219904     0.01226129    -0.31515492
      2      C     0.19801451    -0.05021297     0.98376757
      3     Cl     1.41883055    -0.31035194    -1.60457291
      4      H    -0.86285574    -0.89561182    -0.65104835
      5      N    -0.93704147     1.19786519    -0.86684494
      6      H    -0.35100743     2.02000655    -0.73559231
      7      H    -1.88412492     1.36882210    -0.52627119
      8      C     0.49302430     1.14708581     1.83514736
      9      H    -0.20638687     1.96466480     1.63847647
     10      H     0.43017139     0.89705639     2.90342164
     11      H     1.51377667     1.51243288     1.63840843
     12      N     0.65342339    -1.27421150     1.42498464
     13      H     0.95016974    -1.95889655     0.73526139
     14      H     1.13609879    -1.30417086     2.31141664

Total System Charge              0.00000

 *** GO1_GOStep10 ***

 Integrated fractional orbital density (NFOD):         1.000

 Energy gradients wrt nuclear displacements
 ==========================================

     Atom      Cartesian (a.u./angstrom)
                 X         Y         Z
 ----------------------------------------
     1 C     0.019380 -0.010098 -0.002607
     2 C    -0.007269  0.010267 -0.002767
     3 Cl   -0.014321  0.004253  0.010020
     4 H    -0.000960 -0.000430  0.001009
     5 N    -0.003955  0.006452 -0.006744
     6 H     0.001344 -0.000939 -0.001591
     7 H     0.000836  0.000038  0.004202
     8 C     0.003260  0.001436 -0.000688
     9 H    -0.000244 -0.000325  0.000633
    10 H    -0.000838  0.000708  0.000786
    11 H    -0.001263 -0.000878  0.000049
    12 N     0.008527 -0.012214 -0.002176
    13 H     0.001296 -0.000395  0.002848
    14 H    -0.005794  0.002126 -0.002975
 ----------------------------------------

 dE(predicted):    -0.13714E-02, dE(actual):    -0.15309E-02, Trust radius:    0.800000, all in a.u.
 
----------------------------------------------------------------------
Geometry Convergence after Step  10       (Hartree/Angstrom,Angstrom)
----------------------------------------------------------------------
current energy                               -2.61681629 Hartree
energy change                      -0.00153088     0.00014000    F
constrained gradient max            0.01943832     0.00010000    F
constrained gradient rms            0.00578081     0.00006667    F
gradient max                        0.01943832
gradient rms                        0.00578081
cart. step max                      0.21120486     0.01000000    F
cart. step rms                      0.06213356     0.00666667    F
 

--------
Geometry
--------
Formula: C3H8ClN2
Atoms
  Index Symbol   x (angstrom)   y (angstrom)   z (angstrom)
      1      C    -0.42008235     0.02533999    -0.28121309
      2      C     0.17021543    -0.04619461     0.99899350
      3     Cl     1.41165537    -0.52155680    -1.57825920
      4      H    -0.95085995    -0.85928594    -0.62363396
      5      N    -0.89424125     1.22611037    -0.86490667
      6      H    -0.35017501     2.04527417    -0.60336296
      7      H    -1.89283082     1.38082397    -0.72521632
      8      C     0.47956150     1.14863422     1.85423920
      9      H    -0.24353736     1.95555232     1.70740517
     10      H     0.46730718     0.87711759     2.91978475
     11      H     1.48772579     1.52289351     1.62173838
     12      N     0.72009533    -1.24936067     1.38352824
     13      H     1.06285144    -1.88035174     0.66501982
     14      H     1.14220857    -1.29825700     2.29728264

Total System Charge              0.00000

 *** GO1_GOStep11 ***

 Integrated fractional orbital density (NFOD):         1.000

 Energy gradients wrt nuclear displacements
 ==========================================

     Atom      Cartesian (a.u./angstrom)
                 X         Y         Z
 ----------------------------------------
     1 C     0.023171 -0.015867  0.001841
     2 C    -0.021065  0.011663 -0.000003
     3 Cl   -0.014530  0.006686  0.011696
     4 H    -0.001379  0.001019  0.001632
     5 N    -0.004951  0.009195 -0.017024
     6 H     0.002918 -0.001279 -0.000032
     7 H    -0.000010  0.000436  0.007408
     8 C     0.006765  0.003719 -0.002911
     9 H    -0.000373 -0.001278  0.000883
    10 H    -0.000851  0.000264  0.001205
    11 H    -0.001613 -0.002492  0.000404
    12 N     0.020158 -0.016523 -0.005463
    13 H     0.000378  0.000422  0.004420
    14 H    -0.008618  0.004035 -0.004057
 ----------------------------------------

 dE(predicted):    -0.18772E-02, dE(actual):    -0.25191E-02, Trust radius:    1.000000, all in a.u.
 
----------------------------------------------------------------------
Geometry Convergence after Step  11       (Hartree/Angstrom,Angstrom)
----------------------------------------------------------------------
current energy                               -2.61933536 Hartree
energy change                      -0.00251907     0.00014000    F
constrained gradient max            0.02323248     0.00010000    F
constrained gradient rms            0.00866271     0.00006667    F
gradient max                        0.02323248
gradient rms                        0.00866271
cart. step max                      0.21318050     0.01000000    F
cart. step rms                      0.05910302     0.00666667    F
 

--------
Geometry
--------
Formula: C3H8ClN2
Atoms
  Index Symbol   x (angstrom)   y (angstrom)   z (angstrom)
      1      C    -0.47357123     0.04354818    -0.24631452
      2      C     0.13685089    -0.04443743     1.02011111
      3     Cl     1.43142807    -0.71024513    -1.52851361
      4      H    -1.00812505    -0.82239416    -0.61818085
      5      N    -0.86284337     1.24733950    -0.84747334
      6      H    -0.40804146     2.06962310    -0.45912927
      7      H    -1.86982122     1.37430235    -0.93839683
      8      C     0.47325132     1.15066833     1.87032393
      9      H    -0.26337712     1.95218239     1.77169839
     10      H     0.51265438     0.86109935     2.93079854
     11      H     1.47100037     1.52305731     1.59908771
     12      N     0.76691502    -1.22082281     1.35275235
     13      H     1.09693147    -1.81531347     0.59784825
     14      H     1.18664180    -1.28186814     2.26678763

Total System Charge              0.00000

 *** GO1_GOStep12 ***

 Integrated fractional orbital density (NFOD):         1.000

 Energy gradients wrt nuclear displacements
 ==========================================

     Atom      Cartesian (a.u./angstrom)
                 X         Y         Z
 ----------------------------------------
     1 C     0.022777 -0.015606  0.004914
     2 C    -0.034362  0.009020  0.003907
     3 Cl   -0.012010  0.007393  0.014399
     4 H    -0.002722  0.004339  0.002466
     5 N    -0.000893  0.008145 -0.025778
     6 H     0.002568 -0.002647  0.002691
     7 H    -0.001952  0.000942  0.009210
     8 C     0.008859  0.006394 -0.006063
     9 H    -0.000538 -0.002464  0.000769
    10 H    -0.000196 -0.001046  0.001319
    11 H    -0.001350 -0.004224  0.001227
    12 N     0.031876 -0.018718 -0.012473
    13 H    -0.003085  0.002778  0.006360
    14 H    -0.008972  0.005695 -0.002948
 ----------------------------------------

 dE(predicted):    -0.43882E-02, dE(actual):    -0.30193E-02, Trust radius:    1.000000, all in a.u.
 
----------------------------------------------------------------------
Geometry Convergence after Step  12       (Hartree/Angstrom,Angstrom)
----------------------------------------------------------------------
current energy                               -2.62235469 Hartree
energy change                      -0.00301933     0.00014000    F
constrained gradient max            0.03436831     0.00010000    F
constrained gradient rms            0.01116207     0.00006667    F
gradient max                        0.03436831
gradient rms                        0.01116207
cart. step max                      0.21172739     0.01000000    F
cart. step rms                      0.08006150     0.00666667    F
 

--------
Geometry
--------
Formula: C3H8ClN2
Atoms
  Index Symbol   x (angstrom)   y (angstrom)   z (angstrom)
      1      C    -0.51698400     0.06424974    -0.22947542
      2      C     0.07968444    -0.06074688     1.04468463
      3     Cl     1.61384364    -0.75109025    -1.49453443
      4      H    -0.94487538    -0.79177301    -0.72411565
      5      N    -0.89277969     1.26216763    -0.77591109
      6      H    -0.59472081     2.08000314    -0.25115119
      7      H    -1.85013146     1.34262994    -1.10796868
      8      C     0.49589807     1.14467143     1.84905534
      9      H    -0.21184419     1.97339297     1.77456160
     10      H     0.57758560     0.85491452     2.90578970
     11      H     1.50049276     1.45732809     1.53025528
     12      N     0.73575272    -1.20271447     1.39398749
     13      H     0.88520408    -1.85807300     0.62779977
     14      H     1.31276809    -1.18822047     2.22842215

Total System Charge              0.00000

 *** GO1_GOStep13 ***

 Integrated fractional orbital density (NFOD):         1.000

 Energy gradients wrt nuclear displacements
 ==========================================

     Atom      Cartesian (a.u./angstrom)
                 X         Y         Z
 ----------------------------------------
     1 C     0.010372  0.010877 -0.011418
     2 C    -0.043481 -0.017353  0.014283
     3 Cl   -0.001066  0.003727  0.004667
     4 H    -0.001880  0.012258  0.001163
     5 N     0.005510 -0.017477 -0.019737
     6 H     0.001235 -0.003945  0.006828
     7 H    -0.002312  0.002752  0.009813
     8 C     0.009672  0.008463 -0.009567
     9 H    -0.001600 -0.003674 -0.001668
    10 H     0.002468 -0.004814 -0.001453
    11 H     0.001726 -0.005646  0.003955
    12 N     0.038163 -0.001257 -0.000826
    13 H    -0.017665  0.005861 -0.006078
    14 H    -0.001142  0.010229  0.010038
 ----------------------------------------

 dE(predicted):    -0.49947E-02, dE(actual):    -0.17652E-02, Trust radius:    1.000000, all in a.u.
 
----------------------------------------------------------------------
Geometry Convergence after Step  13       (Hartree/Angstrom,Angstrom)
----------------------------------------------------------------------
current energy                               -2.62411994 Hartree
energy change                      -0.00176525     0.00014000    F
constrained gradient max            0.04347745     0.00010000    F
constrained gradient rms            0.01219714     0.00006667    F
gradient max                        0.04347745
gradient rms                        0.01219714
cart. step max                      0.21218160     0.01000000    F
cart. step rms                      0.06441952     0.00666667    F
 

--------
Geometry
--------
Formula: C3H8ClN2
Atoms
  Index Symbol   x (angstrom)   y (angstrom)   z (angstrom)
      1      C    -0.54957183     0.07852038    -0.18973760
      2      C     0.09368012    -0.04644584     1.05208116
      3     Cl     1.53301702    -0.96327185    -1.52440254
      4      H    -1.00499506    -0.77482008    -0.66326296
      5      N    -0.86614222     1.27500463    -0.76373041
      6      H    -0.62879985     2.10038478    -0.22197045
      7      H    -1.76151775     1.35282823    -1.23668373
      8      C     0.48206246     1.15676002     1.87993918
      9      H    -0.26420019     1.95350632     1.85626138
     10      H     0.60537804     0.84722878     2.92792430
     11      H     1.46018833     1.52094994     1.53920218
     12      N     0.79704744    -1.17423034     1.33613391
     13      H     1.05549328    -1.75305935     0.53972994
     14      H     1.23825410    -1.24661625     2.23991514

Total System Charge              0.00000

 *** GO1_GOStep14 ***

 Integrated fractional orbital density (NFOD):         1.000

 Energy gradients wrt nuclear displacements
 ==========================================

     Atom      Cartesian (a.u./angstrom)
                 X         Y         Z
 ----------------------------------------
     1 C     0.010452  0.008585  0.000542
     2 C    -0.040249 -0.016874  0.008992
     3 Cl   -0.001308  0.004957  0.007315
     4 H    -0.004897  0.011846  0.003248
     5 N     0.011088 -0.016258 -0.020418
     6 H    -0.002118 -0.004735  0.006715
     7 H    -0.003222  0.002721  0.007022
     8 C     0.011075  0.010885 -0.010740
     9 H    -0.000365 -0.004971  0.000284
    10 H     0.000858 -0.003474 -0.000055
    11 H     0.000468 -0.006081  0.002848
    12 N     0.039181 -0.004657 -0.013991
    13 H    -0.012628  0.010564  0.008554
    14 H    -0.008334  0.007493 -0.000316
 ----------------------------------------
 Rebuilding optimization coordinates

 dE(predicted):    -0.39852E-02, dE(actual):    -0.27963E-02, Trust radius:    1.000000, all in a.u.
 
----------------------------------------------------------------------
Geometry Convergence after Step  14       (Hartree/Angstrom,Angstrom)
----------------------------------------------------------------------
current energy                               -2.62691628 Hartree
energy change                      -0.00279635     0.00014000    F
constrained gradient max            0.04027103     0.00010000    F
constrained gradient rms            0.01198080     0.00006667    F
gradient max                        0.04027103
gradient rms                        0.01198080
cart. step max                      0.13432181     0.01000000    F
cart. step rms                      0.05382208     0.00666667    F
 

--------
Geometry
--------
Formula: C3H8ClN2
Atoms
  Index Symbol   x (angstrom)   y (angstrom)   z (angstrom)
      1      C    -0.50102750     0.08994336    -0.18195187
      2      C     0.16426865    -0.01072129     1.04150869
      3     Cl     1.51357045    -1.01046425    -1.59367154
      4      H    -0.92367959    -0.81734454    -0.60306158
      5      N    -0.88263295     1.28647850    -0.77750234
      6      H    -0.56040947     2.15120149    -0.35629226
      7      H    -1.82434900     1.33406370    -1.15414030
      8      C     0.48551052     1.18408018     1.91216921
      9      H    -0.30607975     1.93733906     1.90618788
     10      H     0.61945505     0.88064354     2.96032715
     11      H     1.42124530     1.65006898     1.57091341
     12      N     0.75922527    -1.20425414     1.30585014
     13      H     1.08061069    -1.77810034     0.52421592
     14      H     1.14418621    -1.36619487     2.21684699

Total System Charge              0.00000

 *** GO1_GOStep15 ***

 Integrated fractional orbital density (NFOD):         1.000

 Energy gradients wrt nuclear displacements
 ==========================================

     Atom      Cartesian (a.u./angstrom)
                 X         Y         Z
 ----------------------------------------
     1 C     0.022901 -0.022147  0.015015
     2 C    -0.023194 -0.005688  0.012617
     3 Cl   -0.001534  0.003976  0.004139
     4 H    -0.002020 -0.005930  0.005427
     5 N    -0.000810  0.021498 -0.022808
     6 H    -0.000168  0.000418  0.000494
     7 H    -0.003624  0.000686  0.008003
     8 C     0.006031  0.010771 -0.006512
     9 H     0.003504 -0.001715  0.004164
    10 H    -0.003232  0.001385  0.002750
    11 H    -0.001361 -0.000152 -0.000732
    12 N     0.015318 -0.005122 -0.021193
    13 H    -0.000663 -0.000539  0.012782
    14 H    -0.011150  0.002561 -0.014148
 ----------------------------------------

 dE(predicted):    -0.46547E-02, dE(actual):    -0.27299E-02, Trust radius:    1.000000, all in a.u.
 
----------------------------------------------------------------------
Geometry Convergence after Step  15       (Hartree/Angstrom,Angstrom)
----------------------------------------------------------------------
current energy                               -2.62964617 Hartree
energy change                      -0.00272989     0.00014000    F
constrained gradient max            0.02322456     0.00010000    F
constrained gradient rms            0.01045355     0.00006667    F
gradient max                        0.02322456
gradient rms                        0.01045355
cart. step max                      0.13780357     0.01000000    F
cart. step rms                      0.05215628     0.00666667    F
 

--------
Geometry
--------
Formula: C3H8ClN2
Atoms
  Index Symbol   x (angstrom)   y (angstrom)   z (angstrom)
      1      C    -0.55600309     0.10656276    -0.16587238
      2      C     0.12862265    -0.02530974     1.04727455
      3     Cl     1.50370067    -1.14738776    -1.60628242
      4      H    -0.96705012    -0.76456860    -0.65665811
      5      N    -0.87135638     1.29864251    -0.73390994
      6      H    -0.64531779     2.14483989    -0.22401591
      7      H    -1.71605835     1.35479953    -1.29194387
      8      C     0.47193605     1.16841903     1.90798601
      9      H    -0.32430577     1.91785715     1.92646369
     10      H     0.64277929     0.84431252     2.94372124
     11      H     1.40699489     1.61798915     1.54715819
     12      N     0.79972959    -1.17229531     1.32548933
     13      H     1.08955334    -1.73304621     0.51753030
     14      H     1.22666891    -1.28407552     2.23445883

Total System Charge              0.00000

 *** GO1_GOStep16 ***

 Integrated fractional orbital density (NFOD):         1.000

 Energy gradients wrt nuclear displacements
 ==========================================

     Atom      Cartesian (a.u./angstrom)
                 X         Y         Z
 ----------------------------------------
     1 C     0.003973  0.016131  0.001170
     2 C    -0.029638 -0.015509  0.002110
     3 Cl    0.001335  0.003791  0.000689
     4 H    -0.005484  0.005001  0.002817
     5 N     0.013404 -0.013853 -0.011937
     6 H    -0.002343 -0.003752  0.003891
     7 H    -0.003054  0.000289  0.005558
     8 C     0.009867  0.008176 -0.007036
     9 H    -0.000021 -0.003745  0.000708
    10 H    -0.000314 -0.001759  0.000620
    11 H    -0.000332 -0.003876  0.000838
    12 N     0.025791 -0.000604 -0.008189
    13 H    -0.007236  0.006922  0.007656
    14 H    -0.005946  0.002787  0.001106
 ----------------------------------------

 dE(predicted):    -0.34531E-02, dE(actual):    -0.20563E-02, Trust radius:    1.000000, all in a.u.
 
----------------------------------------------------------------------
Geometry Convergence after Step  16       (Hartree/Angstrom,Angstrom)
----------------------------------------------------------------------
current energy                               -2.63170251 Hartree
energy change                      -0.00205634     0.00014000    F
constrained gradient max            0.02965565     0.00010000    F
constrained gradient rms            0.00880054     0.00006667    F
gradient max                        0.02965565
gradient rms                        0.00880054
cart. step max                      0.18280041     0.01000000    F
cart. step rms                      0.04177768     0.00666667    F
 

--------
Geometry
--------
Formula: C3H8ClN2
Atoms
  Index Symbol   x (angstrom)   y (angstrom)   z (angstrom)
      1      C    -0.55604044     0.12816019    -0.14609726
      2      C     0.15336479    -0.00481391     1.05091181
      3     Cl     1.45893836    -1.33018817    -1.60582372
      4      H    -0.93823997    -0.76063467    -0.63868837
      5      N    -0.87172023     1.31778318    -0.71941576
      6      H    -0.65131715     2.18107694    -0.23747109
      7      H    -1.67597646     1.35820499    -1.33405474
      8      C     0.45598324     1.18049899     1.93806196
      9      H    -0.37633885     1.88999869     1.98785440
     10      H     0.66259348     0.84439289     2.96256354
     11      H     1.35596984     1.69391756     1.57122873
     12      N     0.81565523    -1.16675790     1.29265880
     13      H     1.11922549    -1.68887940     0.45069991
     14      H     1.23779654    -1.31601997     2.19897131

Total System Charge              0.00000

 *** GO1_GOStep17 ***

 Integrated fractional orbital density (NFOD):         1.000

 Energy gradients wrt nuclear displacements
 ==========================================

     Atom      Cartesian (a.u./angstrom)
                 X         Y         Z
 ----------------------------------------
     1 C     0.003682  0.015166  0.004507
     2 C    -0.023751 -0.009105  0.000022
     3 Cl    0.000412  0.003328  0.002667
     4 H    -0.005704 -0.002291  0.002853
     5 N     0.013195 -0.006988 -0.009276
     6 H    -0.002899 -0.001942  0.002141
     7 H    -0.002423 -0.000457  0.004509
     8 C     0.007275  0.008050 -0.005606
     9 H     0.000099 -0.002254  0.001242
    10 H    -0.000884 -0.001007  0.000682
    11 H    -0.000676 -0.002537  0.000025
    12 N     0.022146 -0.007142 -0.009914
    13 H    -0.004399  0.005983  0.005924
    14 H    -0.006071  0.001194  0.000223
 ----------------------------------------

 dE(predicted):    -0.13891E-02, dE(actual):    -0.22421E-02, Trust radius:    1.000000, all in a.u.
 
----------------------------------------------------------------------
Geometry Convergence after Step  17       (Hartree/Angstrom,Angstrom)
----------------------------------------------------------------------
current energy                               -2.63394461 Hartree
energy change                      -0.00224210     0.00014000    F
constrained gradient max            0.02376467     0.00010000    F
constrained gradient rms            0.00733633     0.00006667    F
gradient max                        0.02376467
gradient rms                        0.00733633
cart. step max                      0.20447942     0.01000000    F
cart. step rms                      0.05149142     0.00666667    F
 

--------
Geometry
--------
Formula: C3H8ClN2
Atoms
  Index Symbol   x (angstrom)   y (angstrom)   z (angstrom)
      1      C    -0.53378728     0.15955778    -0.14727693
      2      C     0.20084780     0.03492283     1.04017676
      3     Cl     1.44695763    -1.53466759    -1.63630601
      4      H    -0.81487015    -0.75839827    -0.67725143
      5      N    -0.91290266     1.35160862    -0.68696901
      6      H    -0.65737518     2.23880389    -0.27171351
      7      H    -1.69461266     1.36379467    -1.33034488
      8      C     0.44628053     1.19132594     1.97151319
      9      H    -0.42167245     1.86100506     2.02678040
     10      H     0.66929454     0.84026491     2.98465810
     11      H     1.30954148     1.78397516     1.62757544
     12      N     0.77373460    -1.16181731     1.29424909
     13      H     1.05779461    -1.70860859     0.44486938
     14      H     1.32066307    -1.33502774     2.13143891

Total System Charge              0.00000

 *** GO1_GOStep18 ***

 Integrated fractional orbital density (NFOD):         1.000

 Energy gradients wrt nuclear displacements
 ==========================================

     Atom      Cartesian (a.u./angstrom)
                 X         Y         Z
 ----------------------------------------
     1 C    -0.002612  0.008763  0.000510
     2 C    -0.002781 -0.007847  0.001629
     3 Cl    0.001865  0.002141 -0.002110
     4 H    -0.002310 -0.015859 -0.000769
     5 N     0.009811  0.007253 -0.003568
     6 H    -0.001692  0.001555 -0.001235
     7 H    -0.003313 -0.002229  0.004256
     8 C     0.003298 -0.002917  0.001154
     9 H    -0.000663  0.000712 -0.000573
    10 H    -0.000291  0.000614 -0.000523
    11 H    -0.000232  0.001145 -0.000690
    12 N    -0.008453  0.020829  0.002070
    13 H     0.003938 -0.003069  0.002023
    14 H     0.003437 -0.011091 -0.002173
 ----------------------------------------

 dE(predicted):    -0.36626E-02, dE(actual):    -0.26416E-02, Trust radius:    1.000000, all in a.u.
 
----------------------------------------------------------------------
Geometry Convergence after Step  18       (Hartree/Angstrom,Angstrom)
----------------------------------------------------------------------
current energy                               -2.63658621 Hartree
energy change                      -0.00264160     0.00014000    F
constrained gradient max            0.02082942     0.00010000    F
constrained gradient rms            0.00562916     0.00006667    F
gradient max                        0.02082942
gradient rms                        0.00562916
cart. step max                      0.21207379     0.01000000    F
cart. step rms                      0.05013480     0.00666667    F
 

--------
Geometry
--------
Formula: C3H8ClN2
Atoms
  Index Symbol   x (angstrom)   y (angstrom)   z (angstrom)
      1      C    -0.53983365     0.17516925    -0.12458459
      2      C     0.22069127     0.04521276     1.04478661
      3     Cl     1.36696887    -1.74674138    -1.62993041
      4      H    -0.78939214    -0.74196756    -0.67786561
      5      N    -0.91027057     1.37433995    -0.64604402
      6      H    -0.69273405     2.26384432    -0.21619685
      7      H    -1.58981654     1.38582630    -1.39529432
      8      C     0.41777982     1.20195832     1.98818501
      9      H    -0.48034006     1.82964353     2.05887105
     10      H     0.66593123     0.84798507     2.99391249
     11      H     1.25026239     1.84064474     1.65053189
     12      N     0.81320619    -1.15739482     1.26392706
     13      H     1.07708684    -1.67842769     0.37058501
     14      H     1.38035427    -1.31335340     2.09051620

Total System Charge              0.00000

 *** GO1_GOStep19 ***

 Integrated fractional orbital density (NFOD):         1.000

 Energy gradients wrt nuclear displacements
 ==========================================

     Atom      Cartesian (a.u./angstrom)
                 X         Y         Z
 ----------------------------------------
     1 C    -0.007925  0.010759  0.002769
     2 C     0.000174  0.003235 -0.001198
     3 Cl    0.001454  0.001213 -0.002169
     4 H    -0.002573 -0.019159 -0.000230
     5 N     0.014821  0.009099  0.002802
     6 H    -0.003967  0.001822 -0.002076
     7 H    -0.001071 -0.002808  0.002342
     8 C    -0.002584  0.001033 -0.001134
     9 H    -0.000726  0.001787 -0.000295
    10 H    -0.000255  0.000185 -0.001470
    11 H    -0.000299  0.000953 -0.000188
    12 N    -0.000789 -0.000759  0.008045
    13 H     0.002807 -0.001341 -0.005863
    14 H     0.000934 -0.006020 -0.001334
 ----------------------------------------
 Rebuilding optimization coordinates

 dE(predicted):    -0.11620E-02, dE(actual):    -0.10223E-02, Trust radius:    1.000000, all in a.u.
 
----------------------------------------------------------------------
Geometry Convergence after Step  19       (Hartree/Angstrom,Angstrom)
----------------------------------------------------------------------
current energy                               -2.63760846 Hartree
energy change                      -0.00102226     0.00014000    F
constrained gradient max            0.01919440     0.00010000    F
constrained gradient rms            0.00510217     0.00006667    F
gradient max                        0.01919440
gradient rms                        0.00510217
cart. step max                      0.08567641     0.01000000    F
cart. step rms                      0.02172836     0.00666667    F
 

--------
Geometry
--------
Formula: C3H8ClN2
Atoms
  Index Symbol   x (angstrom)   y (angstrom)   z (angstrom)
      1      C    -0.53657655     0.17036912    -0.13289824
      2      C     0.22727169     0.04120587     1.03147396
      3     Cl     1.36377012    -1.76960233    -1.66055439
      4      H    -0.77425417    -0.71447012    -0.71583291
      5      N    -0.93660969     1.37088956    -0.62823033
      6      H    -0.71719884     2.25214200    -0.18289151
      7      H    -1.57729478     1.40665081    -1.41063990
      8      C     0.42401236     1.19145413     1.98170446
      9      H    -0.47222202     1.82077962     2.05289384
     10      H     0.66600678     0.82914509     2.98650737
     11      H     1.26182486     1.82972436     1.65617748
     12      N     0.80566976    -1.15939972     1.27625166
     13      H     1.07049206    -1.71447203     0.41156561
     14      H     1.38500230    -1.22767699     2.10587241

Total System Charge              0.00000

 *** GO1_GOStep20 ***

 Integrated fractional orbital density (NFOD):         1.000

 Energy gradients wrt nuclear displacements
 ==========================================

     Atom      Cartesian (a.u./angstrom)
                 X         Y         Z
 ----------------------------------------
     1 C    -0.006980 -0.004468  0.002898
     2 C     0.008346 -0.000375  0.003873
     3 Cl    0.002440  0.000257 -0.005967
     4 H    -0.001199 -0.001724  0.002972
     5 N     0.011707  0.001548  0.000722
     6 H    -0.003419  0.000683 -0.000787
     7 H    -0.001599  0.000741  0.000423
     8 C    -0.003154 -0.000206 -0.000529
     9 H    -0.000492  0.001178 -0.000682
    10 H     0.000445  0.000074 -0.001340
    11 H     0.000379  0.000865  0.000381
    12 N    -0.005068 -0.000501  0.001041
    13 H     0.001230 -0.003176 -0.004309
    14 H    -0.002636  0.005104  0.001304
 ----------------------------------------

 dE(predicted):    -0.88667E-03, dE(actual):    -0.86685E-03, Trust radius:    1.000000, all in a.u.
 
----------------------------------------------------------------------
Geometry Convergence after Step  20       (Hartree/Angstrom,Angstrom)
----------------------------------------------------------------------
current energy                               -2.63847531 Hartree
energy change                      -0.00086685     0.00014000    F
constrained gradient max            0.01166280     0.00010000    F
constrained gradient rms            0.00338076     0.00006667    F
gradient max                        0.01166280
gradient rms                        0.00338076
cart. step max                      0.08403346     0.01000000    F
cart. step rms                      0.02519960     0.00666667    F
 

--------
Geometry
--------
Formula: C3H8ClN2
Atoms
  Index Symbol   x (angstrom)   y (angstrom)   z (angstrom)
      1      C    -0.53657451     0.19356909    -0.13295372
      2      C     0.22564183     0.04796272     1.03899466
      3     Cl     1.36731473    -1.83686831    -1.57652093
      4      H    -0.73865167    -0.70204618    -0.71843965
      5      N    -0.95576860     1.38968749    -0.62489212
      6      H    -0.74262710     2.27854259    -0.19041640
      7      H    -1.57326320     1.40871366    -1.42570367
      8      C     0.41806039     1.19610226     1.99174774
      9      H    -0.48276490     1.81824571     2.06865402
     10      H     0.66749672     0.83420352     2.99510762
     11      H     1.24846297     1.84209977     1.66172535
     12      N     0.80648286    -1.16172696     1.25964025
     13      H     1.05183627    -1.70834222     0.37302225
     14      H     1.43424809    -1.27340376     2.05143412

Total System Charge              0.00000

 *** GO1_GOStep21 ***

 Integrated fractional orbital density (NFOD):         1.000

 Energy gradients wrt nuclear displacements
 ==========================================

     Atom      Cartesian (a.u./angstrom)
                 X         Y         Z
 ----------------------------------------
     1 C    -0.011407  0.004086 -0.004376
     2 C     0.004944  0.002646  0.005788
     3 Cl    0.000394  0.002241  0.001629
     4 H     0.001308 -0.006585  0.004561
     5 N     0.008706  0.006741 -0.001616
     6 H    -0.003119  0.001845 -0.001131
     7 H    -0.001000 -0.000633  0.000798
     8 C    -0.005179  0.000976 -0.002566
     9 H    -0.000335  0.001365 -0.000300
    10 H     0.000262 -0.000097 -0.000793
    11 H     0.000469  0.000932  0.000067
    12 N    -0.001819 -0.005637  0.001183
    13 H     0.003193 -0.003493 -0.002212
    14 H     0.003584 -0.004388 -0.001031
 ----------------------------------------

 dE(predicted):    -0.54418E-03, dE(actual):    -0.22977E-03, Trust radius:    1.000000, all in a.u.
 
----------------------------------------------------------------------
Geometry Convergence after Step  21       (Hartree/Angstrom,Angstrom)
----------------------------------------------------------------------
current energy                               -2.63870508 Hartree
energy change                      -0.00022977     0.00014000    F
constrained gradient max            0.01142828     0.00010000    F
constrained gradient rms            0.00371617     0.00006667    F
gradient max                        0.01142828
gradient rms                        0.00371617
cart. step max                      0.02829415     0.01000000    F
cart. step rms                      0.00992827     0.00666667    F
 

--------
Geometry
--------
Formula: C3H8ClN2
Atoms
  Index Symbol   x (angstrom)   y (angstrom)   z (angstrom)
      1      C    -0.53057219     0.19090190    -0.13981134
      2      C     0.23078054     0.05080535     1.03122316
      3     Cl     1.35563565    -1.86233187    -1.59756693
      4      H    -0.72381806    -0.69608601    -0.74062940
      5      N    -0.96819275     1.38643054    -0.61539819
      6      H    -0.74298753     2.27164520    -0.17982875
      7      H    -1.57415506     1.41377220    -1.42440415
      8      C     0.42053975     1.19293463     1.99141855
      9      H    -0.48104048     1.81312743     2.07002625
     10      H     0.66686417     0.82608782     2.99417339
     11      H     1.25124178     1.84074085     1.66687321
     12      N     0.80571356    -1.15624077     1.26658073
     13      H     1.05546202    -1.69993828     0.38122510
     14      H     1.42442247    -1.24510961     2.06751787

Total System Charge              0.00000

 *** GO1_GOStep22 ***

 Integrated fractional orbital density (NFOD):         1.000

 Energy gradients wrt nuclear displacements
 ==========================================

     Atom      Cartesian (a.u./angstrom)
                 X         Y         Z
 ----------------------------------------
     1 C    -0.009779  0.001009 -0.002547
     2 C     0.007676  0.001357  0.003110
     3 Cl    0.001058  0.000866 -0.001487
     4 H     0.000664 -0.004435  0.002677
     5 N     0.007392  0.004223 -0.001445
     6 H    -0.002325  0.001096 -0.000460
     7 H    -0.001013 -0.000222  0.000838
     8 C    -0.003439 -0.000405 -0.001630
     9 H    -0.000150  0.000615 -0.000450
    10 H     0.000320  0.000155 -0.000194
    11 H     0.000443  0.000589  0.000017
    12 N    -0.003813 -0.004043  0.005168
    13 H     0.001581 -0.000274 -0.004013
    14 H     0.001386 -0.000530  0.000416
 ----------------------------------------

 dE(predicted):    -0.35106E-03, dE(actual):    -0.48031E-03, Trust radius:    1.000000, all in a.u.
 
----------------------------------------------------------------------
Geometry Convergence after Step  22       (Hartree/Angstrom,Angstrom)
----------------------------------------------------------------------
current energy                               -2.63918539 Hartree
energy change                      -0.00048031     0.00014000    F
constrained gradient max            0.00979596     0.00010000    F
constrained gradient rms            0.00301846     0.00006667    F
gradient max                        0.00979596
gradient rms                        0.00301846
cart. step max                      0.06581429     0.01000000    F
cart. step rms                      0.01922388     0.00666667    F
 

--------
Geometry
--------
Formula: C3H8ClN2
Atoms
  Index Symbol   x (angstrom)   y (angstrom)   z (angstrom)
      1      C    -0.52379652     0.19390046    -0.14754672
      2      C     0.23062912     0.05719645     1.02048036
      3     Cl     1.34746039    -1.92814616    -1.58984924
      4      H    -0.68750398    -0.67533192    -0.77749912
      5      N    -0.99719132     1.38573241    -0.58942039
      6      H    -0.76731855     2.26317206    -0.14093974
      7      H    -1.54847189     1.43121570    -1.43512635
      8      C     0.41929410     1.19343535     1.98966489
      9      H    -0.48389974     1.80836319     2.07997644
     10      H     0.66858339     0.81808931     2.98913926
     11      H     1.24734420     1.84436253     1.66747405
     12      N     0.80774338    -1.14414054     1.25934062
     13      H     1.04228913    -1.71660774     0.39071659
     14      H     1.43473219    -1.20450172     2.05498886

Total System Charge              0.00000

 *** GO1_GOStep23 ***

 Integrated fractional orbital density (NFOD):         1.000

 Energy gradients wrt nuclear displacements
 ==========================================

     Atom      Cartesian (a.u./angstrom)
                 X         Y         Z
 ----------------------------------------
     1 C    -0.005027 -0.002843  0.001623
     2 C     0.005532  0.002091 -0.000819
     3 Cl    0.001189  0.000690 -0.001903
     4 H     0.000543  0.000611  0.002361
     5 N     0.006572 -0.001988  0.000378
     6 H    -0.001290 -0.000179  0.000574
     7 H    -0.000231  0.000165  0.001032
     8 C    -0.002749  0.000806 -0.001571
     9 H     0.000382 -0.000068 -0.000107
    10 H     0.000290  0.000115  0.000483
    11 H     0.000421 -0.000237  0.000075
    12 N    -0.005822 -0.000927 -0.000151
    13 H     0.000810 -0.001590 -0.001383
    14 H    -0.000619  0.003353 -0.000593
 ----------------------------------------

 dE(predicted):    -0.37082E-03, dE(actual):    -0.45868E-03, Trust radius:    1.000000, all in a.u.
 
----------------------------------------------------------------------
Geometry Convergence after Step  23       (Hartree/Angstrom,Angstrom)
----------------------------------------------------------------------
current energy                               -2.63964407 Hartree
energy change                      -0.00045868     0.00014000    F
constrained gradient max            0.00655606     0.00010000    F
constrained gradient rms            0.00216620     0.00006667    F
gradient max                        0.00655606
gradient rms                        0.00216620
cart. step max                      0.12163532     0.01000000    F
cart. step rms                      0.02813278     0.00666667    F
 

--------
Geometry
--------
Formula: C3H8ClN2
Atoms
  Index Symbol   x (angstrom)   y (angstrom)   z (angstrom)
      1      C    -0.51021750     0.20707844    -0.16040444
      2      C     0.24135872     0.06692720     1.01313216
      3     Cl     1.29933697    -2.04978148    -1.55960625
      4      H    -0.63441924    -0.65515611    -0.81392545
      5      N    -1.03252941     1.39333163    -0.56371408
      6      H    -0.77762057     2.26578432    -0.11842146
      7      H    -1.52291634     1.45503196    -1.44493761
      8      C     0.40958320     1.19488838     1.99678904
      9      H    -0.50734756     1.78623908     2.10126542
     10      H     0.66971028     0.81248973     2.99122474
     11      H     1.21997623     1.86786105     1.67760493
     12      N     0.83197592    -1.12884671     1.24558233
     13      H     1.04789954    -1.69820363     0.36246613
     14      H     1.45510364    -1.19090448     2.04434404

Total System Charge              0.00000

 *** GO1_GOStep24 ***

 Integrated fractional orbital density (NFOD):         1.000

 Energy gradients wrt nuclear displacements
 ==========================================

     Atom      Cartesian (a.u./angstrom)
                 X         Y         Z
 ----------------------------------------
     1 C    -0.005871 -0.000107 -0.001940
     2 C     0.005839  0.002916 -0.000920
     3 Cl    0.000653  0.000145 -0.000954
     4 H     0.001166 -0.001276  0.000579
     5 N     0.002417 -0.001136  0.000157
     6 H     0.000077 -0.001389  0.000944
     7 H     0.000498  0.000206  0.001636
     8 C    -0.001238  0.001274 -0.002166
     9 H     0.000694 -0.000670  0.000277
    10 H    -0.000206  0.000032  0.001270
    11 H     0.000107 -0.000778 -0.000184
    12 N    -0.002035 -0.005956  0.004562
    13 H    -0.001012  0.002956 -0.003766
    14 H    -0.001090  0.003783  0.000508
 ----------------------------------------

 dE(predicted):    -0.32266E-03, dE(actual):    -0.32701E-03, Trust radius:    1.000000, all in a.u.
 
----------------------------------------------------------------------
Geometry Convergence after Step  24       (Hartree/Angstrom,Angstrom)
----------------------------------------------------------------------
current energy                               -2.63997108 Hartree
energy change                      -0.00032701     0.00014000    F
constrained gradient max            0.00597503     0.00010000    F
constrained gradient rms            0.00223914     0.00006667    F
gradient max                        0.00597503
gradient rms                        0.00223914
cart. step max                      0.04658803     0.01000000    F
cart. step rms                      0.01382091     0.00666667    F
 

--------
Geometry
--------
Formula: C3H8ClN2
Atoms
  Index Symbol   x (angstrom)   y (angstrom)   z (angstrom)
      1      C    -0.50070750     0.21669491    -0.16661997
      2      C     0.24345096     0.07127929     1.01181515
      3     Cl     1.27454052    -2.09636950    -1.54000882
      4      H    -0.61837501    -0.63688166    -0.83136892
      5      N    -1.04863613     1.39768513    -0.55831147
      6      H    -0.78123523     2.27113186    -0.12093416
      7      H    -1.50892972     1.46120436    -1.45649533
      8      C     0.40435390     1.19460478     2.00387879
      9      H    -0.52146257     1.76928829     2.12385018
     10      H     0.67968537     0.80663321     2.99163032
     11      H     1.19933003     1.88398584     1.68213990
     12      N     0.84996344    -1.11568727     1.23529119
     13      H     1.04584466    -1.70628819     0.36280862
     14      H     1.47207115    -1.19054167     2.03372401

Total System Charge              0.00000

 *** GO1_GOStep25 ***

 Integrated fractional orbital density (NFOD):         1.000

 Energy gradients wrt nuclear displacements
 ==========================================

     Atom      Cartesian (a.u./angstrom)
                 X         Y         Z
 ----------------------------------------
     1 C    -0.002156 -0.000700 -0.001674
     2 C     0.002818  0.000858  0.000594
     3 Cl    0.000180  0.000831  0.000739
     4 H     0.000071  0.000869 -0.000111
     5 N    -0.000451 -0.001050 -0.001501
     6 H     0.000845 -0.001635  0.001216
     7 H     0.000203  0.000328  0.000708
     8 C     0.000282  0.001608 -0.001705
     9 H     0.000597 -0.000610  0.000634
    10 H    -0.000548 -0.000046  0.001067
    11 H    -0.000120 -0.000778 -0.000156
    12 N    -0.001107 -0.002850  0.001568
    13 H    -0.000704  0.001484 -0.001243
    14 H     0.000090  0.001690 -0.000136
 ----------------------------------------

 dE(predicted):    -0.18702E-03, dE(actual):    -0.23045E-03, Trust radius:    1.000000, all in a.u.
 
----------------------------------------------------------------------
Geometry Convergence after Step  25       (Hartree/Angstrom,Angstrom)
----------------------------------------------------------------------
current energy                               -2.64020153 Hartree
energy change                      -0.00023045     0.00014000    F
constrained gradient max            0.00286392     0.00010000    F
constrained gradient rms            0.00115255     0.00006667    F
gradient max                        0.00286392
gradient rms                        0.00115255
cart. step max                      0.07989789     0.01000000    F
cart. step rms                      0.02240928     0.00666667    F
 

--------
Geometry
--------
Formula: C3H8ClN2
Atoms
  Index Symbol   x (angstrom)   y (angstrom)   z (angstrom)
      1      C    -0.48753187     0.23003328    -0.16721136
      2      C     0.25713469     0.07862565     1.00936710
      3     Cl     1.22628872    -2.17626739    -1.53068429
      4      H    -0.58716891    -0.62699896    -0.83818383
      5      N    -1.05743295     1.40770944    -0.54173720
      6      H    -0.77969040     2.28474540    -0.11698933
      7      H    -1.47633623     1.47036267    -1.46076188
      8      C     0.39017410     1.19867186     2.01035290
      9      H    -0.55571702     1.73757715     2.14399433
     10      H     0.69132342     0.81117200     2.98975384
     11      H     1.15372155     1.92249070     1.68761309
     12      N     0.87724485    -1.10131544     1.21660932
     13      H     1.04601823    -1.71377467     0.35097780
     14      H     1.49186571    -1.19629231     2.01829901

Total System Charge              0.00000

 *** GO1_GOStep26 ***

 Integrated fractional orbital density (NFOD):         1.000

 Energy gradients wrt nuclear displacements
 ==========================================

     Atom      Cartesian (a.u./angstrom)
                 X         Y         Z
 ----------------------------------------
     1 C    -0.002379  0.004404 -0.000097
     2 C     0.003371 -0.002192  0.001299
     3 Cl    0.000284  0.000627  0.000658
     4 H     0.000711 -0.003995 -0.001063
     5 N    -0.000439  0.001218  0.002236
     6 H     0.000294 -0.001078  0.000175
     7 H     0.001391 -0.000669  0.000318
     8 C    -0.000879  0.002729 -0.002274
     9 H     0.000183  0.000212  0.000534
    10 H    -0.000781 -0.000309  0.000091
    11 H    -0.000363 -0.000302  0.000069
    12 N    -0.001531 -0.000282 -0.000574
    13 H    -0.000336 -0.000618 -0.000592
    14 H     0.000473  0.000253 -0.000779
 ----------------------------------------

 dE(predicted):    -0.11695E-03, dE(actual):    -0.42758E-04, Trust radius:    1.000000, all in a.u.
 
----------------------------------------------------------------------
Geometry Convergence after Step  26       (Hartree/Angstrom,Angstrom)
----------------------------------------------------------------------
current energy                               -2.64024429 Hartree
energy change                      -0.00004276     0.00014000    T
constrained gradient max            0.00441137     0.00010000    F
constrained gradient rms            0.00147234     0.00006667    F
gradient max                        0.00441137
gradient rms                        0.00147234
cart. step max                      0.03294585     0.01000000    F
cart. step rms                      0.01100816     0.00666667    F
 

--------
Geometry
--------
Formula: C3H8ClN2
Atoms
  Index Symbol   x (angstrom)   y (angstrom)   z (angstrom)
      1      C    -0.47992411     0.23210053    -0.16738872
      2      C     0.25991632     0.07885443     1.01172011
      3     Cl     1.21601594    -2.15903188    -1.54290078
      4      H    -0.60654405    -0.61993649    -0.83667411
      5      N    -1.04900174     1.40786156    -0.55676393
      6      H    -0.77149727     2.29422297    -0.14993517
      7      H    -1.49182011     1.45366853    -1.46648593
      8      C     0.39293457     1.19405430     2.01834431
      9      H    -0.55682791     1.72491012     2.15959406
     10      H     0.70693458     0.80384846     2.99210980
     11      H     1.14760834     1.92681640     1.69363657
     12      N     0.88898339    -1.09521020     1.21858065
     13      H     1.05611646    -1.71032598     0.35965682
     14      H     1.47699949    -1.20509337     2.03790585

Total System Charge              0.00000

 *** GO1_GOStep27 ***

 Integrated fractional orbital density (NFOD):         1.000

 Energy gradients wrt nuclear displacements
 ==========================================

     Atom      Cartesian (a.u./angstrom)
                 X         Y         Z
 ----------------------------------------
     1 C     0.003098  0.000775  0.003204
     2 C     0.001315 -0.003859  0.001387
     3 Cl    0.000381  0.000602  0.000457
     4 H    -0.002132 -0.000230 -0.002331
     5 N    -0.002148  0.000165 -0.000860
     6 H     0.000192  0.000214  0.000216
     7 H    -0.000024 -0.000266 -0.001061
     8 C     0.000921  0.000792 -0.000448
     9 H    -0.000263  0.000228  0.000126
    10 H    -0.000416 -0.000100 -0.000361
    11 H    -0.000150  0.000171  0.000152
    12 N    -0.000658  0.002093 -0.000797
    13 H    -0.000650 -0.000214  0.000376
    14 H     0.000533 -0.000371 -0.000060
 ----------------------------------------

 dE(predicted):    -0.97830E-04, dE(actual):    -0.71462E-04, Trust radius:    1.000000, all in a.u.
 
----------------------------------------------------------------------
Geometry Convergence after Step  27       (Hartree/Angstrom,Angstrom)
----------------------------------------------------------------------
current energy                               -2.64031575 Hartree
energy change                      -0.00007146     0.00014000    T
constrained gradient max            0.00386361     0.00010000    F
constrained gradient rms            0.00124505     0.00006667    F
gradient max                        0.00386361
gradient rms                        0.00124505
cart. step max                      0.01070220     0.01000000    F
cart. step rms                      0.00379886     0.00666667    T
 

--------
Geometry
--------
Formula: C3H8ClN2
Atoms
  Index Symbol   x (angstrom)   y (angstrom)   z (angstrom)
      1      C    -0.47760358     0.23171794    -0.16981817
      2      C     0.26188977     0.07999531     1.00978892
      3     Cl     1.20886340    -2.16973408    -1.54393052
      4      H    -0.59951076    -0.62173716    -0.83769560
      5      N    -1.04704975     1.40874062    -0.55291812
      6      H    -0.76474423     2.29351147    -0.14636759
      7      H    -1.49200055     1.45898321    -1.46099207
      8      C     0.38974685     1.19457370     2.01741068
      9      H    -0.56303688     1.71919599     2.16027189
     10      H     0.70903983     0.80667896     2.99056020
     11      H     1.13902290     1.93232200     1.69121472
     12      N     0.89114764    -1.09498346     1.21761410
     13      H     1.05781547    -1.70914054     0.35717832
     14      H     1.47631377    -1.20338459     2.03908275

Total System Charge              0.00000

 *** GO1_GOStep28 ***

 Integrated fractional orbital density (NFOD):         1.000

 Energy gradients wrt nuclear displacements
 ==========================================

     Atom      Cartesian (a.u./angstrom)
                 X         Y         Z
 ----------------------------------------
     1 C     0.001731  0.000298  0.000899
     2 C     0.001005 -0.001557  0.000936
     3 Cl    0.000433  0.000345  0.000114
     4 H    -0.001331 -0.000448 -0.001273
     5 N    -0.001505  0.000138  0.000541
     6 H     0.000101  0.000045 -0.000136
[...]
                                    5.19%     1 S              -6.532  1.00     8 H
                                    4.46%     1 P:z            -7.062  1.00    14 N
                                    4.41%     2 S             -13.620  2.00     1 C
                                   -3.44%     2 S               2.394  0.00     8 H
                                    3.39%     2 S               2.394  0.00     6 H
                                   -3.31%     2 S               2.394  0.00     5 H
                                    3.05%     1 P:y            11.051  0.00     7 H
                                    2.44%     2 S               2.394  0.00     7 H
                                    2.34%     1 P:z            11.051  0.00     6 H
                                   -2.25%     3 S              10.158  0.00     1 C
                                   -2.17%     3 P:z             6.147  0.00     4 Cl
                                   -2.07%     3 S              10.158  0.00     2 C
                                    2.06%     2 P:z             4.589  0.00     3 C
                                    2.00%     2 P:x             4.589  0.00     3 C
                                    1.84%     1 P:x            -5.239  0.67     2 C
                                    1.73%     2 P:x             4.589  0.00     1 C
                                    1.68%     2 P:y             4.589  0.00     2 C
                                   -1.65%     4 S               5.292  0.00     4 Cl
                                    1.59%     1 P:y            -7.062  1.00    13 N
                                   -1.41%     3 S              40.869  0.00    10 H
                                    1.39%     3 S              40.869  0.00    12 H
                                   -1.35%     2 P:z             4.589  0.00     2 C
                                    1.30%     1 S              -6.532  1.00     9 H
                                    1.15%     2 P:z             7.649  0.00    13 N
                                   -1.12%     2 S             -13.620  2.00     2 C
                                    1.06%     1 P:z            -5.239  0.67     1 C
                                   -1.02%     1 P:z            -5.239  0.67     2 C
                                    1.01%     1 P:z            11.051  0.00     8 H
       3.532  0.00    40 A         25.42%     1 S              -6.532  1.00    11 H
                                   16.23%     2 P:x             4.589  0.00     3 C
                                   15.18%     1 P:x            -5.239  0.67     3 C
                                  -12.07%     2 P:x             4.589  0.00     2 C
                                   11.18%     1 S              -6.532  1.00     8 H
                                   10.21%     1 P:z            -5.239  0.67     3 C
                                    7.19%     2 S               2.394  0.00    11 H
                                   -5.87%     2 S               2.394  0.00     8 H
                                    5.85%     1 S              -6.532  1.00    12 H
                                   -5.68%     2 S               2.394  0.00    10 H
                                    5.60%     1 S              -6.532  1.00     9 H
                                   -5.19%     2 S               2.394  0.00    12 H
                                    4.67%     2 S             -13.620  2.00     2 C
                                    4.62%     2 P:z             4.589  0.00     3 C
                                   -4.28%     3 S              10.158  0.00     2 C
                                   -3.76%     2 P:z             7.649  0.00    14 N
                                    3.46%     1 S              -6.532  1.00    10 H
                                    3.26%     1 P:y            -7.062  1.00    14 N
                                    3.24%     2 P:x             4.589  0.00     1 C
                                    3.20%     2 P:y             4.589  0.00     2 C
                                    2.51%     1 S              -6.532  1.00     7 H
                                   -2.36%     2 S               2.394  0.00     9 H
                                   -2.22%     4 S               5.292  0.00     4 Cl
                                    2.16%     2 P:z             4.589  0.00     2 C
                                    1.81%     2 P:z             4.589  0.00     1 C
                                    1.80%     1 P:z            11.051  0.00     8 H
                                   -1.71%     1 P:x            -5.239  0.67     2 C
                                   -1.70%     3 P:z             6.147  0.00     4 Cl
                                    1.68%     1 P:x            11.051  0.00     9 H
                                    1.66%     1 P:y            11.051  0.00    12 H
                                    1.65%     2 S             -13.620  2.00     1 C
                                    1.60%     1 S              -6.532  1.00     5 H
                                   -1.57%     3 S              40.869  0.00    10 H
                                    1.48%     1 P:z            -7.062  1.00    14 N
                                   -1.33%     3 S              40.869  0.00     8 H
                                    1.25%     2 S               2.394  0.00     7 H
                                    1.25%     2 P:z            -8.439  1.67     4 Cl
                                    1.09%     2 P:y             7.649  0.00    14 N
       3.833  0.00    41 A         26.06%     2 P:x             4.589  0.00     3 C
                                   14.36%     1 S              -6.532  1.00     7 H
                                   13.43%     1 P:x            -5.239  0.67     3 C
                                   13.09%     2 S               2.394  0.00     6 H
                                    8.44%     2 S               2.394  0.00     5 H
                                    6.72%     2 P:z             4.589  0.00     2 C
                                   -5.61%     2 S               2.394  0.00     7 H
                                    5.22%     1 S              -6.532  1.00    10 H
                                   -5.05%     2 P:x             4.589  0.00     2 C
                                    4.28%     1 S              -6.532  1.00    11 H
                                    4.18%     1 S              -6.532  1.00     5 H
                                    3.39%     2 P:y             4.589  0.00     3 C
                                   -3.16%     2 S               2.394  0.00    10 H
                                   -2.99%     2 P:y             4.589  0.00     1 C
                                    2.96%     1 P:z            -7.062  1.00    13 N
                                   -2.87%     3 S              40.869  0.00     8 H
                                    2.42%     1 P:z            11.051  0.00     6 H
                                    2.41%     1 P:y            -7.062  1.00    13 N
                                    2.36%     2 P:z             4.589  0.00     3 C
                                    1.70%     1 P:x            11.051  0.00     9 H
                                    1.69%     2 P:y             7.649  0.00    14 N
                                    1.63%     2 S             -18.450  2.00    13 N
                                   -1.63%     2 P:z             4.589  0.00     1 C
                                    1.55%     1 P:x            -7.062  1.00    13 N
                                    1.49%     1 P:y            -5.239  0.67     1 C
                                   -1.45%     1 S              -6.532  1.00     8 H
                                   -1.36%     3 S              10.158  0.00     3 C
                                    1.33%     1 P:x            11.051  0.00     6 H
                                   -1.28%     3 S              14.073  0.00    14 N
                                   -1.25%     3 S              40.869  0.00     9 H
                                    1.15%     1 P:x            -5.239  0.67     2 C
                                   -1.07%     3 S              10.158  0.00     1 C
                                    1.05%     1 S              -6.532  1.00     9 H
                                   -1.01%     1 P:y            -5.239  0.67     3 C

 Energy gradients wrt nuclear displacements
 ==========================================

     Atom      Cartesian (a.u./angstrom)
                 X         Y         Z
 ----------------------------------------
     1 C    -0.000028 -0.000002  0.000013
     2 C     0.000006  0.000062 -0.000047
     3 Cl    0.000025  0.000008  0.000034
     4 H    -0.000016 -0.000074  0.000008
     5 N    -0.000029 -0.000085  0.000044
     6 H    -0.000083 -0.000015 -0.000031
     7 H    -0.000085 -0.000072  0.000014
     8 C    -0.000074  0.000027 -0.000016
     9 H     0.000027 -0.000016  0.000002
    10 H     0.000055  0.000052  0.000003
    11 H    -0.000002  0.000032 -0.000048
    12 N     0.000092  0.000060  0.000065
    13 H     0.000046 -0.000040 -0.000033
    14 H     0.000067  0.000062 -0.000007
 ----------------------------------------



 =======================================================================
 Electrostatic potential at the Nuclei due to electrons and other nuclei
 =======================================================================
  
         Atom                  Potential
         ----                  ---------
     1)   C                  14.72121480
     2)   C                  14.70578022
     3)   Cl                 64.98856328
     4)   H                   1.07082382
     5)   N                  18.33938187
     6)   H                   0.97221802
     7)   H                   0.97504918
     8)   C                  14.74456337
     9)   H                   1.06842460
    10)   H                   1.06870634
    11)   H                   1.06542751
    12)   N                  18.37561369
    13)   H                   1.01491444
    14)   H                   0.99830465
 Mulliken charges used for AMS results%charges...


    =====================
     CALCULATION RESULTS
    =====================

Energy (hartree)            -2.64039768

Gradients (hartree/bohr)
  Index   Atom            d/dx            d/dy            d/dz
      1      C   -0.0000147962   -0.0000009125    0.0000066548
      2      C    0.0000032462    0.0000329620   -0.0000247588
      3     Cl    0.0000133162    0.0000041837    0.0000177565
      4      H   -0.0000086491   -0.0000392197    0.0000041445
      5      N   -0.0000154036   -0.0000448467    0.0000232764
      6      H   -0.0000439371   -0.0000080500   -0.0000166555
      7      H   -0.0000449138   -0.0000381506    0.0000076562
      8      C   -0.0000390295    0.0000145349   -0.0000084070
      9      H    0.0000140384   -0.0000083477    0.0000010286
     10      H    0.0000289327    0.0000275137    0.0000015751
     11      H   -0.0000011491    0.0000169105   -0.0000253544
     12      N    0.0000486449    0.0000316195    0.0000342097
     13      H    0.0000244855   -0.0000211135   -0.0000176546
     14      H    0.0000352145    0.0000329163   -0.0000034716


--------------
Atomic charges
--------------
  Index   Atom    Charge
      1      C    0.4233
      2      C    0.1867
      3     Cl   -0.6079
      4      H   -0.1310
      5      N    0.1419
      6      H   -0.0705
      7      H   -0.0556
      8      C    0.6031
      9      H   -0.1784
     10      H   -0.2114
     11      H   -0.1612
     12      N    0.1544
     13      H   -0.0028
     14      H   -0.0908


Dipole moment vector    (Debye):    -2.78509031    7.75900172    5.28386561
              magnitude (Debye):     9.79173486


-----------------------
Molecular orbitals info
-----------------------
n orbitals:              252
n spin:                    1

Note: only printing virtual orbitals with
      energy smaller than HOMO + 100. eV

Note: fractional orbital occupations. HOMO and LUMO labels are not well defined!

HOMO (eV):              -4.7981
LUMO (eV):              -4.5045
HOMO-LUMO gap (eV):      0.2936

   Index   Energy (eV)    Occupation
     171       94.9865         0.000       
     170       94.3083         0.000       
     169       93.0357         0.000       
     168       92.9802         0.000       
     167       92.3152         0.000       
     166       91.8544         0.000       
     165       90.2054         0.000       
     164       89.1412         0.000       
     163       88.4295         0.000       
     162       87.3933         0.000       
     161       86.4805         0.000       
     160       85.7830         0.000       
     159       82.7877         0.000       
     158       81.7646         0.000       
     157       80.8535         0.000       
     156       80.7994         0.000       
     155       79.8983         0.000       
     154       79.4536         0.000       
     153       77.9505         0.000       
     152       77.3131         0.000       
     151       76.9622         0.000       
     150       76.3758         0.000       
     149       75.9684         0.000       
     148       75.3790         0.000       
     147       74.7912         0.000       
     146       74.1852         0.000       
     145       73.0594         0.000       
     144       72.5049         0.000       
     143       71.6692         0.000       
     142       71.0242         0.000       
     141       68.6218         0.000       
     140       68.1046         0.000       
     139       66.8677         0.000       
     138       66.5465         0.000       
     137       65.0743         0.000       
     136       63.9353         0.000       
     135       63.4294         0.000       
     134       62.9207         0.000       
     133       62.1283         0.000       
     132       60.7559         0.000       
     131       60.1367         0.000       
     130       59.8690         0.000       
     129       57.8078         0.000       
     128       57.2674         0.000       
     127       55.4535         0.000       
     126       54.7535         0.000       
     125       53.5788         0.000       
     124       53.2434         0.000       
     123       52.4252         0.000       
     122       51.2395         0.000       
     121       50.3834         0.000       
     120       49.7336         0.000       
     119       48.4237         0.000       
     118       47.6167         0.000       
     117       47.0161         0.000       
     116       45.0064         0.000       
     115       44.2211         0.000       
     114       43.7283         0.000       
     113       42.6490         0.000       
     112       42.2352         0.000       
     111       41.1642         0.000       
     110       40.7156         0.000       
     109       39.6114         0.000       
     108       39.0160         0.000       
     107       38.6884         0.000       
     106       37.8505         0.000       
     105       37.3807         0.000       
     104       37.0183         0.000       
     103       36.6419         0.000       
     102       36.1063         0.000       
     101       35.8099         0.000       
     100       35.4851         0.000       
      99       34.7382         0.000       
      98       33.7144         0.000       
      97       33.5453         0.000       
      96       33.3108         0.000       
      95       32.1826         0.000       
      94       31.7956         0.000       
      93       31.3690         0.000       
      92       30.4992         0.000       
      91       29.7140         0.000       
      90       29.3029         0.000       
      89       28.3774         0.000       
      88       28.1898         0.000       
      87       27.7615         0.000       
      86       27.6349         0.000       
      85       27.0058         0.000       
      84       25.7072         0.000       
      83       24.2044         0.000       
      82       23.4082         0.000       
      81       22.9856         0.000       
      80       22.0875         0.000       
      79       21.3795         0.000       
      78       20.6688         0.000       
      77       20.0253         0.000       
      76       19.5769         0.000       
      75       18.4104         0.000       
      74       17.6227         0.000       
      73       16.0027         0.000       
      72       15.5761         0.000       
      71       15.2348         0.000       
      70       15.1698         0.000       
      69       14.5507         0.000       
      68       14.0091         0.000       
      67       13.6199         0.000       
      66       12.8739         0.000       
      65       12.6842         0.000       
      64       12.5171         0.000       
      63       11.9477         0.000       
      62       11.2796         0.000       
      61       10.9782         0.000       
      60       10.6721         0.000       
      59       10.4217         0.000       
      58        9.8678         0.000       
      57        9.5519         0.000       
      56        9.2937         0.000       
      55        9.0558         0.000       
      54        8.5751         0.000       
      53        8.4412         0.000       
      52        7.8856         0.000       
      51        7.6243         0.000       
      50        7.1443         0.000       
      49        6.9158         0.000       
      48        6.6508         0.000       
      47        6.0533         0.000       
      46        5.8260         0.000       
      45        5.1979         0.000       
      44        4.8623         0.000       
      43        4.6717         0.000       
      42        4.1493         0.000       
      41        3.8332         0.000       
      40        3.5315         0.000       
      39        2.9258         0.000       
      38        2.0791         0.000       
      37        2.0024         0.000       
      36        0.9954         0.000       
      35        0.8169         0.000       
      34        0.5457         0.000       
      33       -0.0108         0.000       
      32       -0.6173         0.000       
      31       -0.8109         0.000       
      30       -1.3201         0.000       
      29       -4.5045         1.000 < LUMO
      28       -4.7981         2.000 < HOMO
      27       -4.9887         2.000       
      26       -5.0902         2.000       
      25       -8.3624         2.000       
      24       -9.5619         2.000       
      23       -9.9938         2.000       
      22      -10.5689         2.000       
      21      -11.5170         2.000       
      20      -11.8527         2.000       
      19      -12.3122         2.000       
      18      -13.6194         2.000       
      17      -14.5328         2.000       
      16      -15.2501         2.000       
      15      -16.7736         2.000       
      14      -17.9638         2.000       
      13      -19.4133         2.000       
      12      -23.4700         2.000       
      11      -24.2639         2.000       
      10     -186.8911         2.000       
       9     -186.9223         2.000       
       8     -186.9567         2.000       
       7     -247.8711         2.000       
       6     -271.1097         2.000       
       5     -271.8558         2.000       
       4     -272.2314         2.000       
       3     -382.6374         2.000       
       2     -383.5107         2.000       
       1    -2747.1285         2.000       

AMS application finished. Exiting.
NORMAL TERMINATION
     Total cpu time:    1721.89
  Total system time:       8.79
 Total elapsed time:    1736.74
NORMAL TERMINATION with warnings
