
 *******************************************************************************
 *                                                                             *
 *  --------------------------------                                           *
 *   Amsterdam Modeling Suite (AMS)              2026.103                      *
 *  --------------------------------                                           *
 *                                               r260501 2026-05-01 873454b5   *
 *                                                                             *
 *                                                                             *
 *                              =================                              *
 *                              |               |                              *
 *                              |     A M S     |                              *
 *                              |               |                              *
 *                              =================                              *
 *                                                                             *
 *                                                                             *
 *   Online information and documentation:  https://www.scm.com/support/       *
 *   E-mail:  support@scm.com   info@scm.com                                   *
 *                                                                             *
 *   Scientific publications using AMS results must be properly referenced     *
 *   See the User Manuals (or the web site) for recommended citations          *
 *   The terms and conditions of the End User License Agreement apply to       *
 *   the use of AMS, https://www.scm.com/license-terms/                        *
 *                                                                             *
 **********************  x86_64_linux_intel / intelmpi  ************************
 
 Licensed to: Jong-June Jeon / University of Seoul 2026-06-02 13:44:15
 SCM User ID: u30731
  
 AMS 2026.103  RunTime: Jun04-2026 10:27:43  ShM Nodes: 1  Procs: 1

 AMS jobname: c3_eda
 AMS jobid  : 716588675

 Start   directory: /gpfs/home1/yeseo1ee/projects/eda-asm-prediction/ADF_800/adf_outputs/batch_004/qmrxn20_e2_B_E_E_E_B_B/
 Results directory: /gpfs/home1/yeseo1ee/projects/eda-asm-prediction/ADF_800/adf_outputs/batch_004/qmrxn20_e2_B_E_E_E_B_B/c3_eda.results/
 Scratch directory: /tmp/amstmp_c3_eda_kid0.716588675/

 RNG seed: -2107796179 -1070568357 458049753 1734273767 1157153323 571336478 -1633108462 -1459707981



                      ************************************************************************
                      *  ADF 2026.103  RunTime: Jun04-2026 10:27:43  ShM Nodes: 1  Procs: 1  *
                      ************************************************************************
  

       ****************************
       * SINGLE POINT CALCULATION *
       ****************************

--------
Geometry
--------
Formula: C2H7ClFN4O2
Atoms
  Index Symbol   x (angstrom)   y (angstrom)   z (angstrom)
      1      F    -2.33054254     0.24017329     2.67346418 adf.f=fA
      2      C    -0.38708653     0.10119001    -0.25821095 adf.f=fB
      3      C    -0.35048255     0.15063755     1.19264669 adf.f=fB
      4     Cl     1.59165063    -0.46846477    -0.98318439 adf.f=fB
      5      H    -1.50082567     0.13235386     1.65689284 adf.f=fB
      6      N    -1.07609966    -1.08137361    -0.89746417 adf.f=fB
      7      O    -1.47457475    -0.92667604    -2.04949781 adf.f=fB
      8      O    -1.20370547    -2.10848356    -0.24181669 adf.f=fB
      9      N     0.09298616     1.48555085     1.60320526 adf.f=fB
     10      H     1.04059374     1.37628267     1.95175973 adf.f=fB
     11      H    -0.50418314     1.70913531     2.39430098 adf.f=fB
     12      N     0.34326287    -0.91352151     1.88624173 adf.f=fB
     13      H     0.72588012    -1.58545195     1.23571851 adf.f=fB
     14      H    -0.33799641    -1.37318661     2.47817540 adf.f=fB
     15      N    -0.73278056     1.24910691    -0.88848186 adf.f=fB
     16      H    -0.63908311     1.23317567    -1.89083039 adf.f=fB
     17      H    -0.33732313     2.03341193    -0.38009907 adf.f=fB

Total System Charge             -1.00000


----------------
ADF Engine Input
----------------
 
   Basis
     Type TZ2P
     Core None
   End
   XC
     GGA BLYP
     Dispersion GRIMME3 BJDAMP
   End
   Symmetry NOSYM
   NumericalQuality Normal
   Unrestricted No
   SCF
     Iterations 200
     Converge 1.0e-6
   End
   fragments
     fA c1_fragA_ts.results/adf.rkf
     fB c2_fragB_ts.results/adf.rkf
   end
   etsnocv
     enocv 0.05
     ekmin 0.5
   end
   print etslowdin
   Save TAPE21
 

 Title: *** (NO TITLE) ***

 *** adf ***



 ===========================
 A T T A C H E D   F I L E S
 ===========================
  



 ===============================
 M O D E L   P A R A M E T E R S
 ===============================
  
 DENSITY FUNCTIONAL POTENTIAL (scf)
    LDA:                               Exchange only                           == Not Default ==
    Gradient Corrections:              Becke88 LYP                             == Not Default ==

 SPIN  (restricted / unrestr.)
    Molecule:                          Restricted                               
    Fragments:                         Restricted                               

 OTHER ASPECTS
    Relativistic Corrections:          scalar (ZORA,MAPA)                       

    Nuclear Charge Density Model:      Point Charge Nuclei                      
    Core Treatment:                    Frozen Orbital(s)                        

    Hyperfine or Zeeman Interaction:   ---                                      

 Settings for Grimme D3 dispersion correction

      damping                        BJ
      s6                          1.000
      s8                          2.700
      a1                          0.430
      a2                          4.236

 Other (technical) parameters

      alpha                      14.000
      version                         4
 


 Fragment File(s)
 ----------------
 fA:
         file : c1_fragA_ts.results/adf.rkf
         jobid: 428051311
         title: *** adf ***
 fB:
         file : c2_fragB_ts.results/adf.rkf
         jobid: 491694752
         title: *** adf ***



 ===============
 G E O M E T R Y  ***  3D  Molecule  ***
 ===============
  

 ATOMS
 =====                            X Y Z                    CHARGE
                                (Angstrom)             Nucl     +Core       At.Mass
                       --------------------------    ----------------       -------
    1  F              -2.3305    0.2402    2.6735      9.00      9.00       18.9984
    2  C              -0.3871    0.1012   -0.2582      6.00      6.00       12.0000
    3  C              -0.3505    0.1506    1.1926      6.00      6.00       12.0000
    4  Cl              1.5917   -0.4685   -0.9832     17.00     17.00       34.9689
    5  H              -1.5008    0.1324    1.6569      1.00      1.00        1.0078
    6  N              -1.0761   -1.0814   -0.8975      7.00      7.00       14.0031
    7  O              -1.4746   -0.9267   -2.0495      8.00      8.00       15.9949
    8  O              -1.2037   -2.1085   -0.2418      8.00      8.00       15.9949
    9  N               0.0930    1.4856    1.6032      7.00      7.00       14.0031
   10  H               1.0406    1.3763    1.9518      1.00      1.00        1.0078
   11  H              -0.5042    1.7091    2.3943      1.00      1.00        1.0078
   12  N               0.3433   -0.9135    1.8862      7.00      7.00       14.0031
   13  H               0.7259   -1.5855    1.2357      1.00      1.00        1.0078
   14  H              -0.3380   -1.3732    2.4782      1.00      1.00        1.0078
   15  N              -0.7328    1.2491   -0.8885      7.00      7.00       14.0031
   16  H              -0.6391    1.2332   -1.8908      1.00      1.00        1.0078
   17  H              -0.3373    2.0334   -0.3801      1.00      1.00        1.0078


 FRAGMENTS
 =========                                     Atoms in this Fragment     Cart. coord.s (Angstrom)
                                               -------------------------------------------------------
    1  fA                                                1  F           -2.3305    0.2402    2.6735
    2  fB                                                2  C           -0.3871    0.1012   -0.2582
                                                         3  C           -0.3505    0.1506    1.1926
                                                         4  Cl           1.5917   -0.4685   -0.9832
                                                         5  H           -1.5008    0.1324    1.6569
                                                        10  H            1.0406    1.3763    1.9518
                                                        11  H           -0.5042    1.7091    2.3943
                                                        13  H            0.7259   -1.5855    1.2357
                                                        14  H           -0.3380   -1.3732    2.4782
                                                        16  H           -0.6391    1.2332   -1.8908
                                                        17  H           -0.3373    2.0334   -0.3801
                                                         6  N           -1.0761   -1.0814   -0.8975
                                                         9  N            0.0930    1.4856    1.6032
                                                        12  N            0.3433   -0.9135    1.8862
                                                        15  N           -0.7328    1.2491   -0.8885
                                                         7  O           -1.4746   -0.9267   -2.0495
                                                         8  O           -1.2037   -2.1085   -0.2418


 Interatomic Distance Matrix (Angstrom)
 --------------------------------------

   1)     0.000
   2)     3.520   0.000
   3)     2.474   1.452   0.000
   4)     5.409   2.183   2.982   0.000
   5)     1.317   2.216   1.241   4.110   0.000
   6)     4.009   1.511   2.532   2.739   2.860   0.000
   7)     4.940   2.334   3.597   3.279   3.855   1.229   0.000
   8)     3.910   2.356   2.809   3.325   2.952   1.225   2.177   0.000
   9)     2.927   2.369   1.465   3.571   2.091   3.770   4.650   4.243   0.000
  10)     3.630   2.924   2.003   3.510   2.845   4.317   5.257   4.690   1.016   0.000
  11)     2.360   3.104   1.974   4.532   2.006   4.353   5.257   4.692   1.016   1.641
          0.000
  12)     3.017   2.482   1.447   3.161   2.132   3.129   4.335   2.890   2.429   2.395
          2.803   0.000
  13)     3.839   2.513   2.043   2.631   2.844   2.838   4.009   2.486   3.157   3.063
          3.703   1.010   0.000
  14)     2.571   3.109   1.994   4.065   2.072   3.468   4.689   2.948   3.021   3.120
          3.088   1.013   1.649   0.000
  15)     4.032   1.354   2.384   2.892   2.884   2.356   2.575   3.452   2.636   3.351
          3.323   3.679   3.831   4.286   0.000
  16)     4.968   2.003   3.281   2.949   3.813   2.556   2.321   3.769   3.579   4.196
          4.314   4.454   4.425   5.096   1.007   0.000
  17)     4.064   1.937   2.453   3.216   3.019   3.243   3.584   4.234   2.102   2.787
          2.798   3.779   4.103   4.447   1.015   1.736   0.000

 Min. Distance =    1.0068
 Max. Distance =    5.4090



 =====================================
 S Y M M E T R Y ,   E L E C T R O N S
 =====================================
  
 Symmetry: NOSYM

 Irreducible Representations, including subspecies
 -------------------------------------------------
 A


 Configuration of Valence Electrons
 ==================================
 ( determined in the SCF procedure )

 Total:   90

 Net Charge: -1 (Nuclei minus Electrons)

 Aufbau principle for MO occupations will be applied through SCF cycle no.     100
 Thereafter, the program will assign electrons to MOs that are spatially
 similar to the occupied MOs in a "reference" cycle ("KeepOrbitals").
 The reference cycle is always the PREVIOUS cycle: it will evolve with
 the SCF procedure.
 ***************************************************************************************************



                                      ****************************************
                                      *  B U I L D : (Fragments, Functions)  *
                                      ****************************************
  

 The individual fragments are copies of the corresponding 'Master' fragments defined on the fragment files.
 However, they may have been rotated (and translated) with respect to the Master. The local coordinate axes
 of each fragment (which define for instance the spatial orientation in the current molecule of a fragment
 P:x orbital) are not necessarily those of the molecule.
 The local frame (if different from the molecular one) is printed to enable an interpretation of the expan-
 sion of an MO in Fragment Orbitals.



                                              ************************
                                              *  Fragment Type : fA  *
                                              ************************
  

 Fragment no.    1   (in the list of all fragments)
 -----------------
 The local coordinate frame is identical to the molecular frame.

 Check Atomic Coordinates:

                  Master (on file)          After Computed Tranformation               As specified on Input
           ----------------------------     ----------------------------     ---------------------------------
     1)    -2.33054   0.24017   2.67346     -2.33054   0.24017   2.67346       1  -2.33054   0.24017   2.67346



                                              ************************
                                              *  Fragment Type : fB  *
                                              ************************
  

 Fragment no.    2   (in the list of all fragments)
 -----------------
 The local coordinate frame is identical to the molecular frame.

 Check Atomic Coordinates:

                  Master (on file)          After Computed Tranformation               As specified on Input
           ----------------------------     ----------------------------     ---------------------------------
     1)    -0.38709   0.10119  -0.25821     -0.38709   0.10119  -0.25821       2  -0.38709   0.10119  -0.25821
     2)    -0.35048   0.15064   1.19265     -0.35048   0.15064   1.19265       3  -0.35048   0.15064   1.19265
     3)     1.59165  -0.46846  -0.98318      1.59165  -0.46846  -0.98318       4   1.59165  -0.46846  -0.98318
     4)    -1.50083   0.13235   1.65689     -1.50083   0.13235   1.65689       5  -1.50083   0.13235   1.65689
     5)     1.04059   1.37628   1.95176      1.04059   1.37628   1.95176      10   1.04059   1.37628   1.95176
     6)    -0.50418   1.70914   2.39430     -0.50418   1.70914   2.39430      11  -0.50418   1.70914   2.39430
     7)     0.72588  -1.58545   1.23572      0.72588  -1.58545   1.23572      13   0.72588  -1.58545   1.23572
     8)    -0.33800  -1.37319   2.47818     -0.33800  -1.37319   2.47818      14  -0.33800  -1.37319   2.47818
     9)    -0.63908   1.23318  -1.89083     -0.63908   1.23318  -1.89083      16  -0.63908   1.23318  -1.89083
    10)    -0.33732   2.03341  -0.38010     -0.33732   2.03341  -0.38010      17  -0.33732   2.03341  -0.38010
    11)    -1.07610  -1.08137  -0.89746     -1.07610  -1.08137  -0.89746       6  -1.07610  -1.08137  -0.89746
    12)     0.09299   1.48555   1.60321      0.09299   1.48555   1.60321       9   0.09299   1.48555   1.60321
    13)     0.34326  -0.91352   1.88624      0.34326  -0.91352   1.88624      12   0.34326  -0.91352   1.88624
    14)    -0.73278   1.24911  -0.88848     -0.73278   1.24911  -0.88848      15  -0.73278   1.24911  -0.88848
    15)    -1.47457  -0.92668  -2.04950     -1.47457  -0.92668  -2.04950       7  -1.47457  -0.92668  -2.04950
    16)    -1.20371  -2.10848  -0.24182     -1.20371  -2.10848  -0.24182       8  -1.20371  -2.10848  -0.24182



 =======
 S F O s  ***  (Symmetrized Fragment Orbitals)  ***
 =======
  
 SFOs are linear combinations of (valence) Fragment Orbitals (FOs), such that the SFOs transform as the
 irreducible representations of the (molecular) symmetry group. Each SFO is therefore characterized by
 an irrep of the molecule and by a few (or only one) generating FOs.
 The SFOs constitute a symmetry-adapted basis for the Fock matrix. The MO eigenvector coefficients in
 this basis provide a direct interpretation of the MOs in terms of Frontier Orbital Theory.

 The SFOs are combined with auxiliary Core Functions (CFs) to ensure orthogonalization on the (frozen)
 Core Orbitals (COs). The Core-orthogonalized SFOs (CSFOs) constitute the true Fock basis.

 The FOs, and hence also the (C)SFOs are combinations of the elementary basis functions (BAS). The basis
 functions that participate in the description of the SFOs depend on the irrep. The indices of the
 involved functions are printed below for each irrep.
 (The complete list of primitive basis functions is printed in another section)

 Total nr. of (C)SFOs (summation over all irreps) :   345

 NOTE: a (C)SFO that is defined as a combination of more than one FO is usually NOT normalized.



                                       === A ===
 Nr. of SFOs :  345
 Cartesian basis functions that participate in this irrep (total number =   392) :
      1     2     3     4     5     6     9    12     7    10
     13     8    11    14    15    16    17    18    19    20
     21    22    23    24    25    26    27    28    29    30
     31    32    33    34    35    36    39    42    37    40
     43    38    41    44    45    46    47    48    49    50
     51    52    53    54    55    56    57    58    59    60
     61    62    63    64    65    66    69    72    67    70
     73    68    71    74    75    76    77    78    79    80
     81    82    83    84    85    86    87    88    89    90
     91    92    93    94   101   102   103    95    98   104
    107   110    96    99   105   108   111    97   100   106
    109   112   113   114   115   116   117   118   119   120
    121   122   123   124   125   126   127   128   129   130
    131   132   133   134   135   136   137   138   139   140
    141   142   143   144   145   146   147   148   149   150
    151   152   153   154   155   156   157   158   159   160
    161   162   163   164   165   166   167   168   169   170
    171   172   173   174   175   176   177   178   179   180
    181   182   183   184   185   186   187   188   189   190
    191   192   193   194   195   196   197   198   199   200
    201   202   203   204   205   206   207   208   209   210
    211   212   213   214   215   216   217   218   221   224
    219   222   225   220   223   226   227   228   229   230
    231   232   233   234   235   236   237   238   239   240
    241   242   243   244   245   246   247   248   251   254
    249   252   255   250   253   256   257   258   259   260
    261   262   263   264   265   266   267   268   269   270
    271   272   273   274   275   276   277   278   281   284
    279   282   285   280   283   286   287   288   289   290
    291   292   293   294   295   296   297   298   299   300
    301   302   303   304   305   306   307   308   311   314
    309   312   315   310   313   316   317   318   319   320
    321   322   323   324   325   326   327   328   329   330
    331   332   333   334   335   336   337   338   341   344
    339   342   345   340   343   346   347   348   349   350
    351   352   353   354   355   356   357   358   359   360
    361   362   363   364   365   366   367   368   371   374
    369   372   375   370   373   376   377   378   379   380
    381   382   383   384   385   386   387   388   389   390
    391   392

    SFO  (index         Fragment          Generating    Expansion in Fragment Orbitals
  indx  incl.CFs)   Occup   Orb.Energy   FragmentType  Coeff.   Orbital     on Fragment
 --------------------------------------------------------------------------------------
     1       1      2.000     -23.816 au  fA            1.00      1 A               1
                        (    -648.061 eV)
     2       2      2.000      -0.558 au  fA            1.00      2 A               1
                        (     -15.175 eV)
     3       3      2.000       0.108 au  fA            1.00      3 A               1
                        (       2.943 eV)
     4       4      2.000       0.108 au  fA            1.00      4 A               1
                        (       2.943 eV)
     5       5      2.000       0.108 au  fA            1.00      5 A               1
                        (       2.943 eV)
     6       6       --         0.286 au  fA            1.00      6 A               1
                        (       7.775 eV)
     7       7       --         0.812 au  fA            1.00      7 A               1
                        (      22.094 eV)
     8       8       --         0.812 au  fA            1.00      8 A               1
                        (      22.094 eV)
     9       9       --         0.812 au  fA            1.00      9 A               1
                        (      22.094 eV)
    10      10       --         1.565 au  fA            1.00     10 A               1
                        (      42.594 eV)
    11      11       --         1.565 au  fA            1.00     11 A               1
                        (      42.594 eV)
    12      12       --         1.565 au  fA            1.00     12 A               1
                        (      42.594 eV)
    13      13       --         1.565 au  fA            1.00     13 A               1
                        (      42.594 eV)
    14      14       --         1.565 au  fA            1.00     14 A               1
                        (      42.594 eV)
    15      15       --         2.036 au  fA            1.00     15 A               1
                        (      55.390 eV)
    16      16       --         3.895 au  fA            1.00     16 A               1
                        (     106.000 eV)
    17      17       --         3.895 au  fA            1.00     17 A               1
                        (     106.000 eV)
    18      18       --         3.895 au  fA            1.00     18 A               1
                        (     106.000 eV)
    19      19       --         3.895 au  fA            1.00     19 A               1
                        (     106.000 eV)
    20      20       --         3.895 au  fA            1.00     20 A               1
                        (     106.000 eV)
    21      21       --         3.895 au  fA            1.00     21 A               1
                        (     106.000 eV)
    22      22       --         3.895 au  fA            1.00     22 A               1
                        (     106.000 eV)
    23      23       --         5.080 au  fA            1.00     23 A               1
                        (     138.227 eV)
    24      24       --         5.080 au  fA            1.00     24 A               1
                        (     138.227 eV)
    25      25       --         5.080 au  fA            1.00     25 A               1
                        (     138.227 eV)
    26      26       --        48.370 au  fA            1.00     26 A               1
                        (    1316.209 eV)
    27      27      2.000    -101.051 au  fB            1.00      1 A               2
                        (   -2749.731 eV)
    28      28      2.000     -18.851 au  fB            1.00      2 A               2
                        (    -512.969 eV)
    29      29      2.000     -18.851 au  fB            1.00      3 A               2
                        (    -512.953 eV)
    30      30      2.000     -14.268 au  fB            1.00      4 A               2
                        (    -388.253 eV)
    31      31      2.000     -14.072 au  fB            1.00      5 A               2
                        (    -382.909 eV)
    32      32      2.000     -14.037 au  fB            1.00      6 A               2
                        (    -381.954 eV)
    33      33      2.000     -14.028 au  fB            1.00      7 A               2
                        (    -381.717 eV)
    34      34      2.000     -10.078 au  fB            1.00      8 A               2
                        (    -274.247 eV)
    35      35      2.000     -10.034 au  fB            1.00      9 A               2
                        (    -273.031 eV)
    36      36      2.000      -9.204 au  fB            1.00     10 A               2
                        (    -250.461 eV)
    37      37      2.000      -6.970 au  fB            1.00     11 A               2
                        (    -189.672 eV)
    38      38      2.000      -6.962 au  fB            1.00     12 A               2
                        (    -189.439 eV)
    39      39      2.000      -6.962 au  fB            1.00     13 A               2
                        (    -189.437 eV)
    40      40      2.000      -1.154 au  fB            1.00     14 A               2
                        (     -31.406 eV)
    41      41      2.000      -0.992 au  fB            1.00     15 A               2
                        (     -27.002 eV)
    42      42      2.000      -0.917 au  fB            1.00     16 A               2
                        (     -24.953 eV)
    43      43      2.000      -0.865 au  fB            1.00     17 A               2
                        (     -23.532 eV)
    44      44      2.000      -0.800 au  fB            1.00     18 A               2
                        (     -21.783 eV)
    45      45      2.000      -0.738 au  fB            1.00     19 A               2
                        (     -20.090 eV)
    46      46      2.000      -0.700 au  fB            1.00     20 A               2
                        (     -19.050 eV)
    47      47      2.000      -0.640 au  fB            1.00     21 A               2
                        (     -17.411 eV)
    48      48      2.000      -0.543 au  fB            1.00     22 A               2
                        (     -14.763 eV)
    49      49      2.000      -0.534 au  fB            1.00     23 A               2
                        (     -14.530 eV)
    50      50      2.000      -0.520 au  fB            1.00     24 A               2
                        (     -14.161 eV)
    51      51      2.000      -0.500 au  fB            1.00     25 A               2
                        (     -13.595 eV)
    52      52      2.000      -0.493 au  fB            1.00     26 A               2
                        (     -13.428 eV)
    53      53      2.000      -0.471 au  fB            1.00     27 A               2
                        (     -12.818 eV)
    54      54      2.000      -0.459 au  fB            1.00     28 A               2
                        (     -12.493 eV)
    55      55      2.000      -0.427 au  fB            1.00     29 A               2
                        (     -11.615 eV)
    56      56      2.000      -0.425 au  fB            1.00     30 A               2
                        (     -11.556 eV)
    57      57      2.000      -0.394 au  fB            1.00     31 A               2
                        (     -10.716 eV)
    58      58      2.000      -0.341 au  fB            1.00     32 A               2
                        (      -9.284 eV)
    59      59      2.000      -0.304 au  fB            1.00     33 A               2
                        (      -8.277 eV)
    60      60      2.000      -0.299 au  fB            1.00     34 A               2
                        (      -8.136 eV)
    61      61      2.000      -0.274 au  fB            1.00     35 A               2
                        (      -7.466 eV)
    62      62      2.000      -0.271 au  fB            1.00     36 A               2
                        (      -7.387 eV)
    63      63      2.000      -0.268 au  fB            1.00     37 A               2
                        (      -7.294 eV)
    64      64      2.000      -0.256 au  fB            1.00     38 A               2
                        (      -6.953 eV)
    65      65      2.000      -0.248 au  fB            1.00     39 A               2
                        (      -6.753 eV)
    66      66      2.000      -0.227 au  fB            1.00     40 A               2
                        (      -6.171 eV)
    67      67       --        -0.149 au  fB            1.00     41 A               2
                        (      -4.064 eV)
    68      68       --        -0.087 au  fB            1.00     42 A               2
                        (      -2.355 eV)
    69      69       --        -0.039 au  fB            1.00     43 A               2
                        (      -1.049 eV)
    70      70       --        -0.006 au  fB            1.00     44 A               2
                        (      -0.168 eV)
    71      71       --         0.007 au  fB            1.00     45 A               2
                        (       0.200 eV)
    72      72       --         0.010 au  fB            1.00     46 A               2
                        (       0.284 eV)
    73      73       --         0.033 au  fB            1.00     47 A               2
                        (       0.886 eV)
    74      74       --         0.052 au  fB            1.00     48 A               2
                        (       1.416 eV)
    75      75       --         0.066 au  fB            1.00     49 A               2
                        (       1.791 eV)
    76      76       --         0.074 au  fB            1.00     50 A               2
                        (       2.007 eV)
    77      77       --         0.109 au  fB            1.00     51 A               2
                        (       2.977 eV)
    78      78       --         0.129 au  fB            1.00     52 A               2
                        (       3.518 eV)
    79      79       --         0.145 au  fB            1.00     53 A               2
                        (       3.932 eV)
    80      80       --         0.162 au  fB            1.00     54 A               2
                        (       4.414 eV)
    81      81       --         0.168 au  fB            1.00     55 A               2
                        (       4.565 eV)
    82      82       --         0.174 au  fB            1.00     56 A               2
                        (       4.725 eV)
    83      83       --         0.186 au  fB            1.00     57 A               2
                        (       5.050 eV)
    84      84       --         0.198 au  fB            1.00     58 A               2
                        (       5.379 eV)
    85      85       --         0.207 au  fB            1.00     59 A               2
                        (       5.630 eV)
    86      86       --         0.221 au  fB            1.00     60 A               2
                        (       6.005 eV)
    87      87       --         0.229 au  fB            1.00     61 A               2
                        (       6.235 eV)
    88      88       --         0.242 au  fB            1.00     62 A               2
                        (       6.583 eV)
    89      89       --         0.257 au  fB            1.00     63 A               2
                        (       7.004 eV)
    90      90       --         0.267 au  fB            1.00     64 A               2
                        (       7.266 eV)
    91      91       --         0.277 au  fB            1.00     65 A               2
                        (       7.547 eV)
    92      92       --         0.291 au  fB            1.00     66 A               2
                        (       7.911 eV)
    93      93       --         0.299 au  fB            1.00     67 A               2
                        (       8.128 eV)
    94      94       --         0.301 au  fB            1.00     68 A               2
                        (       8.182 eV)
    95      95       --         0.308 au  fB            1.00     69 A               2
                        (       8.394 eV)
    96      96       --         0.325 au  fB            1.00     70 A               2
                        (       8.840 eV)
    97      97       --         0.341 au  fB            1.00     71 A               2
                        (       9.289 eV)
    98      98       --         0.352 au  fB            1.00     72 A               2
                        (       9.579 eV)
    99      99       --         0.367 au  fB            1.00     73 A               2
                        (       9.979 eV)
   100     100       --         0.370 au  fB            1.00     74 A               2
                        (      10.062 eV)
   101     101       --         0.379 au  fB            1.00     75 A               2
                        (      10.306 eV)
   102     102       --         0.393 au  fB            1.00     76 A               2
                        (      10.704 eV)
   103     103       --         0.412 au  fB            1.00     77 A               2
                        (      11.224 eV)
   104     104       --         0.423 au  fB            1.00     78 A               2
                        (      11.517 eV)
   105     105       --         0.433 au  fB            1.00     79 A               2
                        (      11.776 eV)
   106     106       --         0.444 au  fB            1.00     80 A               2
                        (      12.073 eV)
   107     107       --         0.454 au  fB            1.00     81 A               2
                        (      12.363 eV)
   108     108       --         0.465 au  fB            1.00     82 A               2
                        (      12.650 eV)
   109     109       --         0.484 au  fB            1.00     83 A               2
                        (      13.176 eV)
   110     110       --         0.494 au  fB            1.00     84 A               2
                        (      13.453 eV)
   111     111       --         0.507 au  fB            1.00     85 A               2
                        (      13.791 eV)
   112     112       --         0.517 au  fB            1.00     86 A               2
                        (      14.081 eV)
   113     113       --         0.537 au  fB            1.00     87 A               2
                        (      14.619 eV)
   114     114       --         0.546 au  fB            1.00     88 A               2
                        (      14.845 eV)
   115     115       --         0.549 au  fB            1.00     89 A               2
                        (      14.944 eV)
   116     116       --         0.571 au  fB            1.00     90 A               2
                        (      15.539 eV)
   117     117       --         0.585 au  fB            1.00     91 A               2
                        (      15.925 eV)
   118     118       --         0.609 au  fB            1.00     92 A               2
                        (      16.583 eV)
   119     119       --         0.676 au  fB            1.00     93 A               2
                        (      18.381 eV)
   120     120       --         0.697 au  fB            1.00     94 A               2
                        (      18.957 eV)
   121     121       --         0.712 au  fB            1.00     95 A               2
                        (      19.374 eV)
   122     122       --         0.735 au  fB            1.00     96 A               2
                        (      20.003 eV)
   123     123       --         0.754 au  fB            1.00     97 A               2
                        (      20.525 eV)
   124     124       --         0.799 au  fB            1.00     98 A               2
                        (      21.752 eV)
   125     125       --         0.811 au  fB            1.00     99 A               2
                        (      22.064 eV)
   126     126       --         0.832 au  fB            1.00    100 A               2
                        (      22.650 eV)
   127     127       --         0.890 au  fB            1.00    101 A               2
                        (      24.208 eV)
   128     128       --         0.907 au  fB            1.00    102 A               2
                        (      24.673 eV)
   129     129       --         0.929 au  fB            1.00    103 A               2
                        (      25.269 eV)
   130     130       --         0.951 au  fB            1.00    104 A               2
                        (      25.875 eV)
   131     131       --         0.994 au  fB            1.00    105 A               2
                        (      27.037 eV)
   132     132       --         1.015 au  fB            1.00    106 A               2
                        (      27.627 eV)
   133     133       --         1.024 au  fB            1.00    107 A               2
                        (      27.853 eV)
   134     134       --         1.043 au  fB            1.00    108 A               2
                        (      28.385 eV)
   135     135       --         1.069 au  fB            1.00    109 A               2
                        (      29.101 eV)
   136     136       --         1.092 au  fB            1.00    110 A               2
                        (      29.722 eV)
   137     137       --         1.123 au  fB            1.00    111 A               2
                        (      30.561 eV)
   138     138       --         1.148 au  fB            1.00    112 A               2
                        (      31.249 eV)
   139     139       --         1.162 au  fB            1.00    113 A               2
                        (      31.619 eV)
   140     140       --         1.169 au  fB            1.00    114 A               2
                        (      31.810 eV)
   141     141       --         1.179 au  fB            1.00    115 A               2
                        (      32.079 eV)
   142     142       --         1.195 au  fB            1.00    116 A               2
                        (      32.517 eV)
   143     143       --         1.209 au  fB            1.00    117 A               2
                        (      32.900 eV)
   144     144       --         1.229 au  fB            1.00    118 A               2
                        (      33.446 eV)
   145     145       --         1.234 au  fB            1.00    119 A               2
                        (      33.567 eV)
   146     146       --         1.257 au  fB            1.00    120 A               2
                        (      34.213 eV)
   147     147       --         1.260 au  fB            1.00    121 A               2
                        (      34.289 eV)
   148     148       --         1.262 au  fB            1.00    122 A               2
                        (      34.349 eV)
   149     149       --         1.278 au  fB            1.00    123 A               2
                        (      34.784 eV)
   150     150       --         1.295 au  fB            1.00    124 A               2
                        (      35.227 eV)
   151     151       --         1.309 au  fB            1.00    125 A               2
                        (      35.629 eV)
   152     152       --         1.316 au  fB            1.00    126 A               2
                        (      35.819 eV)
   153     153       --         1.330 au  fB            1.00    127 A               2
                        (      36.204 eV)
   154     154       --         1.341 au  fB            1.00    128 A               2
                        (      36.482 eV)
   155     155       --         1.360 au  fB            1.00    129 A               2
                        (      37.004 eV)
   156     156       --         1.372 au  fB            1.00    130 A               2
                        (      37.325 eV)
   157     157       --         1.402 au  fB            1.00    131 A               2
                        (      38.157 eV)
   158     158       --         1.415 au  fB            1.00    132 A               2
                        (      38.515 eV)
   159     159       --         1.439 au  fB            1.00    133 A               2
                        (      39.158 eV)
   160     160       --         1.458 au  fB            1.00    134 A               2
                        (      39.665 eV)
   161     161       --         1.486 au  fB            1.00    135 A               2
                        (      40.429 eV)
   162     162       --         1.500 au  fB            1.00    136 A               2
                        (      40.822 eV)
   163     163       --         1.532 au  fB            1.00    137 A               2
                        (      41.675 eV)
   164     164       --         1.539 au  fB            1.00    138 A               2
                        (      41.877 eV)
   165     165       --         1.556 au  fB            1.00    139 A               2
                        (      42.343 eV)
   166     166       --         1.579 au  fB            1.00    140 A               2
                        (      42.954 eV)
   167     167       --         1.639 au  fB            1.00    141 A               2
                        (      44.607 eV)
   168     168       --         1.651 au  fB            1.00    142 A               2
                        (      44.929 eV)
   169     169       --         1.690 au  fB            1.00    143 A               2
                        (      46.000 eV)
   170     170       --         1.741 au  fB            1.00    144 A               2
                        (      47.375 eV)
   171     171       --         1.752 au  fB            1.00    145 A               2
                        (      47.665 eV)
   172     172       --         1.779 au  fB            1.00    146 A               2
                        (      48.405 eV)
   173     173       --         1.800 au  fB            1.00    147 A               2
                        (      48.975 eV)
   174     174       --         1.856 au  fB            1.00    148 A               2
                        (      50.502 eV)
   175     175       --         1.882 au  fB            1.00    149 A               2
                        (      51.219 eV)
   176     176       --         1.892 au  fB            1.00    150 A               2
                        (      51.479 eV)
   177     177       --         1.912 au  fB            1.00    151 A               2
                        (      52.033 eV)
   178     178       --         1.948 au  fB            1.00    152 A               2
                        (      53.013 eV)
   179     179       --         1.962 au  fB            1.00    153 A               2
                        (      53.380 eV)
   180     180       --         1.984 au  fB            1.00    154 A               2
                        (      53.990 eV)
   181     181       --         2.008 au  fB            1.00    155 A               2
                        (      54.634 eV)
   182     182       --         2.061 au  fB            1.00    156 A               2
                        (      56.084 eV)
   183     183       --         2.075 au  fB            1.00    157 A               2
                        (      56.477 eV)
   184     184       --         2.079 au  fB            1.00    158 A               2
                        (      56.561 eV)
   185     185       --         2.115 au  fB            1.00    159 A               2
                        (      57.555 eV)
   186     186       --         2.130 au  fB            1.00    160 A               2
                        (      57.962 eV)
   187     187       --         2.154 au  fB            1.00    161 A               2
                        (      58.620 eV)
   188     188       --         2.187 au  fB            1.00    162 A               2
                        (      59.517 eV)
   189     189       --         2.221 au  fB            1.00    163 A               2
                        (      60.429 eV)
   190     190       --         2.240 au  fB            1.00    164 A               2
                        (      60.962 eV)
   191     191       --         2.269 au  fB            1.00    165 A               2
                        (      61.740 eV)
   192     192       --         2.292 au  fB            1.00    166 A               2
                        (      62.362 eV)
   193     193       --         2.309 au  fB            1.00    167 A               2
                        (      62.838 eV)
   194     194       --         2.346 au  fB            1.00    168 A               2
                        (      63.844 eV)
   195     195       --         2.363 au  fB            1.00    169 A               2
                        (      64.308 eV)
   196     196       --         2.368 au  fB            1.00    170 A               2
                        (      64.435 eV)
   197     197       --         2.392 au  fB            1.00    171 A               2
                        (      65.081 eV)
   198     198       --         2.430 au  fB            1.00    172 A               2
                        (      66.113 eV)
   199     199       --         2.471 au  fB            1.00    173 A               2
                        (      67.251 eV)
   200     200       --         2.503 au  fB            1.00    174 A               2
                        (      68.113 eV)
   201     201       --         2.533 au  fB            1.00    175 A               2
                        (      68.923 eV)
   202     202       --         2.562 au  fB            1.00    176 A               2
                        (      69.708 eV)
   203     203       --         2.628 au  fB            1.00    177 A               2
                        (      71.510 eV)
   204     204       --         2.689 au  fB            1.00    178 A               2
                        (      73.158 eV)
   205     205       --         2.714 au  fB            1.00    179 A               2
                        (      73.859 eV)
   206     206       --         2.725 au  fB            1.00    180 A               2
                        (      74.155 eV)
   207     207       --         2.759 au  fB            1.00    181 A               2
                        (      75.079 eV)
   208     208       --         2.773 au  fB            1.00    182 A               2
                        (      75.448 eV)
   209     209       --         2.788 au  fB            1.00    183 A               2
                        (      75.875 eV)
   210     210       --         2.884 au  fB            1.00    184 A               2
                        (      78.478 eV)
   211     211       --         2.917 au  fB            1.00    185 A               2
                        (      79.371 eV)
   212     212       --         2.936 au  fB            1.00    186 A               2
                        (      79.888 eV)
   213     213       --         2.948 au  fB            1.00    187 A               2
                        (      80.215 eV)
   214     214       --         2.977 au  fB            1.00    188 A               2
                        (      80.995 eV)
   215     215       --         2.996 au  fB            1.00    189 A               2
                        (      81.513 eV)
   216     216       --         3.021 au  fB            1.00    190 A               2
                        (      82.211 eV)
   217     217       --         3.041 au  fB            1.00    191 A               2
                        (      82.745 eV)
   218     218       --         3.070 au  fB            1.00    192 A               2
                        (      83.543 eV)
   219     219       --         3.101 au  fB            1.00    193 A               2
                        (      84.379 eV)
   220     220       --         3.135 au  fB            1.00    194 A               2
                        (      85.321 eV)
   221     221       --         3.156 au  fB            1.00    195 A               2
                        (      85.887 eV)
   222     222       --         3.190 au  fB            1.00    196 A               2
                        (      86.813 eV)
   223     223       --         3.214 au  fB            1.00    197 A               2
                        (      87.469 eV)
   224     224       --         3.235 au  fB            1.00    198 A               2
                        (      88.040 eV)
   225     225       --         3.286 au  fB            1.00    199 A               2
                        (      89.417 eV)
   226     226       --         3.312 au  fB            1.00    200 A               2
                        (      90.135 eV)
   227     227       --         3.328 au  fB            1.00    201 A               2
                        (      90.558 eV)
   228     228       --         3.363 au  fB            1.00    202 A               2
                        (      91.500 eV)
   229     229       --         3.370 au  fB            1.00    203 A               2
                        (      91.690 eV)
   230     230       --         3.394 au  fB            1.00    204 A               2
                        (      92.369 eV)
   231     231       --         3.422 au  fB            1.00    205 A               2
                        (      93.120 eV)
   232     232       --         3.456 au  fB            1.00    206 A               2
                        (      94.035 eV)
   233     233       --         3.496 au  fB            1.00    207 A               2
                        (      95.128 eV)
   234     234       --         3.524 au  fB            1.00    208 A               2
                        (      95.880 eV)
   235     235       --         3.539 au  fB            1.00    209 A               2
                        (      96.310 eV)
   236     236       --         3.552 au  fB            1.00    210 A               2
                        (      96.652 eV)
   237     237       --         3.586 au  fB            1.00    211 A               2
                        (      97.571 eV)
   238     238       --         3.605 au  fB            1.00    212 A               2
                        (      98.096 eV)
   239     239       --         3.628 au  fB            1.00    213 A               2
                        (      98.711 eV)
   240     240       --         3.639 au  fB            1.00    214 A               2
                        (      99.018 eV)
   241     241       --         3.664 au  fB            1.00    215 A               2
                        (      99.713 eV)
   242     242       --         3.669 au  fB            1.00    216 A               2
                        (      99.826 eV)
   243     243       --         3.708 au  fB            1.00    217 A               2
                        (     100.896 eV)
   244     244       --         3.754 au  fB            1.00    218 A               2
                        (     102.143 eV)
   245     245       --         3.800 au  fB            1.00    219 A               2
                        (     103.407 eV)
   246     246       --         3.828 au  fB            1.00    220 A               2
                        (     104.158 eV)
   247     247       --         3.886 au  fB            1.00    221 A               2
                        (     105.745 eV)
   248     248       --         3.895 au  fB            1.00    222 A               2
                        (     105.990 eV)
   249     249       --         3.942 au  fB            1.00    223 A               2
                        (     107.265 eV)
   250     250       --         3.956 au  fB            1.00    224 A               2
                        (     107.658 eV)
   251     251       --         3.993 au  fB            1.00    225 A               2
                        (     108.648 eV)
   252     252       --         4.020 au  fB            1.00    226 A               2
                        (     109.378 eV)
   253     253       --         4.036 au  fB            1.00    227 A               2
                        (     109.822 eV)
   254     254       --         4.070 au  fB            1.00    228 A               2
                        (     110.749 eV)
   255     255       --         4.094 au  fB            1.00    229 A               2
                        (     111.391 eV)
   256     256       --         4.120 au  fB            1.00    230 A               2
                        (     112.108 eV)
   257     257       --         4.132 au  fB            1.00    231 A               2
                        (     112.438 eV)
   258     258       --         4.184 au  fB            1.00    232 A               2
                        (     113.844 eV)
   259     259       --         4.223 au  fB            1.00    233 A               2
                        (     114.924 eV)
   260     260       --         4.271 au  fB            1.00    234 A               2
                        (     116.221 eV)
   261     261       --         4.339 au  fB            1.00    235 A               2
                        (     118.083 eV)
   262     262       --         4.352 au  fB            1.00    236 A               2
                        (     118.433 eV)
   263     263       --         4.367 au  fB            1.00    237 A               2
                        (     118.844 eV)
   264     264       --         4.417 au  fB            1.00    238 A               2
                        (     120.192 eV)
   265     265       --         4.440 au  fB            1.00    239 A               2
                        (     120.812 eV)
   266     266       --         4.485 au  fB            1.00    240 A               2
                        (     122.056 eV)
   267     267       --         4.537 au  fB            1.00    241 A               2
                        (     123.454 eV)
   268     268       --         4.608 au  fB            1.00    242 A               2
                        (     125.383 eV)
   269     269       --         4.657 au  fB            1.00    243 A               2
                        (     126.736 eV)
   270     270       --         4.689 au  fB            1.00    244 A               2
                        (     127.600 eV)
   271     271       --         4.707 au  fB            1.00    245 A               2
                        (     128.074 eV)
   272     272       --         4.724 au  fB            1.00    246 A               2
                        (     128.553 eV)
   273     273       --         4.754 au  fB            1.00    247 A               2
                        (     129.362 eV)
   274     274       --         4.854 au  fB            1.00    248 A               2
                        (     132.079 eV)
   275     275       --         4.884 au  fB            1.00    249 A               2
                        (     132.907 eV)
   276     276       --         4.906 au  fB            1.00    250 A               2
                        (     133.493 eV)
   277     277       --         4.929 au  fB            1.00    251 A               2
                        (     134.133 eV)
   278     278       --         4.985 au  fB            1.00    252 A               2
                        (     135.653 eV)
   279     279       --         5.022 au  fB            1.00    253 A               2
                        (     136.664 eV)
   280     280       --         5.082 au  fB            1.00    254 A               2
                        (     138.283 eV)
   281     281       --         5.143 au  fB            1.00    255 A               2
                        (     139.936 eV)
   282     282       --         5.184 au  fB            1.00    256 A               2
                        (     141.071 eV)
   283     283       --         5.254 au  fB            1.00    257 A               2
                        (     142.970 eV)
   284     284       --         5.261 au  fB            1.00    258 A               2
                        (     143.146 eV)
   285     285       --         5.300 au  fB            1.00    259 A               2
                        (     144.213 eV)
   286     286       --         5.360 au  fB            1.00    260 A               2
                        (     145.843 eV)
   287     287       --         5.381 au  fB            1.00    261 A               2
                        (     146.434 eV)
   288     288       --         5.434 au  fB            1.00    262 A               2
                        (     147.861 eV)
   289     289       --         5.522 au  fB            1.00    263 A               2
                        (     150.260 eV)
   290     290       --         5.554 au  fB            1.00    264 A               2
                        (     151.141 eV)
   291     291       --         5.635 au  fB            1.00    265 A               2
                        (     153.328 eV)
   292     292       --         5.684 au  fB            1.00    266 A               2
                        (     154.660 eV)
   293     293       --         5.718 au  fB            1.00    267 A               2
                        (     155.584 eV)
   294     294       --         5.802 au  fB            1.00    268 A               2
                        (     157.894 eV)
   295     295       --         5.954 au  fB            1.00    269 A               2
                        (     162.027 eV)
   296     296       --         5.962 au  fB            1.00    270 A               2
                        (     162.246 eV)
   297     297       --         6.089 au  fB            1.00    271 A               2
                        (     165.695 eV)
   298     298       --         6.178 au  fB            1.00    272 A               2
                        (     168.121 eV)
   299     299       --         6.226 au  fB            1.00    273 A               2
                        (     169.428 eV)
   300     300       --         6.349 au  fB            1.00    274 A               2
                        (     172.764 eV)
   301     301       --         6.387 au  fB            1.00    275 A               2
                        (     173.812 eV)
   302     302       --         6.435 au  fB            1.00    276 A               2
                        (     175.110 eV)
   303     303       --         6.450 au  fB            1.00    277 A               2
                        (     175.522 eV)
   304     304       --         6.473 au  fB            1.00    278 A               2
                        (     176.132 eV)
   305     305       --         6.520 au  fB            1.00    279 A               2
                        (     177.411 eV)
   306     306       --         6.596 au  fB            1.00    280 A               2
                        (     179.492 eV)
   307     307       --         6.641 au  fB            1.00    281 A               2
                        (     180.710 eV)
   308     308       --         6.738 au  fB            1.00    282 A               2
                        (     183.357 eV)
   309     309       --         6.774 au  fB            1.00    283 A               2
                        (     184.324 eV)
   310     310       --         6.820 au  fB            1.00    284 A               2
                        (     185.580 eV)
   311     311       --         6.851 au  fB            1.00    285 A               2
                        (     186.436 eV)
   312     312       --         6.902 au  fB            1.00    286 A               2
                        (     187.824 eV)
   313     313       --         6.990 au  fB            1.00    287 A               2
                        (     190.201 eV)
   314     314       --         7.131 au  fB            1.00    288 A               2
                        (     194.043 eV)
   315     315       --         7.177 au  fB            1.00    289 A               2
                        (     195.285 eV)
   316     316       --         7.200 au  fB            1.00    290 A               2
                        (     195.913 eV)
   317     317       --         7.344 au  fB            1.00    291 A               2
                        (     199.833 eV)
   318     318       --         7.462 au  fB            1.00    292 A               2
                        (     203.051 eV)
   319     319       --         7.549 au  fB            1.00    293 A               2
                        (     205.416 eV)
   320     320       --         7.820 au  fB            1.00    294 A               2
                        (     212.802 eV)
   321     321       --         8.299 au  fB            1.00    295 A               2
                        (     225.834 eV)
   322     322       --         8.802 au  fB            1.00    296 A               2
                        (     239.502 eV)
   323     323       --         8.863 au  fB            1.00    297 A               2
                        (     241.176 eV)
   324     324       --         9.038 au  fB            1.00    298 A               2
                        (     245.940 eV)
   325     325       --         9.081 au  fB            1.00    299 A               2
                        (     247.095 eV)
   326     326       --         9.356 au  fB            1.00    300 A               2
                        (     254.586 eV)
   327     327       --         9.819 au  fB            1.00    301 A               2
                        (     267.188 eV)
   328     328       --         9.952 au  fB            1.00    302 A               2
                        (     270.804 eV)
   329     329       --        10.141 au  fB            1.00    303 A               2
                        (     275.937 eV)
   330     330       --        10.582 au  fB            1.00    304 A               2
                        (     287.953 eV)
   331     331       --        13.964 au  fB            1.00    305 A               2
                        (     379.988 eV)
   332     332       --        15.727 au  fB            1.00    306 A               2
                        (     427.940 eV)
   333     333       --        15.971 au  fB            1.00    307 A               2
                        (     434.604 eV)
   334     334       --        19.045 au  fB            1.00    308 A               2
                        (     518.250 eV)
   335     335       --        19.153 au  fB            1.00    309 A               2
                        (     521.175 eV)
   336     336       --        19.601 au  fB            1.00    310 A               2
                        (     533.370 eV)
   337     337       --        56.762 au  fB            1.00    311 A               2
                        (    1544.573 eV)
   338     338       --        59.855 au  fB            1.00    312 A               2
                        (    1628.749 eV)
   339     339       --        71.644 au  fB            1.00    313 A               2
                        (    1949.535 eV)
   340     340       --        71.769 au  fB            1.00    314 A               2
                        (    1952.938 eV)
   341     341       --        72.204 au  fB            1.00    315 A               2
                        (    1964.763 eV)
   342     342       --        72.241 au  fB            1.00    316 A               2
                        (    1965.779 eV)
   343     343       --       128.041 au  fB            1.00    317 A               2
                        (    3484.185 eV)
   344     344       --       128.836 au  fB            1.00    318 A               2
                        (    3505.812 eV)
   345     345       --       209.900 au  fB            1.00    319 A               2
                        (    5711.664 eV)



 ================================
 (Slater-type)  F U N C T I O N S  ***  (Basis and Fit)  ***
 ================================
  

 Atom Type    1  (F)
 ==============

 Valence Basis Sets:  10
 -----------------------
   1 S   10.880000
   1 S    7.700000
   2 S    3.240000
   2 S    1.940000
   2 S    0.740000
   2 P    4.540000
   2 P    2.300000
   2 P    1.240000
   3 D    2.000000
   4 F    3.000000

 Atom Type    2  (C)
 ==============

 Valence Basis Sets:  10
 -----------------------
   1 S    7.680000
   1 S    5.000000
   2 S    1.280000
   2 S    2.100000
   2 S    4.600000
   2 P    0.820000
   2 P    1.480000
   2 P    2.940000
   3 D    2.200000
   4 F    3.300000

 Atom Type    3  (Cl)
 ==============

 Valence Basis Sets:  14
 -----------------------
   1 S   20.300000
   1 S   15.250000
   2 S    6.250000
   2 S    4.450000
   2 P    8.850000
   2 P    5.050000
   3 S    3.450000
   3 S    2.300000
   3 S    1.600000
   3 P    3.350000
   3 P    2.050000
   3 P    1.200000
   3 D    2.000000
   4 F    2.000000

 Atom Type    4  (H)
 ==============

 Valence Basis Sets:   5
 -----------------------
   1 S    0.690000
   1 S    0.920000
   1 S    1.580000
   2 P    1.250000
   3 D    2.500000

 Atom Type    5  (N)
 ==============

 Valence Basis Sets:  10
 -----------------------
   1 S    8.740000
   1 S    5.900000
   2 S    5.150000
   2 S    2.500000
   2 S    1.500000
   2 P    3.680000
   2 P    1.880000
   2 P    1.000000
   3 D    2.200000
   4 F    3.300000

 Atom Type    6  (O)
 ==============

 Valence Basis Sets:  10
 -----------------------
   1 S    9.800000
   1 S    6.800000
   2 S    7.580000
   2 S    2.880000
   2 S    1.720000
   2 P    4.080000
   2 P    2.080000
   2 P    1.120000
   3 D    2.000000
   4 F    3.000000


 BAS: List of all Elementary Cartesian Basis Functions
 =====================================================

 The numbering in the list below (to the right of the function characteristics) is referred
 to in print-outs of MO eigenvectors and Mulliken populations in the BAS representation
 (as contrasted to the SFO representation).

 Notes:
 1. The functions are characterized by a polynomial prefactor (powers of x,y,z and r) and
    an exponential decay factor alpha.
 2. Since the basis sets are specific for an atom TYPE, the individual functions occur on
    all atoms of that type.
 3. The word 'Core' in the left margin signals that it is a Core Function (CF) : not a
    degree of freedom in the valence set, but only used to ensure orthogonalization of
    the other valence basis functions on the frozen Core Orbitals.


 (power of) X  Y  Z  R     Alpha  on Atom
            ==========     =====     ==========

 F                                    1
                                  ---------------------------------------------------------------------------
            0  0  0  0    10.880      1
            0  0  0  0     7.700      2
            0  0  0  1     3.240      3
            0  0  0  1     1.940      4
            0  0  0  1     0.740      5
            1  0  0  0     4.540      6
            0  1  0  0     4.540      7
            0  0  1  0     4.540      8
            1  0  0  0     2.300      9
            0  1  0  0     2.300     10
            0  0  1  0     2.300     11
            1  0  0  0     1.240     12
            0  1  0  0     1.240     13
            0  0  1  0     1.240     14
            2  0  0  0     2.000     15
            1  1  0  0     2.000     16
            1  0  1  0     2.000     17
            0  2  0  0     2.000     18
            0  1  1  0     2.000     19
            0  0  2  0     2.000     20
            3  0  0  0     3.000     21
            2  1  0  0     3.000     22
            2  0  1  0     3.000     23
            1  2  0  0     3.000     24
            1  1  1  0     3.000     25
            1  0  2  0     3.000     26
            0  3  0  0     3.000     27
            0  2  1  0     3.000     28
            0  1  2  0     3.000     29
            0  0  3  0     3.000     30

 C                                    2    3
                                  ---------------------------------------------------------------------------
            0  0  0  0     7.680     31   61
            0  0  0  0     5.000     32   62
            0  0  0  1     1.280     33   63
            0  0  0  1     2.100     34   64
            0  0  0  1     4.600     35   65
            1  0  0  0     0.820     36   66
            0  1  0  0     0.820     37   67
            0  0  1  0     0.820     38   68
            1  0  0  0     1.480     39   69
            0  1  0  0     1.480     40   70
            0  0  1  0     1.480     41   71
            1  0  0  0     2.940     42   72
            0  1  0  0     2.940     43   73
            0  0  1  0     2.940     44   74
            2  0  0  0     2.200     45   75
            1  1  0  0     2.200     46   76
            1  0  1  0     2.200     47   77
            0  2  0  0     2.200     48   78
            0  1  1  0     2.200     49   79
            0  0  2  0     2.200     50   80
            3  0  0  0     3.300     51   81
            2  1  0  0     3.300     52   82
            2  0  1  0     3.300     53   83
            1  2  0  0     3.300     54   84
            1  1  1  0     3.300     55   85
            1  0  2  0     3.300     56   86
            0  3  0  0     3.300     57   87
            0  2  1  0     3.300     58   88
            0  1  2  0     3.300     59   89
            0  0  3  0     3.300     60   90

 Cl                                   4
                                  ---------------------------------------------------------------------------
            0  0  0  0    20.300     91
            0  0  0  0    15.250     92
            0  0  0  1     6.250     93
            0  0  0  1     4.450     94
            1  0  0  0     8.850     95
            0  1  0  0     8.850     96
            0  0  1  0     8.850     97
            1  0  0  0     5.050     98
            0  1  0  0     5.050     99
            0  0  1  0     5.050    100
            0  0  0  2     3.450    101
            0  0  0  2     2.300    102
            0  0  0  2     1.600    103
            1  0  0  1     3.350    104
            0  1  0  1     3.350    105
            0  0  1  1     3.350    106
            1  0  0  1     2.050    107
            0  1  0  1     2.050    108
            0  0  1  1     2.050    109
            1  0  0  1     1.200    110
            0  1  0  1     1.200    111
            0  0  1  1     1.200    112
            2  0  0  0     2.000    113
            1  1  0  0     2.000    114
            1  0  1  0     2.000    115
            0  2  0  0     2.000    116
            0  1  1  0     2.000    117
            0  0  2  0     2.000    118
            3  0  0  0     2.000    119
            2  1  0  0     2.000    120
            2  0  1  0     2.000    121
            1  2  0  0     2.000    122
            1  1  1  0     2.000    123
            1  0  2  0     2.000    124
            0  3  0  0     2.000    125
            0  2  1  0     2.000    126
            0  1  2  0     2.000    127
            0  0  3  0     2.000    128

 H                                    5    6    7    8    9   10   11
                                  ---------------------------------------------------------------------------
            0  0  0  0     0.690    129  141  153  165  177  189  201
            0  0  0  0     0.920    130  142  154  166  178  190  202
            0  0  0  0     1.580    131  143  155  167  179  191  203
            1  0  0  0     1.250    132  144  156  168  180  192  204
            0  1  0  0     1.250    133  145  157  169  181  193  205
            0  0  1  0     1.250    134  146  158  170  182  194  206
            2  0  0  0     2.500    135  147  159  171  183  195  207
            1  1  0  0     2.500    136  148  160  172  184  196  208
            1  0  1  0     2.500    137  149  161  173  185  197  209
            0  2  0  0     2.500    138  150  162  174  186  198  210
            0  1  1  0     2.500    139  151  163  175  187  199  211
            0  0  2  0     2.500    140  152  164  176  188  200  212

 N                                   12   13   14   15
                                  ---------------------------------------------------------------------------
            0  0  0  0     8.740    213  243  273  303
            0  0  0  0     5.900    214  244  274  304
            0  0  0  1     5.150    215  245  275  305
            0  0  0  1     2.500    216  246  276  306
            0  0  0  1     1.500    217  247  277  307
            1  0  0  0     3.680    218  248  278  308
            0  1  0  0     3.680    219  249  279  309
            0  0  1  0     3.680    220  250  280  310
            1  0  0  0     1.880    221  251  281  311
            0  1  0  0     1.880    222  252  282  312
            0  0  1  0     1.880    223  253  283  313
            1  0  0  0     1.000    224  254  284  314
            0  1  0  0     1.000    225  255  285  315
            0  0  1  0     1.000    226  256  286  316
            2  0  0  0     2.200    227  257  287  317
            1  1  0  0     2.200    228  258  288  318
            1  0  1  0     2.200    229  259  289  319
            0  2  0  0     2.200    230  260  290  320
            0  1  1  0     2.200    231  261  291  321
            0  0  2  0     2.200    232  262  292  322
            3  0  0  0     3.300    233  263  293  323
            2  1  0  0     3.300    234  264  294  324
            2  0  1  0     3.300    235  265  295  325
            1  2  0  0     3.300    236  266  296  326
            1  1  1  0     3.300    237  267  297  327
            1  0  2  0     3.300    238  268  298  328
            0  3  0  0     3.300    239  269  299  329
            0  2  1  0     3.300    240  270  300  330
            0  1  2  0     3.300    241  271  301  331
            0  0  3  0     3.300    242  272  302  332

 O                                   16   17
                                  ---------------------------------------------------------------------------
            0  0  0  0     9.800    333  363
            0  0  0  0     6.800    334  364
            0  0  0  1     7.580    335  365
            0  0  0  1     2.880    336  366
            0  0  0  1     1.720    337  367
            1  0  0  0     4.080    338  368
            0  1  0  0     4.080    339  369
            0  0  1  0     4.080    340  370
            1  0  0  0     2.080    341  371
            0  1  0  0     2.080    342  372
            0  0  1  0     2.080    343  373
            1  0  0  0     1.120    344  374
            0  1  0  0     1.120    345  375
            0  0  1  0     1.120    346  376
            2  0  0  0     2.000    347  377
            1  1  0  0     2.000    348  378
            1  0  1  0     2.000    349  379
            0  2  0  0     2.000    350  380
            0  1  1  0     2.000    351  381
            0  0  2  0     2.000    352  382
            3  0  0  0     3.000    353  383
            2  1  0  0     3.000    354  384
            2  0  1  0     3.000    355  385
            1  2  0  0     3.000    356  386
            1  1  1  0     3.000    357  387
            1  0  2  0     3.000    358  388
            0  3  0  0     3.000    359  389
            0  2  1  0     3.000    360  390
            0  1  2  0     3.000    361  391
            0  0  3  0     3.000    362  392

 Total number of charge fitting functions (nprimf)      1213
 Total number of Cartesian basis functions (naos)        392
 Total number of Cartesian core functions  (ncos)          0

 ***************************************************************************************************



                                              ***********************
                                              *  T E C H N I C A L  *
                                              ***********************
  



 =============================================================
 P A R A L L E L I Z A T I O N  and  V E C T O R I Z A T I O N
 =============================================================
  
 Nr of parallel processes:                                1
 Maximum vector length in NumInt loops:                 128



 =====================
 S C F   U P D A T E S
 =====================
  
 Max. nr. of cycles:                               200
 Convergence criterion:                              0.0000010000
   secondary criterion:                              0.0010000000

 Mix parameter (when DIIS does not apply):           0.2000000000
 Mixed ADIIS+SDIIS will be used                  
    Max number of expansion vectors:                10
    Pure ADIIS when Max([F,P]) is above              0.1000000000
    Pure SDIIS when Max([F,P]) is below              0.0010000000
 Automatic ElectronSmearing (in case of problematic SCF convergence) disabled



 =================
 P R E C I S I O N  ***  (General: NumInt, NeglectFunctionTails, ...)  ***
 =================
  

 NumInt:           Target precision:                 4.0000000000
 -------           Initial precision:                4.0000000000
                   Min. precision (optimization):    4.0000000000

 Neglect Functions:          Basis functions:        0.1000000000E-05
 ------------------          Fit functions:          0.1000000000E-05



 ===========================
 L I N E A R   S C A L I N G
 ===========================
  

 Cut-off radii density fit:                        0.1000000000E-07
 Overlap cut-off criterion AO matrix elements:     0.1000000000E-05
 Cut-offs for Coulomb potential and fitted density:0.1000000000E-07
 Cut-off criterion for Coulomb multipole terms:    0.1000000000E-07
 Progressive Convergence parameter:                 0.000000000    
 ***************************************************************************************************



                                            ***************************
                                            *  C O M P U T A T I O N  *
                                            ***************************
  

 Number of elements of the density matrix on this node (used, total):     77028     77028



 ===========================================
 Numerical Integration : Fuzzy Cells (Becke)
 ===========================================
  
 Becke grid quality: NORMAL         
  
 Lebedev angular grid order:             min:  11 max:  23
 Nr. of radial points:                   min:  46 max:  67

 Total nr. of points:     113943
 Nr. of blocks:              891
 Block length:               128
 Nr. of dummy points:        105


 Test of Precision of the Numerical Integration Grid
 ===================================================

 Integral of the Total Core Density:                   0.00000000000000



 ========================
 Density Fitting (zlmFit)
 ========================
  
 ZlmFit Fit Quality: NORMAL         
  
 Max L-expansion:                        min:   6 max:   7
 Nr. of radial interpolation points:     min:  39 max:  60



 =====
 S C F  ***  ScaSCF  ***
 =====
  
 Initial density matrix is calculated as sum of fragments

 CYCLE    1
 SCF Error: norm([F,P])=      0.890898940834, max([F,P])=      0.525077096080
 orbitals (Q,E):
 ---------------
[...]
                                    2.51%    31 A             -10.716  2.00     2 fB
                                    2.38%    48 A               1.416  0.00     2 fB
                                    2.12%    30 A             -11.556  2.00     2 fB
                                    1.93%    51 A               2.977  0.00     2 fB
                                    1.93%    45 A               0.200  0.00     2 fB
                                    1.85%    58 A               5.379  0.00     2 fB
                                    1.42%    32 A              -9.284  2.00     2 fB
                                    1.25%    61 A               6.235  0.00     2 fB
                                    1.15%    55 A               4.565  0.00     2 fB
                                    1.06%    35 A              -7.466  2.00     2 fB
      -0.05692         6 A         15.03%    36 A              -7.387  2.00     2 fB
                                    9.26%    50 A               2.007  0.00     2 fB
                                    8.91%    37 A              -7.294  2.00     2 fB
                                    6.71%    43 A              -1.049  0.00     2 fB
                                    6.25%    54 A               4.414  0.00     2 fB
                                    6.20%    29 A             -11.615  2.00     2 fB
                                    6.11%     2 A             -15.175  2.00     1 fA
                                    5.16%    46 A               0.284  0.00     2 fB
                                    3.81%    24 A             -14.161  2.00     2 fB
                                    3.55%    31 A             -10.716  2.00     2 fB
                                    3.54%    39 A              -6.753  2.00     2 fB
                                    3.46%     7 A              22.094  0.00     1 fA
                                    2.32%    38 A              -6.953  2.00     2 fB
                                    1.72%     3 A               2.943  2.00     1 fA
                                    1.69%    66 A               7.911  0.00     2 fB
                                    1.69%    28 A             -12.493  2.00     2 fB
                                    1.59%    53 A               3.932  0.00     2 fB
                                    1.45%    49 A               1.791  0.00     2 fB
                                    1.19%    47 A               0.886  0.00     2 fB
                                    1.13%    35 A              -7.466  2.00     2 fB
                                    1.01%    25 A             -13.595  2.00     2 fB
       0.05692       340 A         12.00%    36 A              -7.387  2.00     2 fB
                                   10.67%    43 A              -1.049  0.00     2 fB
                                    9.34%    50 A               2.007  0.00     2 fB
                                    8.84%    37 A              -7.294  2.00     2 fB
                                    7.11%    29 A             -11.615  2.00     2 fB
                                    6.75%    54 A               4.414  0.00     2 fB
                                    5.89%    46 A               0.284  0.00     2 fB
                                    3.36%    39 A              -6.753  2.00     2 fB
                                    2.91%     7 A              22.094  0.00     1 fA
                                    2.68%    38 A              -6.953  2.00     2 fB
                                    2.24%    31 A             -10.716  2.00     2 fB
                                    2.04%    53 A               3.932  0.00     2 fB
                                    1.96%    66 A               7.911  0.00     2 fB
                                    1.89%    28 A             -12.493  2.00     2 fB
                                    1.88%     6 A               7.775  0.00     1 fA
                                   -1.72%     2 A             -15.175  2.00     1 fA
                                    1.53%    47 A               0.886  0.00     2 fB
                                    1.51%    49 A               1.791  0.00     2 fB
                                    1.40%    57 A               5.050  0.00     2 fB
                                    1.25%    35 A              -7.466  2.00     2 fB
                                    1.25%    32 A              -9.284  2.00     2 fB
                                    1.20%    55 A               4.565  0.00     2 fB
                                    1.17%    24 A             -14.161  2.00     2 fB
                                    1.12%     3 A               2.943  2.00     1 fA
                                    1.10%    52 A               3.518  0.00     2 fB
      -0.05218         7 A         18.12%    29 A             -11.615  2.00     2 fB
                                   14.89%     2 A             -15.175  2.00     1 fA
                                   10.71%    56 A               4.725  0.00     2 fB
                                    6.89%    31 A             -10.716  2.00     2 fB
                                    6.28%    44 A              -0.168  0.00     2 fB
                                    4.90%    52 A               3.518  0.00     2 fB
                                    4.08%    34 A              -8.136  2.00     2 fB
                                    3.85%    54 A               4.414  0.00     2 fB
                                    3.02%    33 A              -8.277  2.00     2 fB
                                    2.79%    30 A             -11.556  2.00     2 fB
                                    2.72%    23 A             -14.530  2.00     2 fB
                                    2.72%     6 A               7.775  0.00     1 fA
                                    2.66%    37 A              -7.294  2.00     2 fB
                                   -2.56%    42 A              -2.355  0.00     2 fB
                                    2.21%    62 A               6.583  0.00     2 fB
                                    1.73%     7 A              22.094  0.00     1 fA
                                    1.41%    65 A               7.547  0.00     2 fB
                                    1.37%    51 A               2.977  0.00     2 fB
                                    1.36%    17 A             -23.532  2.00     2 fB
                                    1.29%    36 A              -7.387  2.00     2 fB
                                    1.10%    47 A               0.886  0.00     2 fB
                                    1.06%    40 A              -6.171  2.00     2 fB
                                   -1.03%    15 A              55.390  0.00     1 fA
                                    1.00%    39 A              -6.753  2.00     2 fB
       0.05218       339 A         12.83%    29 A             -11.615  2.00     2 fB
                                   11.59%    56 A               4.725  0.00     2 fB
                                    9.59%     6 A               7.775  0.00     1 fA
                                    8.42%    44 A              -0.168  0.00     2 fB
                                    6.40%    43 A              -1.049  0.00     2 fB
                                    4.92%    34 A              -8.136  2.00     2 fB
                                   -4.74%     2 A             -15.175  2.00     1 fA
                                    4.42%    52 A               3.518  0.00     2 fB
                                    4.36%    33 A              -8.277  2.00     2 fB
                                    4.18%    31 A             -10.716  2.00     2 fB
                                    3.81%    54 A               4.414  0.00     2 fB
                                    3.66%    40 A              -6.171  2.00     2 fB
                                    3.25%    36 A              -7.387  2.00     2 fB
                                    2.51%    62 A               6.583  0.00     2 fB
                                    2.48%    37 A              -7.294  2.00     2 fB
                                    2.21%    51 A               2.977  0.00     2 fB
                                    1.75%    30 A             -11.556  2.00     2 fB
                                    1.74%     4 A               2.943  2.00     1 fA
                                    1.65%    47 A               0.886  0.00     2 fB
                                    1.53%    59 A               5.630  0.00     2 fB
                                    1.39%     7 A              22.094  0.00     1 fA
                                    1.38%    65 A               7.547  0.00     2 fB
                                    1.19%    66 A               7.911  0.00     2 fB
                                    1.05%    25 A             -13.595  2.00     2 fB
                                    1.02%    39 A              -6.753  2.00     2 fB
 Mulliken charges used for AMS results%charges...


    =====================
     CALCULATION RESULTS
    =====================

Energy (hartree)            -0.09109788


--------------
Atomic charges
--------------
  Index   Atom    Charge
      1      F   -0.6747
      2      C    0.2008
      3      C    0.4581
      4     Cl   -0.4821
      5      H    0.1660
      6      N    0.5988
      7      O   -0.4297
      8      O   -0.4001
      9      N   -0.1328
     10      H   -0.0749
     11      H   -0.0260
     12      N   -0.0699
     13      H   -0.0604
     14      H   -0.0575
     15      N    0.0915
     16      H   -0.0636
     17      H   -0.0436


Dipole moment vector    (Debye):     3.83292036    2.37709966   -3.48699338
              magnitude (Debye):     5.70096519


-----------------------
Molecular orbitals info
-----------------------
n orbitals:              345
n spin:                    1

Note: only printing virtual orbitals with
      energy smaller than HOMO + 100. eV

HOMO (eV):              -1.2246
LUMO (eV):               0.0500
HOMO-LUMO gap (eV):      1.2747

   Index   Energy (eV)    Occupation
     220       97.1223         0.000       
     219       96.7942         0.000       
     218       96.4005         0.000       
     217       95.5486         0.000       
     216       95.2917         0.000       
     215       94.6896         0.000       
     214       94.1733         0.000       
     213       93.6280         0.000       
     212       92.5252         0.000       
     211       91.2902         0.000       
     210       91.0948         0.000       
     209       90.3478         0.000       
     208       89.1783         0.000       
     207       88.8912         0.000       
     206       87.5847         0.000       
     205       87.0114         0.000       
     204       86.9627         0.000       
     203       86.1728         0.000       
     202       85.5717         0.000       
     201       84.9994         0.000       
     200       84.7865         0.000       
     199       84.0175         0.000       
     198       82.6928         0.000       
     197       81.2972         0.000       
     196       79.9528         0.000       
     195       79.7627         0.000       
     194       79.2589         0.000       
     193       78.3396         0.000       
     192       77.4392         0.000       
     191       76.1773         0.000       
     190       74.8968         0.000       
     189       74.0533         0.000       
     188       73.1133         0.000       
     187       72.7481         0.000       
     186       71.9309         0.000       
     185       69.9445         0.000       
     184       69.4643         0.000       
     183       68.8414         0.000       
     182       68.4436         0.000       
     181       67.9125         0.000       
     180       67.1344         0.000       
     179       66.3076         0.000       
     178       65.5998         0.000       
     177       64.7149         0.000       
     176       64.6259         0.000       
     175       64.2429         0.000       
     174       63.3499         0.000       
     173       62.6305         0.000       
     172       61.9214         0.000       
     171       61.1181         0.000       
     170       60.5261         0.000       
     169       59.9330         0.000       
     168       59.7615         0.000       
     167       58.9347         0.000       
     166       58.4162         0.000       
     165       57.5629         0.000       
     164       56.7693         0.000       
     163       56.3703         0.000       
     162       55.5842         0.000       
     161       55.3411         0.000       
     160       53.6137         0.000       
     159       52.5674         0.000       
     158       52.0857         0.000       
     157       51.6732         0.000       
     156       51.3931         0.000       
     155       50.3866         0.000       
     154       49.5468         0.000       
     153       49.0079         0.000       
     152       47.5024         0.000       
     151       47.0646         0.000       
     150       46.7546         0.000       
     149       46.5732         0.000       
     148       45.6645         0.000       
     147       45.2910         0.000       
     146       44.4761         0.000       
     145       43.9966         0.000       
     144       43.7541         0.000       
     143       43.6264         0.000       
     142       42.6665         0.000       
     141       42.2942         0.000       
     140       41.5476         0.000       
     139       41.1952         0.000       
     138       40.7228         0.000       
     137       40.3207         0.000       
     136       39.8722         0.000       
     135       39.7315         0.000       
     134       39.6376         0.000       
     133       38.8411         0.000       
     132       38.6906         0.000       
     131       38.6363         0.000       
     130       38.1660         0.000       
     129       38.0458         0.000       
     128       37.7751         0.000       
     127       37.5995         0.000       
     126       37.0929         0.000       
     125       36.7423         0.000       
     124       36.6462         0.000       
     123       35.9205         0.000       
     122       35.6519         0.000       
     121       35.3647         0.000       
     120       34.8271         0.000       
     119       34.2254         0.000       
     118       33.5384         0.000       
     117       33.0134         0.000       
     116       32.9712         0.000       
     115       31.9505         0.000       
     114       31.1890         0.000       
     113       30.9289         0.000       
     112       29.4376         0.000       
     111       29.0684         0.000       
     110       28.4375         0.000       
     109       27.7939         0.000       
     108       26.7406         0.000       
     107       26.2776         0.000       
     106       26.0798         0.000       
     105       25.0100         0.000       
     104       24.7284         0.000       
     103       24.3718         0.000       
     102       23.3885         0.000       
     101       23.1117         0.000       
     100       22.6510         0.000       
      99       22.0663         0.000       
      98       20.5214         0.000       
      97       20.1373         0.000       
      96       19.5609         0.000       
      95       19.5291         0.000       
      94       18.9988         0.000       
      93       18.5792         0.000       
      92       18.2103         0.000       
      91       17.8220         0.000       
      90       17.5572         0.000       
      89       17.3781         0.000       
      88       16.9600         0.000       
      87       16.7195         0.000       
      86       16.3070         0.000       
      85       16.1024         0.000       
      84       15.7510         0.000       
      83       15.5010         0.000       
      82       15.3635         0.000       
      81       14.6791         0.000       
      80       14.3697         0.000       
      79       14.0865         0.000       
      78       13.9602         0.000       
      77       13.5510         0.000       
      76       13.4151         0.000       
      75       12.8612         0.000       
      74       12.4671         0.000       
      73       12.3154         0.000       
      72       12.0630         0.000       
      71       11.9386         0.000       
      70       11.4541         0.000       
      69       11.3537         0.000       
      68       11.0960         0.000       
      67       10.6114         0.000       
      66       10.2452         0.000       
      65        9.9519         0.000       
      64        9.6275         0.000       
      63        9.2847         0.000       
      62        8.9881         0.000       
      61        8.5466         0.000       
      60        8.3833         0.000       
      59        8.1727         0.000       
      58        7.8659         0.000       
      57        7.8505         0.000       
      56        6.9659         0.000       
      55        6.2310         0.000       
      54        5.8726         0.000       
      53        5.4785         0.000       
      52        4.7169         0.000       
      51        4.5937         0.000       
      50        3.9964         0.000       
      49        3.5757         0.000       
      48        3.0518         0.000       
      47        2.3805         0.000       
      46        0.0500         0.000 < LUMO
      45       -1.2246         2.000 < HOMO
      44       -2.1701         2.000       
      43       -2.3652         2.000       
      42       -2.4323         2.000       
      41       -2.6233         2.000       
      40       -2.8257         2.000       
      39       -3.0536         2.000       
      38       -3.2198         2.000       
      37       -3.6361         2.000       
      36       -4.1842         2.000       
      35       -4.4323         2.000       
      34       -5.2662         2.000       
      33       -6.3447         2.000       
      32       -6.9723         2.000       
      31       -7.0169         2.000       
      30       -8.0683         2.000       
      29       -8.8735         2.000       
      28       -9.0529         2.000       
      27       -9.4694         2.000       
      26       -9.9214         2.000       
      25      -10.1745         2.000       
      24      -10.7893         2.000       
      23      -12.8361         2.000       
      22      -14.8115         2.000       
      21      -15.8362         2.000       
      20      -17.2550         2.000       
      19      -18.9316         2.000       
      18      -20.4829         2.000       
      17      -21.1746         2.000       
      16      -23.1120         2.000       
      15      -27.4978         2.000       
      14     -185.0754         2.000       
      13     -185.0792         2.000       
      12     -185.2349         2.000       
      11     -246.0784         2.000       
      10     -267.3439         2.000       
       9     -269.6476         2.000       
       8     -377.3525         2.000       
       7     -377.4763         2.000       
       6     -378.5929         2.000       
       5     -384.2931         2.000       
       4     -509.0545         2.000       
       3     -509.1013         2.000       
       2     -653.7159         2.000       
       1    -2745.3316         2.000       

AMS application finished. Exiting.
NORMAL TERMINATION
     Total cpu time:     138.33
  Total system time:       0.46
 Total elapsed time:     139.22
NORMAL TERMINATION
