
 *******************************************************************************
 *                                                                             *
 *  --------------------------------                                           *
 *   Amsterdam Modeling Suite (AMS)              2026.103                      *
 *  --------------------------------                                           *
 *                                               r260501 2026-05-01 873454b5   *
 *                                                                             *
 *                                                                             *
 *                              =================                              *
 *                              |               |                              *
 *                              |     A M S     |                              *
 *                              |               |                              *
 *                              =================                              *
 *                                                                             *
 *                                                                             *
 *   Online information and documentation:  https://www.scm.com/support/       *
 *   E-mail:  support@scm.com   info@scm.com                                   *
 *                                                                             *
 *   Scientific publications using AMS results must be properly referenced     *
 *   See the User Manuals (or the web site) for recommended citations          *
 *   The terms and conditions of the End User License Agreement apply to       *
 *   the use of AMS, https://www.scm.com/license-terms/                        *
 *                                                                             *
 **********************  x86_64_linux_intel / intelmpi  ************************
 
 Licensed to: Jong-June Jeon / University of Seoul 2026-06-02 13:44:15
 SCM User ID: u30731
  
 AMS 2026.103  RunTime: Jun04-2026 02:13:57  ShM Nodes: 1  Procs: 1

 AMS jobname: c5_fragB_opt
 AMS jobid  : 969838209

 Start   directory: /gpfs/home1/yeseo1ee/projects/eda-asm-prediction/ADF_800/adf_outputs/batch_007/qmrxn20_sn2_E_A_C_E_B_B/
 Results directory: /gpfs/home1/yeseo1ee/projects/eda-asm-prediction/ADF_800/adf_outputs/batch_007/qmrxn20_sn2_E_A_C_E_B_B/c5_fragB_opt.results/
 Scratch directory: /tmp/amstmp_c5_fragB_opt_kid0.969838209/

 RNG seed: 1767816971 -1939125191 1024573843 -1491957977 -1690093170 -1435556136 1353676747 2082473717



                      ************************************************************************
                      *  ADF 2026.103  RunTime: Jun04-2026 02:13:57  ShM Nodes: 1  Procs: 1  *
                      ************************************************************************
  

       ***************************
       *  GEOMETRY OPTIMIZATION  *
       ***************************

Optimization Method                    Quasi Newton
Optimization Coordinates               Delocalized Coordinates
Optimize lattice                       F
 
 ------------------------------------------------------
 Convergence criteria (Hartree,Angstrom)
 ------------------------------------------------------
 Maximum gradient               0.000100000000
 Maximum rms gradient           0.000066666667
 Maximum step allowed           0.010000000000
 Maximum rms step allowed       0.006666666667
 Maximum energy change allowe   0.000130000000
 Maximum stress energy allowe   0.000500000000
 
Initial model Hessian                  Automatic Hessian
 
------------------------------------
Quasi-Newton Optimizer Parameters
------------------------------------
Hessian Update Method                  BFGS
Maximum number of steps                  200
First GDIIS cycle                          0
Maximum GDIIS vectors                      0
Trust radius (bohr)                        0.200000
Trust radius varies                        T
Constraints converged at all steps         T
Use projector                              T
 
 Rigid motions settings for: old optimizer
 Atomic rotations (x,y,z):     T T T
 Atomic translations (x,y,z):  T T T
 Tolerance:                  1.000000000000000E-006

--------
Geometry
--------
Formula: C3H6FN3
Atoms
  Index Symbol   x (angstrom)   y (angstrom)   z (angstrom)
      1      C     0.32566043    -0.14817034    -0.06018487
      2      H     1.70119625     1.29810216    -0.02070339
      3      F     2.43472183    -0.45167878     0.46257654
      4      C     0.60370884     1.32898419    -0.01903105
      5      H     0.34579120    -0.71969703     0.84500351
      6      N     0.49964103    -0.76436013    -1.23443633
      7      H     1.10288526    -1.56311106    -1.12324239
      8      H     0.76576892    -0.12726987    -1.97073058
      9      C     0.18494946     1.97774954     1.23210014
     10      N    -0.07882155     2.62165388     2.17855593
     11      N     0.10206396     1.97369384    -1.22536926
     12      H     0.40891145     2.93787817    -1.24446183
     13      H    -0.91288607     1.94703525    -1.18352530

Total System Charge              0.00000


----------------
ADF Engine Input
----------------
 
   Basis
     Type TZ2P
     Core None
   End
   XC
     GGA BLYP
     Dispersion GRIMME3 BJDAMP
   End
   Symmetry NOSYM
   NumericalQuality Normal
   Unrestricted No
   SCF
     Iterations 200
     Converge 1.0e-6
   End
   Save TAPE21
 

 Title: *** (NO TITLE) ***

 Using automatic Hessian for delocalized coordinates.
 *** GO1_GOStep1 ***

 Energy gradients wrt nuclear displacements
 ==========================================

     Atom      Cartesian (a.u./angstrom)
                 X         Y         Z
 ----------------------------------------
     1 C    -0.114596  0.020935  0.014320
     2 H    -0.009631 -0.001899 -0.001507
     3 F     0.025834 -0.000007 -0.001404
     4 C     0.027834 -0.010463 -0.009424
     5 H     0.022306  0.013385 -0.014028
     6 N     0.032454 -0.021393 -0.030422
     7 H     0.000215  0.031103  0.007060
     8 H    -0.000840 -0.009662  0.020736
     9 C     0.009073 -0.034826 -0.050315
    10 N    -0.006524  0.029731  0.040391
    11 N     0.003343  0.008830  0.009785
    12 H    -0.000540 -0.012870  0.005823
    13 H     0.011073 -0.012864  0.008985
 ----------------------------------------
 
----------------------------------------------------------------------
Geometry Convergence after Step   1       (Hartree/Angstrom,Angstrom)
----------------------------------------------------------------------
current energy                               -2.66483023 Hartree
energy change                      -2.66483023     0.00013000    F
constrained gradient max            0.11460932     0.00010000    F
constrained gradient rms            0.02655723     0.00006667    F
gradient max                        0.11460932
gradient rms                        0.02655723
cart. step max                      0.03816508     0.01000000    F
cart. step rms                      0.01353174     0.00666667    F
 

--------
Geometry
--------
Formula: C3H6FN3
Atoms
  Index Symbol   x (angstrom)   y (angstrom)   z (angstrom)
      1      C     0.35583751    -0.15699655    -0.05011976
      2      H     1.70647040     1.30157046    -0.01302793
      3      F     2.44036736    -0.45598422     0.46386625
      4      C     0.60342257     1.33174902    -0.00937665
      5      H     0.35974977    -0.73703198     0.85857714
      6      N     0.49666502    -0.76655780    -1.22360473
      7      H     1.09539488    -1.58334279    -1.12603781
      8      H     0.74956312    -0.12884431    -1.97773632
      9      C     0.18778858     1.97407523     1.25051473
     10      N    -0.09021747     2.60958877     2.17328635
     11      N     0.09645084     1.98613564    -1.22708465
     12      H     0.40668662     2.95504178    -1.26101511
     13      H    -0.92458818     1.98140657    -1.22169038

Total System Charge              0.00000

 *** GO1_GOStep2 ***

 Energy gradients wrt nuclear displacements
 ==========================================

     Atom      Cartesian (a.u./angstrom)
                 X         Y         Z
 ----------------------------------------
     1 C    -0.104665  0.012666 -0.001522
     2 H    -0.003425 -0.005426  0.000261
     3 F     0.027018 -0.001358 -0.000635
     4 C     0.026945 -0.012717 -0.002584
     5 H     0.020707  0.005782 -0.005523
     6 N     0.015920 -0.010933 -0.010795
     7 H     0.009717  0.016835  0.009959
     8 H     0.002348 -0.000045  0.008098
     9 C    -0.007584  0.010235  0.022300
    10 N     0.011161 -0.013678 -0.025341
    11 N     0.001412  0.007535  0.002128
    12 H    -0.001909 -0.002616  0.002252
    13 H     0.002355 -0.006280  0.001401
 ----------------------------------------

 dE(predicted):    -0.49513E-02, dE(actual):    -0.54000E-02, Trust radius:    0.400000, all in a.u.
 
----------------------------------------------------------------------
Geometry Convergence after Step   2       (Hartree/Angstrom,Angstrom)
----------------------------------------------------------------------
current energy                               -2.67023023 Hartree
energy change                      -0.00540000     0.00013000    F
constrained gradient max            0.10465189     0.00010000    F
constrained gradient rms            0.02028947     0.00006667    F
gradient max                        0.10465189
gradient rms                        0.02028947
cart. step max                      0.06199859     0.01000000    F
cart. step rms                      0.01930081     0.00666667    F
 

--------
Geometry
--------
Formula: C3H6FN3
Atoms
  Index Symbol   x (angstrom)   y (angstrom)   z (angstrom)
      1      C     0.41783611    -0.16584995    -0.03708579
      2      H     1.71535762     1.31757677    -0.00448080
      3      F     2.44613244    -0.45922499     0.46320810
      4      C     0.60466098     1.34015810     0.00200798
      5      H     0.37883134    -0.75585712     0.87490008
      6      N     0.49288931    -0.76808576    -1.21211768
      7      H     1.07074421    -1.61560307    -1.14208877
      8      H     0.72047030    -0.13844602    -1.99449544
      9      C     0.18304990     1.97528846     1.26802666
     10      N    -0.12337507     2.60490033     2.19446942
     11      N     0.09391153     1.99275584    -1.23189394
     12      H     0.41427731     2.96371683    -1.28658896
     13      H    -0.93119497     2.01948040    -1.25730976

Total System Charge              0.00000

 *** GO1_GOStep3 ***

 Energy gradients wrt nuclear displacements
 ==========================================

     Atom      Cartesian (a.u./angstrom)
                 X         Y         Z
 ----------------------------------------
     1 C    -0.088297  0.004954 -0.022284
     2 H     0.004136 -0.011507  0.000792
     3 F     0.030091 -0.004150  0.001443
     4 C     0.017183 -0.009864  0.003859
     5 H     0.017545 -0.003584  0.004643
     6 N    -0.000303  0.003384  0.011572
     7 H     0.018903  0.001262  0.012062
     8 H     0.004452  0.008080 -0.005863
     9 C     0.001045 -0.001688  0.007489
    10 N     0.003087  0.001865 -0.002867
    11 N    -0.000264  0.003585 -0.004216
    12 H    -0.003076  0.006910 -0.000966
    13 H    -0.004501  0.000754 -0.005665
 ----------------------------------------

 dE(predicted):    -0.61668E-02, dE(actual):    -0.69824E-02, Trust radius:    0.800000, all in a.u.
 
----------------------------------------------------------------------
Geometry Convergence after Step   3       (Hartree/Angstrom,Angstrom)
----------------------------------------------------------------------
current energy                               -2.67721264 Hartree
energy change                      -0.00698241     0.00013000    F
constrained gradient max            0.08827342     0.00010000    F
constrained gradient rms            0.01689669     0.00006667    F
gradient max                        0.08827342
gradient rms                        0.01689669
cart. step max                      0.12152074     0.01000000    F
cart. step rms                      0.03267746     0.00666667    F
 

--------
Geometry
--------
Formula: C3H6FN3
Atoms
  Index Symbol   x (angstrom)   y (angstrom)   z (angstrom)
      1      C     0.53935685    -0.16962735    -0.01324331
      2      H     1.73477737     1.36891500     0.01376588
      3      F     2.44646699    -0.45869768     0.46019093
      4      C     0.61521913     1.36010709     0.02029473
      5      H     0.40343582    -0.76536081     0.89589214
      6      N     0.48566452    -0.75908011    -1.19848491
      7      H     1.00022898    -1.65744278    -1.18934630
      8      H     0.66820540    -0.14955805    -2.01527384
      9      C     0.15743265     1.98490208     1.28050782
     10      N    -0.18502179     2.58514096     2.20899377
     11      N     0.10206942     1.98102153    -1.23566434
     12      H     0.43979438     2.94774848    -1.32160573
     13      H    -0.92403871     2.04274147    -1.26947571

Total System Charge              0.00000

 *** GO1_GOStep4 ***

 Energy gradients wrt nuclear displacements
 ==========================================

     Atom      Cartesian (a.u./angstrom)
                 X         Y         Z
 ----------------------------------------
     1 C    -0.062260  0.003332 -0.036799
     2 H     0.013951 -0.021190 -0.000561
     3 F     0.035508 -0.009155  0.005935
     4 C    -0.007109  0.003005  0.009382
     5 H     0.011651 -0.011828  0.013226
     6 N    -0.009779  0.019235  0.026233
     7 H     0.023761 -0.012771  0.010202
     8 H     0.003429  0.009998 -0.017383
     9 C    -0.005030  0.011935  0.025198
    10 N     0.007469 -0.006964 -0.015369
    11 N    -0.000670 -0.003263 -0.008449
    12 H    -0.003169  0.011826 -0.002402
    13 H    -0.007751  0.005838 -0.009212
 ----------------------------------------

 dE(predicted):    -0.97189E-02, dE(actual):    -0.11348E-01, Trust radius:    1.000000, all in a.u.
 
----------------------------------------------------------------------
Geometry Convergence after Step   4       (Hartree/Angstrom,Angstrom)
----------------------------------------------------------------------
current energy                               -2.68856026 Hartree
energy change                      -0.01134763     0.00013000    F
constrained gradient max            0.06226596     0.00010000    F
constrained gradient rms            0.01741150     0.00006667    F
gradient max                        0.06226596
gradient rms                        0.01741150
cart. step max                      0.15662541     0.01000000    F
cart. step rms                      0.04376039     0.00666667    F
 

--------
Geometry
--------
Formula: C3H6FN3
Atoms
  Index Symbol   x (angstrom)   y (angstrom)   z (angstrom)
      1      C     0.69598226    -0.17463472     0.01437348
      2      H     1.76317515     1.45360010     0.03760255
      3      F     2.44217395    -0.45392162     0.44467727
      4      C     0.64142950     1.37619715     0.03656712
      5      H     0.43222437    -0.76013657     0.90769444
      6      N     0.47200384    -0.74360399    -1.18122882
      7      H     0.88061815    -1.69217629    -1.25308697
      8      H     0.60703963    -0.15085990    -2.01530043
      9      C     0.12413806     1.98885083     1.27803559
     10      N    -0.27492525     2.56446233     2.20288779
     11      N     0.12653603     1.95682578    -1.23265223
     12      H     0.47188143     2.91790353    -1.34451484
     13      H    -0.89868611     2.02830320    -1.25850384

Total System Charge              0.00000

 *** GO1_GOStep5 ***

 Energy gradients wrt nuclear displacements
 ==========================================

     Atom      Cartesian (a.u./angstrom)
                 X         Y         Z
 ----------------------------------------
     1 C    -0.029748  0.010211 -0.035506
     2 H     0.022514 -0.027568 -0.002024
     3 F     0.042013 -0.013881  0.013483
     4 C    -0.037566  0.012123  0.009377
     5 H     0.004438 -0.015076  0.013990
     6 N    -0.014293  0.027256  0.023576
     7 H     0.020209 -0.019516  0.003608
     8 H    -0.000464  0.005571 -0.018102
     9 C    -0.003332  0.011672  0.016765
    10 N     0.003966 -0.002246 -0.006719
    11 N     0.001444 -0.006140 -0.008239
    12 H    -0.002110  0.010902 -0.002137
    13 H    -0.007072  0.006693 -0.008074
 ----------------------------------------

 dE(predicted):    -0.11665E-01, dE(actual):    -0.12771E-01, Trust radius:    1.000000, all in a.u.
 
----------------------------------------------------------------------
Geometry Convergence after Step   5       (Hartree/Angstrom,Angstrom)
----------------------------------------------------------------------
current energy                               -2.70133147 Hartree
energy change                      -0.01277121     0.00013000    F
constrained gradient max            0.04206429     0.00010000    F
constrained gradient rms            0.01702433     0.00006667    F
gradient max                        0.04206429
gradient rms                        0.01702433
cart. step max                      0.15866001     0.01000000    F
cart. step rms                      0.04828692     0.00666667    F
 

--------
Geometry
--------
Formula: C3H6FN3
Atoms
  Index Symbol   x (angstrom)   y (angstrom)   z (angstrom)
      1      C     0.85464227    -0.18301628     0.03417687
      2      H     1.79143750     1.56386994     0.06341279
      3      F     2.42619069    -0.44397541     0.41779676
      4      C     0.68168689     1.38279900     0.04554526
      5      H     0.44720480    -0.73204590     0.89921610
      6      N     0.45852897    -0.72840569    -1.16262996
      7      H     0.72651376    -1.71100267    -1.30524594
      8      H     0.57565342    -0.14184496    -1.99221248
      9      C     0.09170138     1.98065498     1.25932810
     10      N    -0.35808599     2.53686941     2.17538534
     11      N     0.15869212     1.92616048    -1.22288724
     12      H     0.49416831     2.88462058    -1.35004721
     13      H    -0.86474311     1.97612635    -1.22528726

Total System Charge              0.00000

 *** GO1_GOStep6 ***

 Energy gradients wrt nuclear displacements
 ==========================================

     Atom      Cartesian (a.u./angstrom)
                 X         Y         Z
 ----------------------------------------
     1 C     0.008903  0.017049 -0.031949
     2 H     0.026943 -0.024859 -0.003110
     3 F     0.046112 -0.016027  0.022895
     4 C    -0.062874  0.011708  0.004180
     5 H    -0.005690 -0.013251  0.007932
     6 N    -0.016633  0.023055  0.011936
     7 H     0.009083 -0.015653 -0.003654
     8 H    -0.004205 -0.000433 -0.007535
     9 C    -0.003917  0.012709  0.005353
    10 N     0.002217  0.001225  0.000339
    11 N     0.004159 -0.004564 -0.002973
    12 H    -0.000758  0.004780 -0.000367
    13 H    -0.003339  0.004260 -0.003048
 ----------------------------------------
 Rebuilding optimization coordinates
Challenging geometry: could not add a dihedral for atom   10

 dE(predicted):    -0.10677E-01, dE(actual):    -0.11376E-01, Trust radius:    1.000000, all in a.u.
 
----------------------------------------------------------------------
Geometry Convergence after Step   6       (Hartree/Angstrom,Angstrom)
----------------------------------------------------------------------
current energy                               -2.71270773 Hartree
energy change                      -0.01137626     0.00013000    F
constrained gradient max            0.06287717     0.00010000    F
constrained gradient rms            0.01733342     0.00006667    F
gradient max                        0.06287717
gradient rms                        0.01733342
cart. step max                      0.21016119     0.01000000    F
cart. step rms                      0.06605583     0.00666667    F
 

--------
Geometry
--------
Formula: C3H6FN3
Atoms
  Index Symbol   x (angstrom)   y (angstrom)   z (angstrom)
      1      C     0.99633565    -0.17580187     0.03964446
      2      H     1.83755172     1.70110124     0.08547768
      3      F     2.41329309    -0.42814802     0.34306929
      4      C     0.75767073     1.40415729     0.03847034
      5      H     0.46579807    -0.63816186     0.88915763
      6      N     0.42955990    -0.72169275    -1.12746566
      7      H     0.51635257    -1.72471596    -1.27513548
      8      H     0.56738018    -0.16592389    -1.96449469
      9      C     0.10120339     1.95918474     1.23867073
     10      N    -0.50917289     2.38565057     2.13313322
     11      N     0.20519632     1.91534506    -1.21758260
     12      H     0.51726579     2.87447463    -1.36141647
     13      H    -0.81484350     1.92534062    -1.18497734

Total System Charge              0.00000

 *** GO1_GOStep7 ***

 Energy gradients wrt nuclear displacements
 ==========================================

     Atom      Cartesian (a.u./angstrom)
                 X         Y         Z
 ----------------------------------------
     1 C     0.074368  0.007953 -0.028123
     2 H     0.024452 -0.013205  0.001562
     3 F     0.010772 -0.006517  0.020724
     4 C    -0.073794  0.001769 -0.003571
     5 H    -0.017697 -0.004372 -0.002991
     6 N    -0.019307  0.002481  0.002486
     7 H    -0.003449 -0.003264 -0.006274
     8 H    -0.004890 -0.001778  0.006829
     9 C     0.009380  0.020987 -0.000623
    10 N    -0.004769 -0.001331  0.002997
    11 N     0.002675 -0.001908  0.003285
    12 H     0.000941 -0.002290  0.001787
    13 H     0.001318  0.001475  0.001911
 ----------------------------------------

 dE(predicted):    -0.80792E-02, dE(actual):    -0.49137E-02, Trust radius:    1.000000, all in a.u.
 
----------------------------------------------------------------------
Geometry Convergence after Step   7       (Hartree/Angstrom,Angstrom)
----------------------------------------------------------------------
current energy                               -2.71762140 Hartree
energy change                      -0.00491366     0.00013000    F
constrained gradient max            0.07449325     0.00010000    F
constrained gradient rms            0.01939543     0.00006667    F
gradient max                        0.07448231
gradient rms                        0.01939544
cart. step max                      0.21221090     0.01000000    F
cart. step rms                      0.06204908     0.00666667    F
 

--------
Geometry
--------
Formula: C3H6FN3
Atoms
  Index Symbol   x (angstrom)   y (angstrom)   z (angstrom)
      1      C     0.78412475    -0.15632009     0.01019002
      2      H     1.79844081     1.61151980     0.07588345
      3      F     2.42634117    -0.41926459     0.35319088
      4      C     0.70962543     1.40379085     0.02779025
      5      H     0.45129654    -0.67402934     0.90648402
      6      N     0.44907095    -0.76842050    -1.16725179
      7      H     0.69313345    -1.74902197    -1.22450978
      8      H     0.62022575    -0.21918015    -2.00935872
      9      C     0.07469202     1.92675540     1.25416382
     10      N    -0.36977330     2.46384672     2.18614088
     11      N     0.17969019     1.96827896    -1.22344739
     12      H     0.50863289     2.92713673    -1.34145626
     13      H    -0.84190963     1.99571802    -1.21126827

Total System Charge              0.00000

 *** GO1_GOStep8 ***

 Energy gradients wrt nuclear displacements
 ==========================================

     Atom      Cartesian (a.u./angstrom)
                 X         Y         Z
 ----------------------------------------
     1 C    -0.044000  0.017730 -0.009948
     2 H     0.015318 -0.013824 -0.002485
     3 F     0.044444 -0.011891  0.012452
     4 C    -0.023481  0.020236  0.004388
     5 H     0.005831 -0.003389  0.000234
     6 N     0.002975 -0.018224 -0.006338
     7 H     0.002638  0.005273  0.001994
     8 H    -0.002014  0.001516 -0.001791
     9 C    -0.005317 -0.008111 -0.004283
    10 N     0.002167  0.007260  0.005513
    11 N     0.001985  0.001749 -0.000145
    12 H    -0.000103  0.000918 -0.000044
    13 H    -0.000443  0.000758  0.000452
 ----------------------------------------

 dE(predicted):    -0.76041E-02, dE(actual):     0.29069E-02, Trust radius:    0.229423, all in a.u.
 
----------------------------------------------------------------------
Geometry Convergence after Step   8       (Hartree/Angstrom,Angstrom)
----------------------------------------------------------------------
current energy                               -2.71471451 Hartree
energy change                       0.00290689     0.00013000    F
constrained gradient max            0.04450461     0.00010000    F
constrained gradient rms            0.01312368     0.00006667    F
gradient max                        0.04452155
gradient rms                        0.01312369
cart. step max                      0.07909132     0.01000000    F
cart. step rms                      0.02950396     0.00666667    F
 

--------
Geometry
--------
Formula: C3H6FN3
Atoms
  Index Symbol   x (angstrom)   y (angstrom)   z (angstrom)
      1      C     0.83234120    -0.15328411     0.02879282
      2      H     1.82122641     1.66152389     0.08429707
      3      F     2.41118821    -0.42104442     0.33593442
      4      C     0.74546552     1.41052726     0.03261754
      5      H     0.46940865    -0.65552554     0.92269879
      6      N     0.43160103    -0.73691850    -1.15300389
      7      H     0.61404213    -1.73018471    -1.24677788
      8      H     0.60439415    -0.18055431    -1.98704674
      9      C     0.09359354     1.93672313     1.24881081
     10      N    -0.43164745     2.40735241     2.17319666
     11      N     0.20195963     1.93659388    -1.22642738
     12      H     0.50894463     2.89882587    -1.36442792
     13      H    -0.81892664     1.93677497    -1.21211317

Total System Charge              0.00000

 *** GO1_GOStep9 ***

 Energy gradients wrt nuclear displacements
 ==========================================

     Atom      Cartesian (a.u./angstrom)
                 X         Y         Z
 ----------------------------------------
     1 C    -0.036597  0.016262 -0.007213
     2 H     0.011945 -0.009961  0.000036
     3 F     0.037996 -0.010009  0.012847
     4 C    -0.023250  0.014471 -0.000235
     5 H     0.006553 -0.002702 -0.000211
     6 N     0.000665 -0.008550 -0.008689
     7 H     0.001290  0.001144 -0.001497
     8 H    -0.002497 -0.000128  0.001009
     9 C     0.000953  0.000849 -0.000843
    10 N     0.000347  0.002314  0.002160
    11 N     0.001305 -0.002835  0.001359
    12 H     0.000401 -0.001086  0.000537
    13 H     0.000890  0.000231  0.000740
 ----------------------------------------

 dE(predicted):    -0.39791E-02, dE(actual):    -0.49509E-02, Trust radius:    0.458846, all in a.u.
 
----------------------------------------------------------------------
Geometry Convergence after Step   9       (Hartree/Angstrom,Angstrom)
----------------------------------------------------------------------
current energy                               -2.71966539 Hartree
energy change                      -0.00495087     0.00013000    F
constrained gradient max            0.03810549     0.00010000    F
constrained gradient rms            0.01085490     0.00006667    F
gradient max                        0.03811041
gradient rms                        0.01085490
cart. step max                      0.14544495     0.01000000    F
cart. step rms                      0.04458306     0.00666667    F
 

--------
Geometry
--------
Formula: C3H6FN3
Atoms
  Index Symbol   x (angstrom)   y (angstrom)   z (angstrom)
      1      C     0.93370967    -0.16076008     0.04911993
      2      H     1.84355221     1.76390555     0.09319422
      3      F     2.37884181    -0.41972613     0.29926168
      4      C     0.80423722     1.41367871     0.02955365
      5      H     0.49449534    -0.61321326     0.94088283
      6      N     0.41444105    -0.71155530    -1.12305067
      7      H     0.46859717    -1.71710376    -1.25382190
      8      H     0.59354906    -0.16266119    -1.95722127
      9      C     0.08387845     1.89810817     1.22721603
     10      N    -0.49618237     2.33553936     2.13502322
     11      N     0.24271106     1.92273412    -1.22747136
     12      H     0.49702921     2.90051972    -1.35602232
     13      H    -0.77526889     1.86134390    -1.22011293

Total System Charge              0.00000

 *** GO1_GOStep10 ***

 Energy gradients wrt nuclear displacements
 ==========================================

     Atom      Cartesian (a.u./angstrom)
                 X         Y         Z
 ----------------------------------------
     1 C     0.005384  0.002867 -0.003358
     2 H     0.003775 -0.002513 -0.002195
     3 F     0.001762 -0.000182  0.011344
     4 C    -0.008607  0.005835 -0.006820
     5 H     0.003629 -0.001494 -0.000221
     6 N    -0.000542  0.000178 -0.003272
     7 H    -0.003221 -0.001826 -0.006434
     8 H    -0.003238 -0.000331  0.005055
     9 C    -0.002821 -0.002588 -0.002090
    10 N     0.001236  0.002746  0.001332
    11 N     0.000314 -0.000481  0.005025
    12 H     0.000392 -0.002355  0.000044
    13 H     0.001937  0.000144  0.001589
 ----------------------------------------

 dE(predicted):    -0.64626E-02, dE(actual):    -0.49764E-02, Trust radius:    0.917692, all in a.u.
 
----------------------------------------------------------------------
Geometry Convergence after Step  10       (Hartree/Angstrom,Angstrom)
----------------------------------------------------------------------
current energy                               -2.72464179 Hartree
energy change                      -0.00497640     0.00013000    F
constrained gradient max            0.01125753     0.00010000    F
constrained gradient rms            0.00373925     0.00006667    F
gradient max                        0.01125236
gradient rms                        0.00373926
cart. step max                      0.11283323     0.01000000    F
cart. step rms                      0.03164125     0.00666667    F
 

--------
Geometry
--------
Formula: C3H6FN3
Atoms
  Index Symbol   x (angstrom)   y (angstrom)   z (angstrom)
      1      C     0.94066648    -0.14601036     0.04147626
      2      H     1.86146546     1.79451856     0.08960001
      3      F     2.38233659    -0.40960784     0.25436585
      4      C     0.83158098     1.42982809     0.02156811
      5      H     0.50299787    -0.57081730     0.94854772
      6      N     0.39695240    -0.72433630    -1.10705167
      7      H     0.41674296    -1.73226566    -1.18964740
      8      H     0.58930103    -0.21289188    -1.96295613
      9      C     0.11238764     1.90197825     1.22621062
     10      N    -0.56469686     2.22270612     2.11521172
     11      N     0.26373941     1.95114411    -1.23040367
     12      H     0.50335598     2.93505973    -1.34218549
     13      H    -0.75323893     1.87150430    -1.22818483

Total System Charge              0.00000

 *** GO1_GOStep11 ***

 Energy gradients wrt nuclear displacements
 ==========================================

     Atom      Cartesian (a.u./angstrom)
                 X         Y         Z
 ----------------------------------------
     1 C     0.003460  0.001609 -0.006582
     2 H    -0.001819  0.001203  0.000556
     3 F    -0.001435  0.002481  0.008007
     4 C    -0.004175 -0.002046 -0.004557
     5 H     0.000984  0.000193  0.000440
     6 N     0.001894 -0.014510 -0.003185
     7 H    -0.003855  0.003269 -0.003907
     8 H    -0.002665  0.002169  0.004219
     9 C     0.010207  0.008127  0.000605
    10 N    -0.004013 -0.003701 -0.000792
    11 N    -0.000937  0.002951  0.003980
    12 H     0.000678 -0.001668  0.000326
    13 H     0.001677 -0.000077  0.000889
 ----------------------------------------

 dE(predicted):    -0.67564E-03, dE(actual):    -0.38475E-03, Trust radius:    0.917692, all in a.u.
 
----------------------------------------------------------------------
Geometry Convergence after Step  11       (Hartree/Angstrom,Angstrom)
----------------------------------------------------------------------
current energy                               -2.72502654 Hartree
energy change                      -0.00038475     0.00013000    F
constrained gradient max            0.01453036     0.00010000    F
constrained gradient rms            0.00425717     0.00006667    F
gradient max                        0.01452769
gradient rms                        0.00425718
cart. step max                      0.03416584     0.01000000    F
cart. step rms                      0.01425993     0.00666667    F
 

--------
Geometry
--------
Formula: C3H6FN3
Atoms
  Index Symbol   x (angstrom)   y (angstrom)   z (angstrom)
      1      C     0.93867272    -0.13854799     0.03697884
      2      H     1.85872742     1.80650501     0.11761408
      3      F     2.38262197    -0.40523245     0.23772066
      4      C     0.83222171     1.43501436     0.02823809
      5      H     0.49937772    -0.56622285     0.94311899
      6      N     0.39160561    -0.71037724    -1.11024592
      7      H     0.39620715    -1.72255401    -1.17012777
      8      H     0.60365837    -0.21548839    -1.97438579
      9      C     0.09252686     1.88188182     1.23172230
     10      N    -0.53826312     2.22794834     2.14458090
     11      N     0.27437650     1.94313956    -1.23829228
     12      H     0.49338048     2.93342052    -1.34802031
     13      H    -0.74152239     1.84132317    -1.26235067

Total System Charge              0.00000

 *** GO1_GOStep12 ***

 Energy gradients wrt nuclear displacements
 ==========================================

     Atom      Cartesian (a.u./angstrom)
                 X         Y         Z
 ----------------------------------------
     1 C    -0.000293  0.000197 -0.007817
     2 H    -0.000224  0.000624  0.001383
     3 F    -0.000715  0.002906  0.006697
     4 C     0.004609  0.002854 -0.001042
     5 H    -0.000576  0.000657  0.001340
     6 N     0.002815 -0.007856 -0.000026
     7 H    -0.003400 -0.000517 -0.001307
     8 H    -0.002065  0.004325 -0.000125
     9 C     0.003253 -0.000044  0.001489
    10 N    -0.000399 -0.001106  0.000224
    11 N    -0.003544 -0.002439  0.000371
    12 H     0.000830 -0.000165 -0.000235
    13 H    -0.000290  0.000564 -0.000953
 ----------------------------------------

 dE(predicted):    -0.47800E-03, dE(actual):    -0.56236E-03, Trust radius:    0.917692, all in a.u.
 
----------------------------------------------------------------------
Geometry Convergence after Step  12       (Hartree/Angstrom,Angstrom)
----------------------------------------------------------------------
current energy                               -2.72558890 Hartree
energy change                      -0.00056236     0.00013000    F
constrained gradient max            0.00786939     0.00010000    F
constrained gradient rms            0.00273377     0.00006667    F
gradient max                        0.00786868
gradient rms                        0.00273377
cart. step max                      0.02425777     0.01000000    F
cart. step rms                      0.01077674     0.00666667    F
 

--------
Geometry
--------
Formula: C3H6FN3
Atoms
  Index Symbol   x (angstrom)   y (angstrom)   z (angstrom)
      1      C     0.93789772    -0.13848377     0.03364129
      2      H     1.84968741     1.80847302     0.12764028
      3      F     2.38903000    -0.40126014     0.21346290
      4      C     0.82694427     1.43154095     0.02845174
      5      H     0.50969110    -0.57164516     0.94196692
      6      N     0.38393992    -0.70839966    -1.10857946
      7      H     0.38345146    -1.72265479    -1.14638798
      8      H     0.61334392    -0.23492884    -1.98021441
      9      C     0.07785270     1.86940932     1.22926546
     10      N    -0.53224367     2.23867973     2.14694449
     11      N     0.28536215     1.95400891    -1.24035476
     12      H     0.48697908     2.95082233    -1.32650380
     13      H    -0.72834506     1.83524792    -1.28278154

Total System Charge              0.00000

 *** GO1_GOStep13 ***

 Energy gradients wrt nuclear displacements
 ==========================================

     Atom      Cartesian (a.u./angstrom)
                 X         Y         Z
 ----------------------------------------
     1 C    -0.004350 -0.002817 -0.005166
     2 H    -0.001370  0.000786 -0.000194
     3 F     0.001554  0.002801  0.005676
     4 C     0.004699  0.000688 -0.001748
     5 H    -0.000712  0.000476  0.001144
     6 N     0.004447 -0.001918 -0.000020
     7 H    -0.002773 -0.001503  0.001308
     8 H    -0.001972  0.003786 -0.000660
     9 C     0.000719 -0.004209  0.001276
    10 N     0.001445  0.000600 -0.000077
    11 N    -0.001880  0.000228 -0.000429
    12 H     0.000421  0.000661 -0.000606
    13 H    -0.000228  0.000421 -0.000506
 ----------------------------------------

 dE(predicted):    -0.20791E-03, dE(actual):    -0.27226E-03, Trust radius:    0.917692, all in a.u.
 
----------------------------------------------------------------------
Geometry Convergence after Step  13       (Hartree/Angstrom,Angstrom)
----------------------------------------------------------------------
current energy                               -2.72586116 Hartree
energy change                      -0.00027226     0.00013000    F
constrained gradient max            0.00565774     0.00010000    F
constrained gradient rms            0.00230637     0.00006667    F
gradient max                        0.00565656
gradient rms                        0.00230637
cart. step max                      0.04711961     0.01000000    F
cart. step rms                      0.01725951     0.00666667    F
 

--------
Geometry
--------
Formula: C3H6FN3
Atoms
  Index Symbol   x (angstrom)   y (angstrom)   z (angstrom)
      1      C     0.94385939    -0.13247551     0.03010120
      2      H     1.84815959     1.82040903     0.14733940
      3      F     2.39510407    -0.39593301     0.16634329
      4      C     0.83142612     1.43363521     0.03369740
      5      H     0.53101774    -0.56928124     0.94291684
      6      N     0.36361843    -0.69755609    -1.10124930
      7      H     0.34954018    -1.71270410    -1.11242317
      8      H     0.61775723    -0.26110991    -1.98494695
      9      C     0.06599651     1.86103942     1.22785279
     10      N    -0.54856352     2.22762992     2.14348050
     11      N     0.30882388     1.96102980    -1.24206354
     12      H     0.47640691     2.96644528    -1.30246374
     13      H    -0.69955552     1.80968103    -1.31203358

Total System Charge              0.00000

 *** GO1_GOStep14 ***

 Energy gradients wrt nuclear displacements
 ==========================================

     Atom      Cartesian (a.u./angstrom)
                 X         Y         Z
 ----------------------------------------
     1 C    -0.006719 -0.005998 -0.003166
     2 H    -0.002670  0.001552 -0.001092
     3 F     0.000444  0.003639  0.003923
     4 C     0.005268 -0.002142 -0.000933
     5 H    -0.000874  0.000703  0.000349
     6 N     0.006295  0.004212  0.000393
     7 H    -0.002044 -0.000872  0.003270
     8 H    -0.002095  0.002022 -0.001246
     9 C     0.001082 -0.005377  0.001447
    10 N     0.002006  0.000685 -0.000407
    11 N    -0.000154  0.000221 -0.001439
    12 H     0.000058  0.001057 -0.000542
    13 H    -0.000598  0.000298 -0.000558
 ----------------------------------------

 dE(predicted):    -0.20318E-03, dE(actual):    -0.30540E-03, Trust radius:    0.917692, all in a.u.
 
----------------------------------------------------------------------
Geometry Convergence after Step  14       (Hartree/Angstrom,Angstrom)
----------------------------------------------------------------------
current energy                               -2.72616656 Hartree
energy change                      -0.00030540     0.00013000    F
constrained gradient max            0.00666545     0.00010000    F
constrained gradient rms            0.00272441     0.00006667    F
gradient max                        0.00666353
gradient rms                        0.00272441
cart. step max                      0.08366314     0.01000000    F
cart. step rms                      0.02711904     0.00666667    F
 

--------
Geometry
--------
Formula: C3H6FN3
Atoms
  Index Symbol   x (angstrom)   y (angstrom)   z (angstrom)
      1      C     0.95423252    -0.12414320     0.02191584
      2      H     1.84882342     1.83079894     0.18095111
      3      F     2.40470152    -0.38921742     0.08268015
      4      C     0.83667751     1.43748786     0.04361637
      5      H     0.57203293    -0.56794004     0.94343090
      6      N     0.32737199    -0.68978580    -1.08873795
      7      H     0.31034234    -1.70500454    -1.06749693
      8      H     0.61780239    -0.31239470    -1.98742031
      9      C     0.04544990     1.85734429     1.22308985
     10      N    -0.58541021     2.22251443     2.12829380
     11      N     0.34395608     1.97732463    -1.23853020
     12      H     0.46157149     2.99161097    -1.25819773
     13      H    -0.65396086     1.78221442    -1.34704379

Total System Charge              0.00000

 *** GO1_GOStep15 ***

 Energy gradients wrt nuclear displacements
 ==========================================

     Atom      Cartesian (a.u./angstrom)
                 X         Y         Z
 ----------------------------------------
     1 C    -0.008352 -0.006985 -0.000623
     2 H    -0.002369  0.002453 -0.002208
     3 F     0.000135  0.003667  0.001935
     4 C     0.002468 -0.005429  0.000302
     5 H    -0.001177  0.000722 -0.001298
     6 N     0.007113  0.007793 -0.000561
     7 H    -0.000579  0.000946  0.003607
     8 H    -0.002183 -0.002056 -0.000285
     9 C     0.002264 -0.004287  0.000344
    10 N     0.001754  0.000761 -0.000136
    11 N     0.002066  0.001256 -0.001041
    12 H    -0.000508  0.000973  0.000128
    13 H    -0.000633  0.000188 -0.000162
 ----------------------------------------

 dE(predicted):    -0.30706E-03, dE(actual):    -0.44172E-03, Trust radius:    0.917692, all in a.u.
 
----------------------------------------------------------------------
Geometry Convergence after Step  15       (Hartree/Angstrom,Angstrom)
----------------------------------------------------------------------
current energy                               -2.72660828 Hartree
energy change                      -0.00044172     0.00013000    F
constrained gradient max            0.00828325     0.00010000    F
constrained gradient rms            0.00304876     0.00006667    F
gradient max                        0.00828146
gradient rms                        0.00304876
cart. step max                      0.10202397     0.01000000    F
cart. step rms                      0.03162503     0.00666667    F
 

--------
Geometry
--------
Formula: C3H6FN3
Atoms
  Index Symbol   x (angstrom)   y (angstrom)   z (angstrom)
      1      C     0.97212793    -0.11422297     0.01624724
      2      H     1.85613693     1.83888106     0.22516476
      3      F     2.41129950    -0.38498813    -0.01934382
      4      C     0.84732726     1.44365574     0.05730458
      5      H     0.63379996    -0.56624028     0.95020050
      6      N     0.27810595    -0.67470107    -1.06608346
      7      H     0.27014730    -1.69109246    -1.02922419
      8      H     0.60022703    -0.34816620    -1.97470547
      9      C     0.02273922     1.85469865     1.21699000
     10      N    -0.64434858     2.20959052     2.10023431
     11      N     0.38464783     1.98796388    -1.23394003
     12      H     0.45021169     3.00720003    -1.22502588
     13      H    -0.59883101     1.74823105    -1.38126742

Total System Charge              0.00000

 *** GO1_GOStep16 ***

 Energy gradients wrt nuclear displacements
 ==========================================

     Atom      Cartesian (a.u./angstrom)
                 X         Y         Z
 ----------------------------------------
     1 C    -0.005369 -0.005567  0.001211
     2 H    -0.000568  0.002563 -0.002024
     3 F    -0.002312  0.003125  0.001171
     4 C    -0.001271 -0.006979  0.000785
     5 H    -0.001144  0.000363 -0.002853
     6 N     0.004821  0.010843 -0.000065
     7 H     0.001231  0.001388  0.001712
     8 H    -0.000914 -0.005202  0.000630
     9 C     0.004435 -0.002037  0.000483
    10 N     0.000286  0.000565 -0.000169
    11 N     0.002630  0.000068 -0.001220
    12 H    -0.001184  0.000886  0.000565
    13 H    -0.000640 -0.000016 -0.000226
 ----------------------------------------

 dE(predicted):    -0.31635E-03, dE(actual):    -0.42867E-03, Trust radius:    0.917692, all in a.u.
 
----------------------------------------------------------------------
Geometry Convergence after Step  16       (Hartree/Angstrom,Angstrom)
----------------------------------------------------------------------
current energy                               -2.72703695 Hartree
energy change                      -0.00042867     0.00013000    F
constrained gradient max            0.01082858     0.00010000    F
constrained gradient rms            0.00304008     0.00006667    F
gradient max                        0.01082818
gradient rms                        0.00304008
cart. step max                      0.12329775     0.01000000    F
cart. step rms                      0.03782546     0.00666667    F
 

--------
Geometry
--------
Formula: C3H6FN3
Atoms
  Index Symbol   x (angstrom)   y (angstrom)   z (angstrom)
      1      C     0.99391459    -0.10297595     0.00888885
      2      H     1.86038781     1.84660146     0.28065995
      3      F     2.41468835    -0.37526409    -0.14264158
      4      C     0.85736841     1.45246180     0.06979861
      5      H     0.71768572    -0.56083053     0.96118728
      6      N     0.21969381    -0.67031950    -1.02891694
      7      H     0.24062157    -1.68801837    -0.98586925
      8      H     0.55490419    -0.38316478    -1.94877182
      9      C    -0.01306921     1.84697832     1.20264967
     10      N    -0.71821325     2.17998304     2.06473642
     11      N     0.43123028     2.00498414    -1.22941893
     12      H     0.46227540     3.02511582    -1.20129655
     13      H    -0.53789664     1.73525847    -1.41445461

Total System Charge              0.00000

 *** GO1_GOStep17 ***

 Energy gradients wrt nuclear displacements
 ==========================================

     Atom      Cartesian (a.u./angstrom)
                 X         Y         Z
 ----------------------------------------
     1 C     0.000978 -0.000831  0.001243
     2 H     0.001289  0.002101 -0.001116
     3 F    -0.004300  0.001253  0.000542
     4 C    -0.003003 -0.005714  0.001086
     5 H    -0.001670 -0.000680 -0.003225
     6 N    -0.002132  0.007924  0.002061
     7 H     0.003205  0.001542 -0.001766
     8 H     0.002022 -0.007036  0.001047
     9 C     0.004140  0.000830 -0.000077
    10 N    -0.000520  0.000127  0.000363
    11 N     0.001491  0.000609 -0.000906
    12 H    -0.001382  0.000436  0.000879
    13 H    -0.000118 -0.000561 -0.000131
 ----------------------------------------

 dE(predicted):    -0.33615E-03, dE(actual):    -0.27998E-03, Trust radius:    0.917692, all in a.u.
 
----------------------------------------------------------------------
Geometry Convergence after Step  17       (Hartree/Angstrom,Angstrom)
----------------------------------------------------------------------
current energy                               -2.72731693 Hartree
energy change                      -0.00027998     0.00013000    F
constrained gradient max            0.00791768     0.00010000    F
constrained gradient rms            0.00255283     0.00006667    F
gradient max                        0.00791779
gradient rms                        0.00255283
cart. step max                      0.04561131     0.01000000    F
cart. step rms                      0.01783331     0.00666667    F
 

--------
Geometry
--------
Formula: C3H6FN3
Atoms
  Index Symbol   x (angstrom)   y (angstrom)   z (angstrom)
      1      C     1.00380286    -0.10126442     0.01311453
      2      H     1.86124189     1.84560668     0.29793722
      3      F     2.42114125    -0.37235465    -0.17720228
      4      C     0.85988584     1.45496421     0.07218429
      5      H     0.76189967    -0.55773040     0.97659236
      6      N     0.20281036    -0.67553656    -1.00668578
      7      H     0.24320267    -1.69438924    -0.98747302
      8      H     0.50929288    -0.36152249    -1.93006961
      9      C    -0.02835127     1.84195990     1.19484176
     10      N    -0.75715736     2.15847715     2.04324618
     11      N     0.44114010     2.00170790    -1.23045219
     12      H     0.49809877     3.02042282    -1.21918603
     13      H    -0.53341665     1.75046892    -1.41029631

Total System Charge              0.00000

 *** GO1_GOStep18 ***

 Energy gradients wrt nuclear displacements
 ==========================================

     Atom      Cartesian (a.u./angstrom)
                 X         Y         Z
 ----------------------------------------
     1 C     0.003127  0.004281  0.002691
     2 H     0.002004  0.000736  0.000122
     3 F    -0.003509 -0.000486  0.000899
     4 C    -0.002727 -0.002141 -0.000192
     5 H    -0.000603 -0.001267 -0.001559
     6 N    -0.005709  0.002821  0.001816
     7 H     0.002200 -0.000268 -0.003574
     8 H     0.003238 -0.004856 -0.000848
     9 C     0.003732  0.001752  0.000840
    10 N    -0.000743 -0.000386 -0.000077
    11 N    -0.000284  0.000767 -0.000642
    12 H    -0.000983 -0.000084  0.000630
    13 H     0.000257 -0.000871 -0.000106
 ----------------------------------------

 dE(predicted):    -0.25090E-03, dE(actual):    -0.33840E-03, Trust radius:    0.917692, all in a.u.
 
----------------------------------------------------------------------
Geometry Convergence after Step  18       (Hartree/Angstrom,Angstrom)
----------------------------------------------------------------------
current energy                               -2.72765534 Hartree
energy change                      -0.00033840     0.00013000    F
constrained gradient max            0.00567273     0.00010000    F
constrained gradient rms            0.00219338     0.00006667    F
gradient max                        0.00567331
gradient rms                        0.00219338
cart. step max                      0.11458514     0.01000000    F
cart. step rms                      0.04271249     0.00666667    F
 

--------
Geometry
--------
Formula: C3H6FN3
Atoms
  Index Symbol   x (angstrom)   y (angstrom)   z (angstrom)
      1      C     1.03045795    -0.09921116     0.01756948
      2      H     1.84978735     1.85406973     0.33695148
      3      F     2.43588523    -0.35539810    -0.25727784
      4      C     0.86165184     1.45690250     0.07443328
      5      H     0.86127921    -0.55110410     1.00063299
      6      N     0.17254129    -0.68972449    -0.95228475
      7      H     0.24475941    -1.70714677    -0.97082008
      8      H     0.39470774    -0.32064198    -1.88189909
      9      C    -0.07304074     1.81560583     1.17110134
     10      N    -0.83730472     2.09918500     1.99974348
     11      N     0.46796838     1.99739751    -1.23538032
     12      H     0.59450780     3.00875954    -1.25767009
     13      H    -0.51960974     1.80211631    -1.40854877

Total System Charge              0.00000

 *** GO1_GOStep19 ***

 Energy gradients wrt nuclear displacements
 ==========================================

     Atom      Cartesian (a.u./angstrom)
                 X         Y         Z
 ----------------------------------------
     1 C     0.007539  0.009310  0.003052
     2 H     0.001199 -0.001256  0.001064
     3 F    -0.003703 -0.002264  0.001910
     4 C     0.000280  0.004402 -0.003195
     5 H     0.000557 -0.002212  0.000604
     6 N    -0.009273 -0.007206  0.000946
     7 H     0.000263 -0.001973 -0.003855
     8 H     0.003727  0.000872 -0.002790
     9 C     0.001310  0.001690  0.001184
    10 N    -0.000398 -0.000527  0.000246
    11 N    -0.002051  0.001274  0.000523
    12 H    -0.000185 -0.000609  0.000287
    13 H     0.000735 -0.001501  0.000025
 ----------------------------------------

 dE(predicted):    -0.45193E-03, dE(actual):    -0.51115E-03, Trust radius:    0.917692, all in a.u.
 
----------------------------------------------------------------------
Geometry Convergence after Step  19       (Hartree/Angstrom,Angstrom)
----------------------------------------------------------------------
current energy                               -2.72816649 Hartree
energy change                      -0.00051115     0.00013000    F
constrained gradient max            0.00933728     0.00010000    F
constrained gradient rms            0.00324415     0.00006667    F
gradient max                        0.00933672
gradient rms                        0.00324415
cart. step max                      0.10862585     0.01000000    F
cart. step rms                      0.04256113     0.00666667    F
 

--------
Geometry
--------
Formula: C3H6FN3
Atoms
  Index Symbol   x (angstrom)   y (angstrom)   z (angstrom)
      1      C     1.05234333    -0.09567148     0.01656704
      2      H     1.83249756     1.86376776     0.37684981
      3      F     2.44636060    -0.33263407    -0.34832203
      4      C     0.86016289     1.45564211     0.07820944
      5      H     0.95895825    -0.54448043     1.01142441
      6      N     0.14640393    -0.69867462    -0.89819926
      7      H     0.24427212    -1.71294789    -0.93381077
      8      H     0.28608189    -0.30296433    -1.83281795
      9      C    -0.11750642     1.78331759     1.14806484
     10      N    -0.91470141     2.03960277     1.95410983
     11      N     0.49807376     1.99709026    -1.23888430
     12      H     0.68961174     2.99720168    -1.28353106
     13      H    -0.49896723     1.86156045    -1.41310886

Total System Charge              0.00000

 *** GO1_GOStep20 ***

 Energy gradients wrt nuclear displacements
 ==========================================

     Atom      Cartesian (a.u./angstrom)
                 X         Y         Z
 ----------------------------------------
     1 C     0.004635  0.009601  0.004345
     2 H     0.000441 -0.001859  0.001246
     3 F    -0.000505 -0.003647  0.000889
     4 C     0.000691  0.007062 -0.004753
     5 H     0.001362 -0.001875  0.001322
     6 N    -0.008577 -0.009540 -0.001036
     7 H     0.000400 -0.001624 -0.002112
     8 H     0.002374  0.003435 -0.002778
     9 C    -0.000238  0.000755  0.001861
    10 N    -0.000053 -0.000433  0.000136
    11 N    -0.001155  0.000021  0.000879
    12 H     0.000136 -0.000203  0.000047
    13 H     0.000488 -0.001694 -0.000048
 ----------------------------------------

 dE(predicted):    -0.28027E-03, dE(actual):    -0.27006E-03, Trust radius:    0.917692, all in a.u.
 
----------------------------------------------------------------------
Geometry Convergence after Step  20       (Hartree/Angstrom,Angstrom)
----------------------------------------------------------------------
current energy                               -2.72843654 Hartree
energy change                      -0.00027006     0.00013000    F
constrained gradient max            0.00961477     0.00010000    F
constrained gradient rms            0.00335765     0.00006667    F
gradient max                        0.00961428
gradient rms                        0.00335765
cart. step max                      0.10367555     0.01000000    F
cart. step rms                      0.04421357     0.00666667    F
 

--------
Geometry
--------
Formula: C3H6FN3
Atoms
  Index Symbol   x (angstrom)   y (angstrom)   z (angstrom)
      1      C     1.08011178    -0.09401933     0.00773930
      2      H     1.80987076     1.88069519     0.41245991
      3      F     2.44884010    -0.30502369    -0.44176542
      4      C     0.85904999     1.45073304     0.07982903
      5      H     1.05105311    -0.53290729     1.01080520
      6      N     0.12920093    -0.70958826    -0.84330901
      7      H     0.23616351    -1.72211414    -0.87746505
      8      H     0.18240634    -0.31257287    -1.78381431
      9      C    -0.16171105     1.74187870     1.11935618
     10      N    -0.98961609     1.97496648     1.90103043
     11      N     0.52687419     2.00622788    -1.23960070
     12      H     0.78868441     2.98935432    -1.29611735
     13      H    -0.47733697     1.94317979    -1.41259707

Total System Charge              0.00000

 *** GO1_GOStep21 ***

 Energy gradients wrt nuclear displacements
 ==========================================

     Atom      Cartesian (a.u./angstrom)
                 X         Y         Z
 ----------------------------------------
     1 C     0.005315  0.003792  0.002320
     2 H    -0.000702 -0.000686  0.000177
     3 F    -0.002397 -0.003399  0.000596
     4 C     0.001191  0.005146 -0.005014
     5 H     0.000630 -0.000185  0.001189
     6 N    -0.004644 -0.005080 -0.002672
     7 H     0.001001 -0.000838  0.000066
     8 H    -0.000009  0.002984 -0.000500
     9 C    -0.001856 -0.000560  0.001517
    10 N     0.000163 -0.000057  0.000179
    11 N     0.001289  0.000000  0.002331
    12 H     0.000062 -0.000097 -0.000143
    13 H    -0.000044 -0.001020 -0.000047
 ----------------------------------------

 dE(predicted):    -0.25270E-03, dE(actual):    -0.13385E-03, Trust radius:    0.917692, all in a.u.
 
----------------------------------------------------------------------
Geometry Convergence after Step  21       (Hartree/Angstrom,Angstrom)
----------------------------------------------------------------------
current energy                               -2.72857039 Hartree
energy change                      -0.00013385     0.00013000    F
constrained gradient max            0.00538753     0.00010000    F
constrained gradient rms            0.00227016     0.00006667    F
gradient max                        0.00538713
gradient rms                        0.00227016
cart. step max                      0.03029002     0.01000000    F
cart. step rms                      0.00935071     0.00666667    F
 

--------
Geometry
--------
Formula: C3H6FN3
Atoms
  Index Symbol   x (angstrom)   y (angstrom)   z (angstrom)
      1      C     1.07510367    -0.09768675     0.00625171
      2      H     1.80361207     1.87955772     0.40518901
      3      F     2.45772749    -0.29715813    -0.43117321
      4      C     0.85214961     1.44487625     0.08039026
      5      H     1.04096181    -0.53964040     1.00657442
      6      N     0.14210124    -0.71419846    -0.85161464
      7      H     0.24631419    -1.72635613    -0.87425438
      8      H     0.18391163    -0.32205495    -1.79268691
      9      C    -0.16130886     1.74244060     1.12242255
     10      N    -0.98399935     1.98651777     1.90619250
     11      N     0.51472284     2.00323874    -1.23895079
     12      H     0.80554008     2.97780375    -1.30374730
     13      H    -0.49324540     1.97346981    -1.39804211

Total System Charge              0.00000

 *** GO1_GOStep22 ***

 Energy gradients wrt nuclear displacements
 ==========================================

     Atom      Cartesian (a.u./angstrom)
                 X         Y         Z
 ----------------------------------------
     1 C    -0.000650  0.000092  0.001994
     2 H    -0.000856  0.000334 -0.000468
     3 F     0.000465 -0.003071 -0.000402
     4 C     0.000468  0.002017 -0.002820
     5 H     0.000019  0.000412  0.000216
     6 N    -0.000449 -0.000503 -0.003089
     7 H     0.001646  0.000205  0.001254
     8 H    -0.001202  0.000966  0.000671
     9 C    -0.000904 -0.000656  0.001062
    10 N     0.000302  0.000259  0.000015
    11 N     0.001336 -0.000253  0.002028
    12 H    -0.000177  0.000146 -0.000119
    13 H     0.000001  0.000052 -0.000343
 ----------------------------------------

 dE(predicted):    -0.96588E-04, dE(actual):    -0.12597E-03, Trust radius:    0.917692, all in a.u.
 
----------------------------------------------------------------------
Geometry Convergence after Step  22       (Hartree/Angstrom,Angstrom)
----------------------------------------------------------------------
current energy                               -2.72869637 Hartree
energy change                      -0.00012597     0.00013000    T
constrained gradient max            0.00310502     0.00010000    F
constrained gradient rms            0.00116936     0.00006667    F
gradient max                        0.00310477
gradient rms                        0.00116936
cart. step max                      0.01696778     0.01000000    F
cart. step rms                      0.00608370     0.00666667    T
 

--------
Geometry
--------
Formula: C3H6FN3
Atoms
  Index Symbol   x (angstrom)   y (angstrom)   z (angstrom)
      1      C     1.07827794    -0.09727692     0.00254315
      2      H     1.80051605     1.88202043     0.41180997
      3      F     2.45526526    -0.28972636    -0.44814099
      4      C     0.85174330     1.44348278     0.08375398
      5      H     1.05154443    -0.54225898     1.00135913
      6      N     0.13992102    -0.71443956    -0.84670872
      7      H     0.24024821    -1.72716586    -0.86166014
      8      H     0.18466255    -0.33415209    -1.79234831
      9      C    -0.16604529     1.74017823     1.11996801
     10      N    -0.99344751     1.98521772     1.89847164
     11      N     0.51643323     2.00419055    -1.23709779
     12      H     0.81669328     2.97586989    -1.30259537
     13      H    -0.49222146     1.98486998    -1.39280345

Total System Charge              0.00000

 *** GO1_GOStep23 ***

 Energy gradients wrt nuclear displacements
 ==========================================

     Atom      Cartesian (a.u./angstrom)
                 X         Y         Z
 ----------------------------------------
     1 C    -0.000644 -0.000954 -0.000144
     2 H    -0.000904  0.000847 -0.000476
     3 F    -0.000751 -0.002756 -0.000433
     4 C     0.000259  0.000394 -0.000614
     5 H    -0.000356  0.000477 -0.000468
     6 N     0.000754  0.001262 -0.001147
     7 H     0.001694  0.000408  0.001058
     8 H    -0.000683 -0.000039  0.000770
     9 C    -0.000464 -0.000135  0.000371
    10 N     0.000231  0.000274  0.000002
    11 N     0.000876 -0.000171  0.001373
    12 H    -0.000105  0.000114 -0.000095
    13 H     0.000093  0.000280 -0.000197
 ----------------------------------------

 dE(predicted):    -0.29699E-04, dE(actual):    -0.27185E-04, Trust radius:    0.917692, all in a.u.
 
----------------------------------------------------------------------
Geometry Convergence after Step  23       (Hartree/Angstrom,Angstrom)
----------------------------------------------------------------------
current energy                               -2.72872355 Hartree
energy change                      -0.00002719     0.00013000    T
constrained gradient max            0.00260813     0.00010000    F
constrained gradient rms            0.00079161     0.00006667    F
gradient max                        0.00260772
gradient rms                        0.00079161
cart. step max                      0.00778854     0.01000000    T
cart. step rms                      0.00306944     0.00666667    T
 

--------
Geometry
--------
Formula: C3H6FN3
Atoms
  Index Symbol   x (angstrom)   y (angstrom)   z (angstrom)
      1      C     1.07981094    -0.09760581     0.00277569
      2      H     1.80067313     1.88287600     0.41157949
      3      F     2.45636791    -0.28528366    -0.44728475
      4      C     0.85160432     1.44243127     0.08628628
      5      H     1.05348435    -0.54645360     0.99986261
      6      N     0.14189395    -0.71285885    -0.84749843
      7      H     0.23509192    -1.72623805    -0.86296146
      8      H     0.18993566    -0.33388577    -1.79376297
      9      C    -0.16560142     1.74151199     1.12084856
     10      N    -0.99599495     1.98762232     1.89585090
     11      N     0.51245157     2.00055558    -1.23647950
     12      H     0.82118411     2.96917223    -1.30765039
     13      H    -0.49731049     1.98896617    -1.38501492

Total System Charge              0.00000

 *** GO1_GOStep24 ***

 Energy gradients wrt nuclear displacements
 ==========================================

     Atom      Cartesian (a.u./angstrom)
                 X         Y         Z
 ----------------------------------------
     1 C    -0.000161 -0.000544 -0.001280
     2 H    -0.000669  0.000973 -0.000438
     3 F    -0.001627 -0.002350  0.000084
     4 C     0.000093 -0.000479  0.000925
     5 H    -0.000217  0.000158 -0.000680
     6 N     0.001306  0.001710  0.000362
     7 H     0.001180  0.000297  0.000454
     8 H    -0.000385 -0.000352  0.000296
     9 C     0.000057  0.000248  0.000005
    10 N     0.000058  0.000222 -0.000076
    11 N     0.000167 -0.000189  0.000515
    12 H     0.000080  0.000044 -0.000070
    13 H     0.000118  0.000262 -0.000097
 ----------------------------------------

 dE(predicted):    -0.15583E-04, dE(actual):    -0.23847E-04, Trust radius:    0.917692, all in a.u.
 
----------------------------------------------------------------------
Geometry Convergence after Step  24       (Hartree/Angstrom,Angstrom)
----------------------------------------------------------------------
current energy                               -2.72874740 Hartree
energy change                      -0.00002385     0.00013000    T
constrained gradient max            0.00220337     0.00010000    F
constrained gradient rms            0.00072497     0.00006667    F
gradient max                        0.00220314
gradient rms                        0.00072497
cart. step max                      0.01119882     0.01000000    F
cart. step rms                      0.00446560     0.00666667    T
 

--------
Geometry
--------
Formula: C3H6FN3
Atoms
  Index Symbol   x (angstrom)   y (angstrom)   z (angstrom)
      1      C     1.08196054    -0.09694709     0.00290226
      2      H     1.79931244     1.88313050     0.41539833
      3      F     2.45737614    -0.27854132    -0.45594141
      4      C     0.85085190     1.44202137     0.08856548
      5      H     1.06431146    -0.54897673     0.99903018
      6      N     0.14055604    -0.71325751    -0.84325288
      7      H     0.23015593    -1.72684685    -0.86046198
      8      H     0.18656222    -0.33361756    -1.78972453
      9      C    -0.16956680     1.74032702     1.11916687
     10      N    -1.00430685     1.98406313     1.89027379
     11      N     0.51220966     1.99870569    -1.23641013
     12      H     0.83238294     2.96311359    -1.31288233
     13      H    -0.49821461     1.99763558    -1.38011253

Total System Charge              0.00000

 *** GO1_GOStep25 ***

 Energy gradients wrt nuclear displacements
 ==========================================

     Atom      Cartesian (a.u./angstrom)
                 X         Y         Z
 ----------------------------------------
     1 C    -0.000301  0.000844 -0.001381
     2 H    -0.000321  0.000836 -0.000336
     3 F    -0.001132 -0.002267  0.000014
     4 C    -0.000085 -0.000777  0.001993
     5 H     0.000075 -0.000293 -0.000489
     6 N     0.000922  0.000886  0.000997
     7 H     0.000636  0.000255 -0.000015
     8 H    -0.000000 -0.000250 -0.000102
     9 C     0.000212  0.000535 -0.000269
    10 N    -0.000079  0.000136 -0.000048
    11 N    -0.000303  0.000008 -0.000353
    12 H     0.000245 -0.000078 -0.000028
    13 H     0.000131  0.000166  0.000017
 ----------------------------------------

 dE(predicted):    -0.10674E-04, dE(actual):     0.49485E-05, Trust radius:    0.020000, all in a.u.
 
----------------------------------------------------------------------
Geometry Convergence after Step  25       (Hartree/Angstrom,Angstrom)
----------------------------------------------------------------------
current energy                               -2.72874245 Hartree
energy change                       0.00000495     0.00013000    T
constrained gradient max            0.00211782     0.00010000    F
constrained gradient rms            0.00069187     0.00006667    F
gradient max                        0.00211791
gradient rms                        0.00069187
cart. step max                      0.00452405     0.01000000    T
cart. step rms                      0.00180478     0.00666667    T
 

--------
Geometry
--------
Formula: C3H6FN3
Atoms
  Index Symbol   x (angstrom)   y (angstrom)   z (angstrom)
      1      C     1.08329887    -0.09682450     0.00330786
      2      H     1.79859552     1.88330521     0.41605702
      3      F     2.45923367    -0.27431947    -0.45600457
      4      C     0.85041366     1.44198744     0.08873564
      5      H     1.06710439    -0.54955858     0.99955300
      6      N     0.14120807    -0.71400467    -0.84261890
      7      H     0.22589156    -1.72787074    -0.86054170
      8      H     0.18525418    -0.33237779    -1.78851775
      9      C    -0.17097370     1.73916485     1.11841406
     10      N    -1.00569917     1.98170734     1.88992001
     11      N     0.51151906     1.99793319    -1.23709199
     12      H     0.83690699     2.96034811    -1.31614662
     13      H    -0.49916207     2.00131944    -1.37851495

Total System Charge              0.00000

 *** GO1_GOStep26 ***

 Energy gradients wrt nuclear displacements
 ==========================================

     Atom      Cartesian (a.u./angstrom)
                 X         Y         Z
 ----------------------------------------
     1 C     0.000337  0.001624 -0.001183
     2 H    -0.000214  0.000665 -0.000316
     3 F    -0.000881 -0.001887  0.000168
     4 C     0.000155 -0.000573  0.002249
     5 H     0.000106 -0.000535 -0.000077
     6 N     0.000340 -0.000241  0.000787
     7 H     0.000092  0.000150 -0.000224
     8 H     0.000068  0.000050 -0.000277
     9 C     0.000114  0.000409 -0.000378
    10 N    -0.000056  0.000151  0.000016
    11 N    -0.000554  0.000232 -0.000823
    12 H     0.000358 -0.000121  0.000000
    13 H     0.000135  0.000076  0.000058
 ----------------------------------------

 dE(predicted):    -0.68820E-05, dE(actual):    -0.47308E-05, Trust radius:    0.020000, all in a.u.
 
----------------------------------------------------------------------
Geometry Convergence after Step  26       (Hartree/Angstrom,Angstrom)
----------------------------------------------------------------------
current energy                               -2.72874718 Hartree
energy change                      -0.00000473     0.00013000    T
constrained gradient max            0.00225422     0.00010000    F
constrained gradient rms            0.00066220     0.00006667    F
gradient max                        0.00225426
gradient rms                        0.00066220
cart. step max                      0.00539127     0.01000000    T
cart. step rms                      0.00222662     0.00666667    T
 

--------
Geometry
--------
Formula: C3H6FN3
Atoms
  Index Symbol   x (angstrom)   y (angstrom)   z (angstrom)
      1      C     1.08420355    -0.09630976     0.00326755
      2      H     1.79752152     1.88265544     0.41827831
      3      F     2.46114166    -0.26892820    -0.45939428
      4      C     0.84989114     1.44211761     0.08840120
      5      H     1.07140507    -0.54909390     0.99976272
      6      N     0.14057690    -0.71461387    -0.84100246
      7      H     0.22056455    -1.72882386    -0.85717311
      8      H     0.18237664    -0.33297340    -1.78698028
      9      C    -0.17301602     1.73700104     1.11722084
     10      N    -1.00779769     1.97745429     1.88927629
     11      N     0.51311774     1.99840765    -1.23789011
     12      H     0.84105057     2.95992788    -1.31719059
     13      H    -0.49744462     2.00398892    -1.38002495

Total System Charge              0.00000

 *** GO1_GOStep27 ***

 Energy gradients wrt nuclear displacements
 ==========================================

     Atom      Cartesian (a.u./angstrom)
                 X         Y         Z
 ----------------------------------------
     1 C     0.000232  0.001901 -0.000319
     2 H    -0.000145  0.000391 -0.000191
     3 F     0.000175 -0.001413 -0.000067
     4 C     0.000172 -0.000316  0.001909
     5 H     0.000079 -0.000590  0.000282
     6 N    -0.000421 -0.000884  0.000151
     7 H    -0.000264 -0.000004 -0.000165
     8 H     0.000090  0.000306 -0.000283
     9 C     0.000025  0.000172 -0.000251
    10 N     0.000065  0.000142 -0.000021
    11 N    -0.000518  0.000384 -0.001104
    12 H     0.000391 -0.000111  0.000004
    13 H     0.000120  0.000024  0.000053
 ----------------------------------------

 dE(predicted):    -0.66457E-05, dE(actual):     0.14683E-05, Trust radius:    0.020000, all in a.u.
 
----------------------------------------------------------------------
Geometry Convergence after Step  27       (Hartree/Angstrom,Angstrom)
----------------------------------------------------------------------
current energy                               -2.72874571 Hartree
energy change                       0.00000147     0.00013000    T
constrained gradient max            0.00194020     0.00010000    F
constrained gradient rms            0.00058124     0.00006667    F
gradient max                        0.00194019
gradient rms                        0.00058124
cart. step max                      0.00430773     0.01000000    T
cart. step rms                      0.00154811     0.00666667    T
 

--------
Geometry
--------
Formula: C3H6FN3
Atoms
  Index Symbol   x (angstrom)   y (angstrom)   z (angstrom)
      1      C     1.08439918    -0.09607474     0.00270786
      2      H     1.79744230     1.88196570     0.41907066
      3      F     2.46205215    -0.26591440    -0.45986087
      4      C     0.85002680     1.44236857     0.08749835
      5      H     1.07103589    -0.54784968     0.99957492
      6      N     0.14045830    -0.71465998    -0.84130844
      7      H     0.21625682    -1.72919262    -0.85417521
      8      H     0.18238548    -0.33539776    -1.78803695
      9      C    -0.17310845     1.73592360     1.11677623
     10      N    -1.00672118     1.97559206     1.89032026
     11      N     0.51502564     1.99960276    -1.23811396
     12      H     0.83953198     2.96250490    -1.31490882
     13      H    -0.49519389     2.00194142    -1.38299292

Total System Charge              0.00000

 *** GO1_GOStep28 ***

 Energy gradients wrt nuclear displacements
 ==========================================

     Atom      Cartesian (a.u./angstrom)
                 X         Y         Z
 ----------------------------------------
     1 C     0.000297  0.001283  0.000212
     2 H    -0.000187  0.000252 -0.000121
     3 F     0.000608 -0.000863 -0.000146
     4 C     0.000204 -0.000084  0.001166
     5 H    -0.000115 -0.000366  0.000337
     6 N    -0.000724 -0.000840 -0.000297
     7 H    -0.000404 -0.000059 -0.000059
     8 H     0.000003  0.000279 -0.000140
     9 C    -0.000017 -0.000036 -0.000180
    10 N     0.000158  0.000165 -0.000019
    11 N    -0.000270  0.000319 -0.000804
    12 H     0.000340 -0.000082  0.000005
    13 H     0.000107  0.000032  0.000046
 ----------------------------------------

 dE(predicted):    -0.37658E-05, dE(actual):    -0.47962E-05, Trust radius:    0.040000, all in a.u.
 
----------------------------------------------------------------------
Geometry Convergence after Step  28       (Hartree/Angstrom,Angstrom)
----------------------------------------------------------------------
current energy                               -2.72875051 Hartree
energy change                      -0.00000480     0.00013000    T
constrained gradient max            0.00132132     0.00010000    F
constrained gradient rms            0.00042619     0.00006667    F
gradient max                        0.00132135
gradient rms                        0.00042619
cart. step max                      0.00485073     0.01000000    T
cart. step rms                      0.00187735     0.00666667    T
 

--------
Geometry
--------
Formula: C3H6FN3
Atoms
  Index Symbol   x (angstrom)   y (angstrom)   z (angstrom)
      1      C     1.08396117    -0.09585754     0.00201421
      2      H     1.79830257     1.88085994     0.41955187
      3      F     2.46183585    -0.26470146    -0.46044782
      4      C     0.85057020     1.44270368     0.08692165
      5      H     1.06971025    -0.54685054     0.99896352
      6      N     0.13991843    -0.71404731    -0.84189892
      7      H     0.21347318    -1.72881951    -0.85163467
      8      H     0.18377557    -0.33823213    -1.78973973
      9      C    -0.17226662     1.73608975     1.11698639
     10      N    -1.00550559     1.97546680     1.89103130
     11      N     0.51718201     2.00086058    -1.23773734
     12      H     0.83516251     2.96624688    -1.31097255
     13      H    -0.49252849     1.99709069    -1.38648678

Total System Charge              0.00000

 *** GO1_GOStep29 ***

 Energy gradients wrt nuclear displacements
 ==========================================

     Atom      Cartesian (a.u./angstrom)
                 X         Y         Z
 ----------------------------------------
     1 C     0.000083  0.000424  0.000454
     2 H    -0.000176  0.000167 -0.000040
     3 F     0.000774 -0.000479 -0.000220
     4 C     0.000076  0.000035  0.000376
     5 H    -0.000248 -0.000099  0.000175
     6 N    -0.000689 -0.000275 -0.000363
     7 H    -0.000346 -0.000080  0.000025
     8 H    -0.000049  0.000101 -0.000008
     9 C     0.000047 -0.000057 -0.000066
    10 N     0.000155  0.000159 -0.000033
    11 N     0.000032  0.000082 -0.000295
    12 H     0.000247 -0.000039 -0.000013
    13 H     0.000095  0.000062  0.000008
 ----------------------------------------

 dE(predicted):    -0.21621E-05, dE(actual):    -0.43550E-05, Trust radius:    0.040000, all in a.u.
 
----------------------------------------------------------------------
Geometry Convergence after Step  29       (Hartree/Angstrom,Angstrom)
----------------------------------------------------------------------
current energy                               -2.72875486 Hartree
energy change                      -0.00000436     0.00013000    T
constrained gradient max            0.00085819     0.00010000    F
constrained gradient rms            0.00024757     0.00006667    F
gradient max                        0.00085821
gradient rms                        0.00024757
cart. step max                      0.00324251     0.01000000    T
cart. step rms                      0.00114835     0.00666667    T
 

--------
Geometry
--------
Formula: C3H6FN3
Atoms
  Index Symbol   x (angstrom)   y (angstrom)   z (angstrom)
      1      C     1.08356902    -0.09586771     0.00156874
      2      H     1.79922488     1.88001239     0.41938843
      3      F     2.46124691    -0.26473844    -0.46038232
      4      C     0.85098495     1.44285925     0.08676800
      5      H     1.06856306    -0.54653059     0.99850892
      6      N     0.13978083    -0.71379714    -0.84240501
      7      H     0.21286442    -1.72863234    -0.85090159
      8      H     0.18493620    -0.33984810    -1.79085023
      9      C    -0.17149236     1.73682520     1.11732267
     10      N    -1.00482479     1.97647166     1.89120475
     11      N     0.51810963     2.00159610    -1.23722517
     12      H     0.83192000     2.96851165    -1.30836499
[...]
                                   -1.43%     2 P:z             4.589  0.00     2 C
                                    1.23%     1 P:x            -7.062  1.00    11 N
       3.510  0.00    39 A         31.20%     1 P:z            -5.239  0.67     2 C
                                   11.69%     1 P:x            -5.239  0.67     1 C
                                    8.97%     1 P:z            -5.239  0.67     1 C
                                    8.51%     2 S             -13.620  2.00     3 C
                                    6.67%     2 P:x             4.589  0.00     1 C
                                    6.30%     2 S             -13.620  2.00     1 C
                                   -5.08%     3 S              14.073  0.00    11 N
                                    4.53%     2 S             -18.450  2.00    11 N
                                    4.44%     2 S             -18.450  2.00    13 N
                                    4.13%     1 P:x            -5.239  0.67     3 C
                                   -4.06%     3 S              10.158  0.00     3 C
                                    3.92%     2 S               2.394  0.00     9 H
                                   -3.53%     2 P:z             7.649  0.00    11 N
                                   -3.52%     3 S              14.073  0.00    13 N
                                    3.35%     1 P:y            -7.062  1.00    11 N
                                    3.30%     1 P:z            -7.062  1.00    11 N
                                    3.19%     1 P:x            -7.062  1.00    11 N
                                   -3.17%     3 S              10.158  0.00     1 C
                                    2.88%     1 P:y            -7.062  1.00    13 N
                                    2.77%     1 P:z            -7.062  1.00    13 N
                                    2.63%     1 P:x            -7.062  1.00    12 N
                                   -2.48%     2 P:z             4.589  0.00     2 C
                                    2.28%     1 P:y            -5.239  0.67     1 C
                                   -2.26%     2 P:y             7.649  0.00    11 N
                                   -2.04%     2 P:z             7.649  0.00    13 N
                                    1.92%     2 S               2.394  0.00     8 H
                                    1.90%     2 S               2.394  0.00     7 H
                                   -1.90%     2 P:y             7.649  0.00    13 N
                                    1.82%     1 P:y            -5.239  0.67     2 C
                                    1.80%     2 S               2.394  0.00     6 H
                                    1.76%     1 P:z            11.051  0.00     4 H
                                   -1.45%     3 S               0.624  0.00    10 F
                                    1.36%     1 P:y            -5.239  0.67     3 C
                                    1.16%     1 P:y            11.051  0.00     4 H
                                    1.11%     1 P:z            -5.239  0.67     3 C
                                    1.08%     1 S              -6.532  1.00     4 H
                                   -1.05%     2 P:y             4.589  0.00     1 C
       4.064  0.00    40 A         32.92%     1 P:y            -5.239  0.67     1 C
                                   17.37%     2 S             -13.620  2.00     2 C
                                  -17.25%     3 S              10.158  0.00     2 C
                                   10.06%     2 P:x             4.589  0.00     3 C
                                    9.55%     1 P:y            -5.239  0.67     2 C
                                    8.38%     1 P:z            -5.239  0.67     3 C
                                   -7.52%     3 S              14.073  0.00    12 N
                                    5.69%     1 P:y            -5.239  0.67     3 C
                                   -5.03%     2 P:y             4.589  0.00     2 C
                                    4.87%     2 P:y             4.589  0.00     3 C
                                    4.63%     2 P:z             4.589  0.00     3 C
                                    4.58%     1 P:x            -5.239  0.67     2 C
                                    4.34%     2 P:x             7.649  0.00    12 N
                                    3.99%     2 S               2.394  0.00     7 H
                                    3.34%     1 P:x            -5.239  0.67     3 C
                                    3.19%     1 S              -6.532  1.00     5 H
                                    2.93%     2 P:z             4.589  0.00     2 C
                                    2.58%     2 S               2.394  0.00     9 H
                                   -2.53%     2 P:y            11.654  0.00    10 F
                                    2.49%     2 S             -13.620  2.00     3 C
                                    2.42%     2 P:z             7.649  0.00    12 N
                                   -2.02%     2 S               2.394  0.00     4 H
                                    1.74%     1 P:x            -5.239  0.67     1 C
                                   -1.73%     3 S              10.158  0.00     3 C
                                   -1.72%     2 S               2.394  0.00     5 H
                                    1.66%     2 S             -18.450  2.00    12 N
                                    1.58%     2 P:x             4.589  0.00     2 C
                                    1.46%     1 P:y            11.051  0.00     5 H
                                    1.44%     1 P:z            11.051  0.00     5 H
                                   -1.40%     3 S              14.073  0.00    11 N
                                    1.39%     1 P:y           -11.127  1.67    10 F
                                    1.36%     3 S               0.624  0.00    10 F
                                   -1.22%     3 P:z            54.789  0.00     3 C
                                   -1.14%     3 P:x            54.789  0.00     3 C
                                   -1.09%     3 P:y            54.789  0.00     1 C
                                   -1.06%     2 P:z             7.649  0.00    11 N
                                   -1.05%     2 S               2.394  0.00     6 H
                                    1.04%     2 P:y             4.589  0.00     1 C
                                    1.00%     2 S             -13.620  2.00     1 C
       4.187  0.00    41 A         15.40%     1 P:y            -5.239  0.67     2 C
                                   11.21%     2 P:z             4.589  0.00     3 C
                                   11.11%     1 P:z            -7.062  1.00    13 N
                                    6.40%     1 S              -6.532  1.00     7 H
                                    6.40%     1 P:x            -5.239  0.67     2 C
                                    6.34%     1 P:z            -5.239  0.67     3 C
                                   -6.11%     2 P:x             4.589  0.00     2 C
                                    5.50%     1 P:y            -7.062  1.00    13 N
                                    5.40%     2 S             -13.620  2.00     3 C
                                    5.35%     1 S              -6.532  1.00     8 H
                                    4.18%     1 P:z            -7.062  1.00    11 N
                                    3.67%     2 S             -13.620  2.00     2 C
                                    3.50%     1 P:y            -5.239  0.67     1 C
                                   -3.27%     3 S              10.158  0.00     2 C
                                    3.23%     2 P:z             7.649  0.00    13 N
                                    3.14%     2 S             -13.620  2.00     1 C
                                   -3.08%     2 P:y             4.589  0.00     2 C
                                    2.80%     2 P:z             4.589  0.00     1 C
                                    2.43%     1 P:y            -5.239  0.67     3 C
                                   -2.25%     3 S              10.158  0.00     1 C
                                    2.19%     1 P:z            11.051  0.00     9 H
                                    2.02%     2 S               2.394  0.00     9 H
                                   -2.01%     3 S              14.073  0.00    11 N
                                   -1.84%     3 S              10.158  0.00     3 C
                                   -1.83%     2 P:z             4.589  0.00     2 C
                                    1.78%     2 S               2.394  0.00     7 H
                                    1.78%     1 P:z            11.051  0.00     6 H
                                    1.50%     2 P:y             7.649  0.00    11 N
                                    1.33%     1 P:y            -7.062  1.00    12 N
                                    1.31%     2 P:x             4.589  0.00     3 C
                                    1.30%     2 P:y             7.649  0.00    13 N
                                    1.27%     1 S              -6.532  1.00     9 H
                                    1.14%     1 P:z            -5.239  0.67     2 C
                                    1.08%     1 P:x            -7.062  1.00    13 N
                                    1.03%     2 P:y             4.589  0.00     1 C

 Energy gradients wrt nuclear displacements
 ==========================================

     Atom      Cartesian (a.u./angstrom)
                 X         Y         Z
 ----------------------------------------
     1 C    -0.000073  0.000050  0.000026
     2 H     0.000085 -0.000091  0.000004
     3 F    -0.000082 -0.000170  0.000045
     4 C     0.000030 -0.000062  0.000022
     5 H    -0.000110 -0.000032  0.000015
     6 N    -0.000131  0.000002 -0.000025
     7 H    -0.000209  0.000025  0.000042
     8 H    -0.000087  0.000019  0.000021
     9 C     0.000084  0.000061 -0.000035
    10 N     0.000082  0.000160 -0.000028
    11 N     0.000122 -0.000009 -0.000051
    12 H     0.000186 -0.000028 -0.000019
    13 H     0.000104  0.000076 -0.000018
 ----------------------------------------



 =======================================================================
 Electrostatic potential at the Nuclei due to electrons and other nuclei
 =======================================================================
  
         Atom                  Potential
         ----                  ---------
     1)   C                  14.66289176
     2)   H                   1.06086828
     3)   F                  26.67058051
     4)   C                  14.68819292
     5)   H                   1.08023876
     6)   N                  18.39663234
     7)   H                   1.02223146
     8)   H                   1.02466592
     9)   C                  14.75916074
    10)   N                  18.43067317
    11)   N                  18.39279687
    12)   H                   1.02242412
    13)   H                   1.02370085
 Mulliken charges used for AMS results%charges...


    =====================
     CALCULATION RESULTS
    =====================

Energy (hartree)            -2.72876227

Gradients (hartree/bohr)
  Index   Atom            d/dx            d/dy            d/dz
      1      C   -0.0000388409    0.0000265421    0.0000139955
      2      H    0.0000451621   -0.0000484055    0.0000019454
      3      F   -0.0000432846   -0.0000900704    0.0000236721
      4      C    0.0000158874   -0.0000330114    0.0000116395
      5      H   -0.0000583300   -0.0000170624    0.0000080750
      6      N   -0.0000695588    0.0000008164   -0.0000133926
      7      H   -0.0001104538    0.0000130070    0.0000223151
      8      H   -0.0000461499    0.0000100554    0.0000113003
      9      C    0.0000446789    0.0000325216   -0.0000187093
     10      N    0.0000433315    0.0000846627   -0.0000147319
     11      N    0.0000643202   -0.0000045002   -0.0000269065
     12      H    0.0000982911   -0.0000147455   -0.0000098468
     13      H    0.0000549467    0.0000401901   -0.0000093556


--------------
Atomic charges
--------------
  Index   Atom    Charge
      1      C    0.7919
      2      H   -0.1002
      3      F   -0.4538
      4      C    0.3237
      5      H   -0.1759
      6      N   -0.0411
      7      H   -0.0467
      8      H   -0.0106
      9      C    0.0745
     10      N   -0.2528
     11      N   -0.0545
     12      H   -0.0499
     13      H   -0.0044


Dipole moment vector    (Debye):     0.67128711   -0.18190135   -2.20030112
              magnitude (Debye):     2.30760471


-----------------------
Molecular orbitals info
-----------------------
n orbitals:              248
n spin:                    1

Note: only printing virtual orbitals with
      energy smaller than HOMO + 100. eV

HOMO (eV):              -6.6630
LUMO (eV):              -1.2007
HOMO-LUMO gap (eV):      5.4623

   Index   Energy (eV)    Occupation
     153       92.4395         0.000       
     152       90.9283         0.000       
     151       90.6945         0.000       
     150       90.0170         0.000       
     149       87.5500         0.000       
     148       85.4954         0.000       
     147       84.1202         0.000       
     146       83.7313         0.000       
     145       83.0674         0.000       
     144       82.3240         0.000       
     143       82.1948         0.000       
     142       80.9026         0.000       
     141       79.8348         0.000       
     140       79.3745         0.000       
     139       77.6461         0.000       
     138       76.8687         0.000       
     137       76.5152         0.000       
     136       75.4195         0.000       
     135       74.0207         0.000       
     134       73.7009         0.000       
     133       72.3250         0.000       
     132       71.4606         0.000       
     131       69.9406         0.000       
     130       68.8141         0.000       
     129       68.0130         0.000       
     128       66.7271         0.000       
     127       65.8282         0.000       
     126       65.1468         0.000       
     125       64.5363         0.000       
     124       62.9043         0.000       
     123       62.3629         0.000       
     122       61.3656         0.000       
     121       60.0965         0.000       
     120       58.3035         0.000       
     119       57.9466         0.000       
     118       56.7668         0.000       
     117       56.1159         0.000       
     116       55.6747         0.000       
     115       53.6033         0.000       
     114       52.7798         0.000       
     113       52.1800         0.000       
     112       51.0704         0.000       
     111       50.2414         0.000       
     110       48.8007         0.000       
     109       48.4089         0.000       
     108       47.3199         0.000       
     107       46.0351         0.000       
     106       45.1440         0.000       
     105       44.7423         0.000       
     104       44.4074         0.000       
     103       43.1006         0.000       
     102       42.2082         0.000       
     101       41.5977         0.000       
     100       40.9219         0.000       
      99       40.3738         0.000       
      98       39.5819         0.000       
      97       37.4650         0.000       
      96       36.9930         0.000       
      95       36.4985         0.000       
      94       36.2547         0.000       
      93       35.4824         0.000       
      92       34.9449         0.000       
      91       34.3179         0.000       
      90       33.7782         0.000       
      89       33.5224         0.000       
      88       32.8410         0.000       
      87       32.4841         0.000       
      86       31.8815         0.000       
      85       31.5897         0.000       
      84       30.9003         0.000       
      83       30.3565         0.000       
      82       29.7324         0.000       
      81       28.6082         0.000       
      80       28.1774         0.000       
      79       27.6681         0.000       
      78       26.3441         0.000       
      77       26.1460         0.000       
      76       25.5178         0.000       
      75       24.5521         0.000       
      74       23.3916         0.000       
      73       22.9145         0.000       
      72       21.9716         0.000       
      71       20.7565         0.000       
      70       20.2181         0.000       
      69       19.2672         0.000       
      68       18.4279         0.000       
      67       18.0446         0.000       
      66       17.0855         0.000       
      65       16.8206         0.000       
      64       15.8123         0.000       
      63       15.1317         0.000       
      62       13.4650         0.000       
      61       12.9576         0.000       
      60       12.7768         0.000       
      59       12.6093         0.000       
      58       11.1329         0.000       
      57       11.0492         0.000       
      56       10.8084         0.000       
      55       10.1623         0.000       
      54        9.7229         0.000       
      53        9.1869         0.000       
      52        8.5595         0.000       
      51        8.1981         0.000       
      50        7.7570         0.000       
      49        7.5470         0.000       
      48        7.0584         0.000       
      47        6.4423         0.000       
      46        6.2115         0.000       
      45        5.8378         0.000       
      44        5.6241         0.000       
      43        5.1156         0.000       
      42        4.9837         0.000       
      41        4.1872         0.000       
      40        4.0644         0.000       
      39        3.5104         0.000       
      38        2.8129         0.000       
      37        2.7165         0.000       
      36        1.8510         0.000       
      35        1.2561         0.000       
      34        1.1266         0.000       
      33        0.5058         0.000       
      32        0.1225         0.000       
      31       -0.1163         0.000       
      30       -0.4280         0.000       
      29       -0.6718         0.000       
      28       -1.2007         0.000 < LUMO
      27       -6.6630         2.000 < HOMO
      26       -6.9498         2.000       
      25       -8.0945         2.000       
      24       -8.3715         2.000       
      23       -8.5340         2.000       
      22       -8.8593         2.000       
      21       -9.1707         2.000       
      20      -10.5121         2.000       
      19      -10.8791         2.000       
      18      -11.9473         2.000       
      17      -12.1802         2.000       
      16      -12.5524         2.000       
      15      -13.8346         2.000       
      14      -14.1001         2.000       
      13      -16.0016         2.000       
      12      -18.9117         2.000       
      11      -22.3523         2.000       
      10      -22.6666         2.000       
       9      -23.5544         2.000       
       8      -29.2116         2.000       
       7     -271.1913         2.000       
       6     -272.5916         2.000       
       5     -273.3260         2.000       
       4     -381.7450         2.000       
       3     -382.0375         2.000       
       2     -382.1898         2.000       
       1     -660.8713         2.000       

AMS application finished. Exiting.
NORMAL TERMINATION
     Total cpu time:    1194.63
  Total system time:       5.82
 Total elapsed time:    1204.36
NORMAL TERMINATION
