
 *******************************************************************************
 *                                                                             *
 *  --------------------------------                                           *
 *   Amsterdam Modeling Suite (AMS)              2026.103                      *
 *  --------------------------------                                           *
 *                                               r260501 2026-05-01 873454b5   *
 *                                                                             *
 *                                                                             *
 *                              =================                              *
 *                              |               |                              *
 *                              |     A M S     |                              *
 *                              |               |                              *
 *                              =================                              *
 *                                                                             *
 *                                                                             *
 *   Online information and documentation:  https://www.scm.com/support/       *
 *   E-mail:  support@scm.com   info@scm.com                                   *
 *                                                                             *
 *   Scientific publications using AMS results must be properly referenced     *
 *   See the User Manuals (or the web site) for recommended citations          *
 *   The terms and conditions of the End User License Agreement apply to       *
 *   the use of AMS, https://www.scm.com/license-terms/                        *
 *                                                                             *
 **********************  x86_64_linux_intel / intelmpi  ************************
 
 Licensed to: Jong-June Jeon / University of Seoul 2026-06-02 13:44:15
 SCM User ID: u30731
  
 AMS 2026.103  RunTime: Jun03-2026 07:51:46  ShM Nodes: 1  Procs: 1

 AMS jobname: c2_fragB_ts
 AMS jobid  : 1318535925

 Start   directory: /gpfs/home1/yeseo1ee/projects/eda-asm-prediction/ADF_800/adf_outputs/batch_000/dipolar_000741/
 Results directory: /gpfs/home1/yeseo1ee/projects/eda-asm-prediction/ADF_800/adf_outputs/batch_000/dipolar_000741/c2_fragB_ts.results/
 Scratch directory: /tmp/amstmp_c2_fragB_ts_kid0.1318535925/

 RNG seed: -1072801470 797826553 -1376068823 1198590383 -637215344 -127350232 180327013 -582302215



                      ************************************************************************
                      *  ADF 2026.103  RunTime: Jun03-2026 07:51:47  ShM Nodes: 1  Procs: 1  *
                      ************************************************************************
  

       ****************************
       * SINGLE POINT CALCULATION *
       ****************************

--------
Geometry
--------
Formula: C11H15N3O
Atoms
  Index Symbol   x (angstrom)   y (angstrom)   z (angstrom)
      1      C    -5.51611000     1.13564000     0.05487000
      2      N    -4.18742000     0.62585000     0.32046000
      3      C    -3.14339000     0.94670000    -0.50164000
      4      O    -3.34174000     1.53790000    -1.58040000
      5      N    -1.91177000     0.60012000    -0.00001000
      6      C     0.32214000     0.93802000    -0.21398000
      7      C     0.31846000     1.88926000     0.95241000
      8      C     1.61082000     0.75479000    -0.93815000
      9      C     2.49591000     1.84436000    -1.04005000
     10      C     3.72032000     1.71073000    -1.69764000
     11      C     4.09306000     0.48193000    -2.24838000
     12      C     3.22986000    -0.61275000    -2.13728000
     13      C     2.00161000    -0.47833000    -1.49105000
     14      N    -0.84517000     0.67453000    -0.81794000
     15      C    -0.92845000    -0.05900000    -2.08993000
     16      H    -5.58167000     2.23412000     0.15780000
     17      H    -5.83401000     0.87650000    -0.96542000
     18      H    -6.22007000     0.67867000     0.76291000
     19      H    -3.96631000     0.36010000     1.27169000
     20      H     0.32668000     2.92489000     0.56863000
     21      H    -0.57594000     1.76357000     1.56746000
     22      H     1.21575000     1.74527000     1.56509000
     23      H     2.22317000     2.81103000    -0.61576000
     24      H     4.38657000     2.57289000    -1.77581000
     25      H     5.05442000     0.37491000    -2.75607000
     26      H     3.51688000    -1.58241000    -2.55039000
     27      H     1.35476000    -1.34766000    -1.38997000
     28      H    -1.88824000     0.18823000    -2.55042000
     29      H    -0.11797000     0.24402000    -2.75891000
     30      H    -0.87492000    -1.14006000    -1.89388000

Total System Charge              0.00000


----------------
ADF Engine Input
----------------
 
   Basis
     Type TZ2P
     Core None
   End
   XC
     GGA BLYP
     Dispersion GRIMME3 BJDAMP
   End
   Symmetry NOSYM
   NumericalQuality Normal
   Unrestricted No
   SCF
     Iterations 200
     Converge 1.0e-6
   End
   Save TAPE21
 

 Title: *** (NO TITLE) ***

 *** adf ***



 ===========================
 A T T A C H E D   F I L E S
 ===========================
  



 ===============================
 M O D E L   P A R A M E T E R S
 ===============================
  
 DENSITY FUNCTIONAL POTENTIAL (scf)
    LDA:                               Exchange only                           == Not Default ==
    Gradient Corrections:              Becke88 LYP                             == Not Default ==

 SPIN  (restricted / unrestr.)
    Molecule:                          Restricted                               
    Fragments:                         Restricted                               

 OTHER ASPECTS
    Relativistic Corrections:          scalar (ZORA,MAPA)                       

    Nuclear Charge Density Model:      Point Charge Nuclei                      
    Core Treatment:                    Frozen Orbital(s)                        

    Hyperfine or Zeeman Interaction:   ---                                      

 Settings for Grimme D3 dispersion correction

      damping                        BJ
      s6                          1.000
      s8                          2.700
      a1                          0.430
      a2                          4.236

 Other (technical) parameters

      alpha                      14.000
      version                         4
 


 Fragment File(s)
 ----------------
 C:
         file : /gpfs/home1/yeseo1ee/projects/eda-asm-prediction/ADF_800/adf_outputs/batch_000/dipolar_000741/c2_fragB_ts.results/t21.50BA88D5.C
         jobid: 0
         title: Carbon (TZ2P)
 N:
         file : /gpfs/home1/yeseo1ee/projects/eda-asm-prediction/ADF_800/adf_outputs/batch_000/dipolar_000741/c2_fragB_ts.results/t21.44EAA48D.N
         jobid: 0
         title: Nitrogen (TZ2P)
 O:
         file : /gpfs/home1/yeseo1ee/projects/eda-asm-prediction/ADF_800/adf_outputs/batch_000/dipolar_000741/c2_fragB_ts.results/t21.6E90ABAE.O
         jobid: 0
         title: Oxygen (TZ2P)
 H:
         file : /gpfs/home1/yeseo1ee/projects/eda-asm-prediction/ADF_800/adf_outputs/batch_000/dipolar_000741/c2_fragB_ts.results/t21.6F35CCAB.H
         jobid: 0
         title: Hydrogen (TZ2P)



 ===============
 G E O M E T R Y  ***  3D  Molecule  ***
 ===============
  

 ATOMS
 =====                            X Y Z                    CHARGE
                                (Angstrom)             Nucl     +Core       At.Mass
                       --------------------------    ----------------       -------
    1  C              -5.5161    1.1356    0.0549      6.00      6.00       12.0000
    2  N              -4.1874    0.6259    0.3205      7.00      7.00       14.0031
    3  C              -3.1434    0.9467   -0.5016      6.00      6.00       12.0000
    4  O              -3.3417    1.5379   -1.5804      8.00      8.00       15.9949
    5  N              -1.9118    0.6001   -0.0000      7.00      7.00       14.0031
    6  C               0.3221    0.9380   -0.2140      6.00      6.00       12.0000
    7  C               0.3185    1.8893    0.9524      6.00      6.00       12.0000
    8  C               1.6108    0.7548   -0.9381      6.00      6.00       12.0000
    9  C               2.4959    1.8444   -1.0400      6.00      6.00       12.0000
   10  C               3.7203    1.7107   -1.6976      6.00      6.00       12.0000
   11  C               4.0931    0.4819   -2.2484      6.00      6.00       12.0000
   12  C               3.2299   -0.6128   -2.1373      6.00      6.00       12.0000
   13  C               2.0016   -0.4783   -1.4910      6.00      6.00       12.0000
   14  N              -0.8452    0.6745   -0.8179      7.00      7.00       14.0031
   15  C              -0.9284   -0.0590   -2.0899      6.00      6.00       12.0000
   16  H              -5.5817    2.2341    0.1578      1.00      1.00        1.0078
   17  H              -5.8340    0.8765   -0.9654      1.00      1.00        1.0078
   18  H              -6.2201    0.6787    0.7629      1.00      1.00        1.0078
   19  H              -3.9663    0.3601    1.2717      1.00      1.00        1.0078
   20  H               0.3267    2.9249    0.5686      1.00      1.00        1.0078
   21  H              -0.5759    1.7636    1.5675      1.00      1.00        1.0078
   22  H               1.2158    1.7453    1.5651      1.00      1.00        1.0078
   23  H               2.2232    2.8110   -0.6158      1.00      1.00        1.0078
   24  H               4.3866    2.5729   -1.7758      1.00      1.00        1.0078
   25  H               5.0544    0.3749   -2.7561      1.00      1.00        1.0078
   26  H               3.5169   -1.5824   -2.5504      1.00      1.00        1.0078
   27  H               1.3548   -1.3477   -1.3900      1.00      1.00        1.0078
   28  H              -1.8882    0.1882   -2.5504      1.00      1.00        1.0078
   29  H              -0.1180    0.2440   -2.7589      1.00      1.00        1.0078
   30  H              -0.8749   -1.1401   -1.8939      1.00      1.00        1.0078


 FRAGMENTS
 =========                                     Atoms in this Fragment     Cart. coord.s (Angstrom)
                                               -------------------------------------------------------
    1  C                                                 1  C           -5.5161    1.1356    0.0549
    2  C                                                 3  C           -3.1434    0.9467   -0.5016
    3  C                                                 6  C            0.3221    0.9380   -0.2140
    4  C                                                 7  C            0.3185    1.8893    0.9524
    5  C                                                 8  C            1.6108    0.7548   -0.9381
    6  C                                                 9  C            2.4959    1.8444   -1.0400
    7  C                                                10  C            3.7203    1.7107   -1.6976
    8  C                                                11  C            4.0931    0.4819   -2.2484
    9  C                                                12  C            3.2299   -0.6128   -2.1373
   10  C                                                13  C            2.0016   -0.4783   -1.4910
   11  C                                                15  C           -0.9284   -0.0590   -2.0899
   12  N                                                 2  N           -4.1874    0.6259    0.3205
   13  N                                                 5  N           -1.9118    0.6001   -0.0000
   14  N                                                14  N           -0.8452    0.6745   -0.8179
   15  O                                                 4  O           -3.3417    1.5379   -1.5804
   16  H                                                16  H           -5.5817    2.2341    0.1578
   17  H                                                17  H           -5.8340    0.8765   -0.9654
   18  H                                                18  H           -6.2201    0.6787    0.7629
   19  H                                                19  H           -3.9663    0.3601    1.2717
   20  H                                                20  H            0.3267    2.9249    0.5686
   21  H                                                21  H           -0.5759    1.7636    1.5675
   22  H                                                22  H            1.2158    1.7453    1.5651
   23  H                                                23  H            2.2232    2.8110   -0.6158
   24  H                                                24  H            4.3866    2.5729   -1.7758
   25  H                                                25  H            5.0544    0.3749   -2.7561
   26  H                                                26  H            3.5169   -1.5824   -2.5504
   27  H                                                27  H            1.3548   -1.3477   -1.3900
   28  H                                                28  H           -1.8882    0.1882   -2.5504
   29  H                                                29  H           -0.1180    0.2440   -2.7589
   30  H                                                30  H           -0.8749   -1.1401   -1.8939



 =====================================
 S Y M M E T R Y ,   E L E C T R O N S
 =====================================
  
 Symmetry: NOSYM

 Irreducible Representations, including subspecies
 -------------------------------------------------
 A


 Configuration of Valence Electrons
 ==================================
 ( determined in the SCF procedure )

 Total:   110

 Net Charge: 0 (Nuclei minus Electrons)

 Aufbau principle for MO occupations will be applied through SCF cycle no.     100
 Thereafter, the program will assign electrons to MOs that are spatially
 similar to the occupied MOs in a "reference" cycle ("KeepOrbitals").
 The reference cycle is always the PREVIOUS cycle: it will evolve with
 the SCF procedure.
 ***************************************************************************************************



                                      ****************************************
                                      *  B U I L D : (Fragments, Functions)  *
                                      ****************************************
  



 =======
 S F O s  ***  (Symmetrized Fragment Orbitals)  ***
 =======
  
 SFOs are linear combinations of (valence) Fragment Orbitals (FOs), such that the SFOs transform as the
 irreducible representations of the (molecular) symmetry group. Each SFO is therefore characterized by
 an irrep of the molecule and by a few (or only one) generating FOs.
 The SFOs constitute a symmetry-adapted basis for the Fock matrix. The MO eigenvector coefficients in
 this basis provide a direct interpretation of the MOs in terms of Frontier Orbital Theory.

 The SFOs are combined with auxiliary Core Functions (CFs) to ensure orthogonalization on the (frozen)
 Core Orbitals (COs). The Core-orthogonalized SFOs (CSFOs) constitute the true Fock basis.

 The FOs, and hence also the (C)SFOs are combinations of the elementary basis functions (BAS). The basis
 functions that participate in the description of the SFOs depend on the irrep. The indices of the
 involved functions are printed below for each irrep.
 (The complete list of primitive basis functions is printed in another section)

 Total nr. of (C)SFOs (summation over all irreps) :   555

 NOTE: a (C)SFO that is defined as a combination of more than one FO is usually NOT normalized.



                                       === A ===
 Nr. of SFOs :  555
 Cartesian basis functions that participate in this irrep (total number =   630) :
      1     2     3     4     5     6     9    12     7    10
     13     8    11    14    15    16    17    18    19    20
     21    22    23    24    25    26    27    28    29    30
     31    32    33    34    35    36    39    42    37    40
     43    38    41    44    45    46    47    48    49    50
     51    52    53    54    55    56    57    58    59    60
     61    62    63    64    65    66    69    72    67    70
     73    68    71    74    75    76    77    78    79    80
     81    82    83    84    85    86    87    88    89    90
     91    92    93    94    95    96    99   102    97   100
    103    98   101   104   105   106   107   108   109   110
    111   112   113   114   115   116   117   118   119   120
    121   122   123   124   125   126   129   132   127   130
    133   128   131   134   135   136   137   138   139   140
    141   142   143   144   145   146   147   148   149   150
    151   152   153   154   155   156   159   162   157   160
    163   158   161   164   165   166   167   168   169   170
    171   172   173   174   175   176   177   178   179   180
    181   182   183   184   185   186   189   192   187   190
    193   188   191   194   195   196   197   198   199   200
    201   202   203   204   205   206   207   208   209   210
    211   212   213   214   215   216   219   222   217   220
    223   218   221   224   225   226   227   228   229   230
    231   232   233   234   235   236   237   238   239   240
    241   242   243   244   245   246   249   252   247   250
    253   248   251   254   255   256   257   258   259   260
    261   262   263   264   265   266   267   268   269   270
    271   272   273   274   275   276   279   282   277   280
    283   278   281   284   285   286   287   288   289   290
    291   292   293   294   295   296   297   298   299   300
    301   302   303   304   305   306   309   312   307   310
    313   308   311   314   315   316   317   318   319   320
    321   322   323   324   325   326   327   328   329   330
    331   332   333   334   335   336   339   342   337   340
    343   338   341   344   345   346   347   348   349   350
    351   352   353   354   355   356   357   358   359   360
    361   362   363   364   365   366   369   372   367   370
    373   368   371   374   375   376   377   378   379   380
    381   382   383   384   385   386   387   388   389   390
    391   392   393   394   395   396   399   402   397   400
    403   398   401   404   405   406   407   408   409   410
    411   412   413   414   415   416   417   418   419   420
    421   422   423   424   425   426   429   432   427   430
    433   428   431   434   435   436   437   438   439   440
    441   442   443   444   445   446   447   448   449   450
    451   452   453   454   455   456   457   458   459   460
    461   462   463   464   465   466   467   468   469   470
    471   472   473   474   475   476   477   478   479   480
    481   482   483   484   485   486   487   488   489   490
    491   492   493   494   495   496   497   498   499   500
    501   502   503   504   505   506   507   508   509   510
    511   512   513   514   515   516   517   518   519   520
    521   522   523   524   525   526   527   528   529   530
    531   532   533   534   535   536   537   538   539   540
    541   542   543   544   545   546   547   548   549   550
    551   552   553   554   555   556   557   558   559   560
    561   562   563   564   565   566   567   568   569   570
    571   572   573   574   575   576   577   578   579   580
    581   582   583   584   585   586   587   588   589   590
    591   592   593   594   595   596   597   598   599   600
    601   602   603   604   605   606   607   608   609   610
    611   612   613   614   615   616   617   618   619   620
    621   622   623   624   625   626   627   628   629   630

    SFO  (index         Fragment          Generating    Expansion in Fragment Orbitals
  indx  incl.CFs)   Occup   Orb.Energy   FragmentType  Coeff.   Orbital     on Fragment
 --------------------------------------------------------------------------------------
     1       1      2.000     -10.066 au  C             1.00      1 S               1
                        (    -273.921 eV)
     2       2      2.000      -0.501 au  C             1.00      2 S               1
                        (     -13.620 eV)
     3       3       --         0.373 au  C             1.00      3 S               1
                        (      10.158 eV)
     4       4       --         5.405 au  C             1.00      4 S               1
                        (     147.073 eV)
     5       5       --        49.848 au  C             1.00      5 S               1
                        (    1356.422 eV)
     6       6      0.667      -0.193 au  C             1.00      1 P:x             1
                        (      -5.239 eV)
     7       7       --         0.169 au  C             1.00      2 P:x             1
                        (       4.589 eV)
     8       8       --         2.013 au  C             1.00      3 P:x             1
                        (      54.789 eV)
     9       9      0.667      -0.193 au  C             1.00      1 P:y             1
                        (      -5.239 eV)
    10      10       --         0.169 au  C             1.00      2 P:y             1
                        (       4.589 eV)
    11      11       --         2.013 au  C             1.00      3 P:y             1
                        (      54.789 eV)
    12      12      0.667      -0.193 au  C             1.00      1 P:z             1
                        (      -5.239 eV)
    13      13       --         0.169 au  C             1.00      2 P:z             1
                        (       4.589 eV)
    14      14       --         2.013 au  C             1.00      3 P:z             1
                        (      54.789 eV)
    15      15       --         1.243 au  C             1.00      1 D:z2            1
                        (      33.824 eV)
    16      16       --         1.243 au  C             1.00      1 D:x2-y2         1
                        (      33.824 eV)
    17      17       --         1.243 au  C             1.00      1 D:xy            1
                        (      33.824 eV)
    18      18       --         1.243 au  C             1.00      1 D:xz            1
                        (      33.824 eV)
    19      19       --         1.243 au  C             1.00      1 D:yz            1
                        (      33.824 eV)
    20      20       --         4.016 au  C             1.00      1 F:z3            1
                        (     109.271 eV)
    21      21       --         4.016 au  C             1.00      1 F:z             1
                        (     109.271 eV)
    22      22       --         4.016 au  C             1.00      1 F:xyz           1
                        (     109.271 eV)
    23      23       --         4.016 au  C             1.00      1 F:z2x           1
                        (     109.271 eV)
    24      24       --         4.016 au  C             1.00      1 F:z2y           1
                        (     109.271 eV)
    25      25       --         4.016 au  C             1.00      1 F:x             1
                        (     109.271 eV)
    26      26       --         4.016 au  C             1.00      1 F:y             1
                        (     109.271 eV)
    27      27      2.000     -10.066 au  C             1.00      1 S               2
                        (    -273.921 eV)
    28      28      2.000      -0.501 au  C             1.00      2 S               2
                        (     -13.620 eV)
    29      29       --         0.373 au  C             1.00      3 S               2
                        (      10.158 eV)
    30      30       --         5.405 au  C             1.00      4 S               2
                        (     147.073 eV)
    31      31       --        49.848 au  C             1.00      5 S               2
                        (    1356.422 eV)
    32      32      0.667      -0.193 au  C             1.00      1 P:x             2
                        (      -5.239 eV)
    33      33       --         0.169 au  C             1.00      2 P:x             2
                        (       4.589 eV)
    34      34       --         2.013 au  C             1.00      3 P:x             2
                        (      54.789 eV)
    35      35      0.667      -0.193 au  C             1.00      1 P:y             2
                        (      -5.239 eV)
    36      36       --         0.169 au  C             1.00      2 P:y             2
                        (       4.589 eV)
    37      37       --         2.013 au  C             1.00      3 P:y             2
                        (      54.789 eV)
    38      38      0.667      -0.193 au  C             1.00      1 P:z             2
                        (      -5.239 eV)
    39      39       --         0.169 au  C             1.00      2 P:z             2
                        (       4.589 eV)
    40      40       --         2.013 au  C             1.00      3 P:z             2
                        (      54.789 eV)
    41      41       --         1.243 au  C             1.00      1 D:z2            2
                        (      33.824 eV)
    42      42       --         1.243 au  C             1.00      1 D:x2-y2         2
                        (      33.824 eV)
    43      43       --         1.243 au  C             1.00      1 D:xy            2
                        (      33.824 eV)
    44      44       --         1.243 au  C             1.00      1 D:xz            2
                        (      33.824 eV)
    45      45       --         1.243 au  C             1.00      1 D:yz            2
                        (      33.824 eV)
    46      46       --         4.016 au  C             1.00      1 F:z3            2
                        (     109.271 eV)
    47      47       --         4.016 au  C             1.00      1 F:z             2
                        (     109.271 eV)
    48      48       --         4.016 au  C             1.00      1 F:xyz           2
                        (     109.271 eV)
    49      49       --         4.016 au  C             1.00      1 F:z2x           2
                        (     109.271 eV)
    50      50       --         4.016 au  C             1.00      1 F:z2y           2
                        (     109.271 eV)
    51      51       --         4.016 au  C             1.00      1 F:x             2
                        (     109.271 eV)
    52      52       --         4.016 au  C             1.00      1 F:y             2
                        (     109.271 eV)
    53      53      2.000     -10.066 au  C             1.00      1 S               3
                        (    -273.921 eV)
    54      54      2.000      -0.501 au  C             1.00      2 S               3
                        (     -13.620 eV)
    55      55       --         0.373 au  C             1.00      3 S               3
                        (      10.158 eV)
    56      56       --         5.405 au  C             1.00      4 S               3
                        (     147.073 eV)
    57      57       --        49.848 au  C             1.00      5 S               3
                        (    1356.422 eV)
    58      58      0.667      -0.193 au  C             1.00      1 P:x             3
                        (      -5.239 eV)
    59      59       --         0.169 au  C             1.00      2 P:x             3
                        (       4.589 eV)
    60      60       --         2.013 au  C             1.00      3 P:x             3
                        (      54.789 eV)
    61      61      0.667      -0.193 au  C             1.00      1 P:y             3
                        (      -5.239 eV)
    62      62       --         0.169 au  C             1.00      2 P:y             3
                        (       4.589 eV)
    63      63       --         2.013 au  C             1.00      3 P:y             3
                        (      54.789 eV)
    64      64      0.667      -0.193 au  C             1.00      1 P:z             3
                        (      -5.239 eV)
    65      65       --         0.169 au  C             1.00      2 P:z             3
                        (       4.589 eV)
    66      66       --         2.013 au  C             1.00      3 P:z             3
                        (      54.789 eV)
    67      67       --         1.243 au  C             1.00      1 D:z2            3
                        (      33.824 eV)
    68      68       --         1.243 au  C             1.00      1 D:x2-y2         3
                        (      33.824 eV)
    69      69       --         1.243 au  C             1.00      1 D:xy            3
                        (      33.824 eV)
    70      70       --         1.243 au  C             1.00      1 D:xz            3
                        (      33.824 eV)
    71      71       --         1.243 au  C             1.00      1 D:yz            3
                        (      33.824 eV)
    72      72       --         4.016 au  C             1.00      1 F:z3            3
                        (     109.271 eV)
    73      73       --         4.016 au  C             1.00      1 F:z             3
                        (     109.271 eV)
    74      74       --         4.016 au  C             1.00      1 F:xyz           3
                        (     109.271 eV)
    75      75       --         4.016 au  C             1.00      1 F:z2x           3
                        (     109.271 eV)
    76      76       --         4.016 au  C             1.00      1 F:z2y           3
                        (     109.271 eV)
    77      77       --         4.016 au  C             1.00      1 F:x             3
                        (     109.271 eV)
    78      78       --         4.016 au  C             1.00      1 F:y             3
                        (     109.271 eV)
    79      79      2.000     -10.066 au  C             1.00      1 S               4
                        (    -273.921 eV)
    80      80      2.000      -0.501 au  C             1.00      2 S               4
                        (     -13.620 eV)
    81      81       --         0.373 au  C             1.00      3 S               4
                        (      10.158 eV)
    82      82       --         5.405 au  C             1.00      4 S               4
                        (     147.073 eV)
    83      83       --        49.848 au  C             1.00      5 S               4
                        (    1356.422 eV)
    84      84      0.667      -0.193 au  C             1.00      1 P:x             4
                        (      -5.239 eV)
    85      85       --         0.169 au  C             1.00      2 P:x             4
                        (       4.589 eV)
    86      86       --         2.013 au  C             1.00      3 P:x             4
                        (      54.789 eV)
    87      87      0.667      -0.193 au  C             1.00      1 P:y             4
                        (      -5.239 eV)
    88      88       --         0.169 au  C             1.00      2 P:y             4
                        (       4.589 eV)
    89      89       --         2.013 au  C             1.00      3 P:y             4
                        (      54.789 eV)
    90      90      0.667      -0.193 au  C             1.00      1 P:z             4
                        (      -5.239 eV)
    91      91       --         0.169 au  C             1.00      2 P:z             4
                        (       4.589 eV)
    92      92       --         2.013 au  C             1.00      3 P:z             4
                        (      54.789 eV)
    93      93       --         1.243 au  C             1.00      1 D:z2            4
                        (      33.824 eV)
    94      94       --         1.243 au  C             1.00      1 D:x2-y2         4
                        (      33.824 eV)
    95      95       --         1.243 au  C             1.00      1 D:xy            4
                        (      33.824 eV)
    96      96       --         1.243 au  C             1.00      1 D:xz            4
                        (      33.824 eV)
    97      97       --         1.243 au  C             1.00      1 D:yz            4
                        (      33.824 eV)
    98      98       --         4.016 au  C             1.00      1 F:z3            4
                        (     109.271 eV)
    99      99       --         4.016 au  C             1.00      1 F:z             4
                        (     109.271 eV)
   100     100       --         4.016 au  C             1.00      1 F:xyz           4
                        (     109.271 eV)
   101     101       --         4.016 au  C             1.00      1 F:z2x           4
                        (     109.271 eV)
   102     102       --         4.016 au  C             1.00      1 F:z2y           4
                        (     109.271 eV)
   103     103       --         4.016 au  C             1.00      1 F:x             4
                        (     109.271 eV)
   104     104       --         4.016 au  C             1.00      1 F:y             4
                        (     109.271 eV)
   105     105      2.000     -10.066 au  C             1.00      1 S               5
                        (    -273.921 eV)
   106     106      2.000      -0.501 au  C             1.00      2 S               5
                        (     -13.620 eV)
   107     107       --         0.373 au  C             1.00      3 S               5
                        (      10.158 eV)
   108     108       --         5.405 au  C             1.00      4 S               5
                        (     147.073 eV)
   109     109       --        49.848 au  C             1.00      5 S               5
                        (    1356.422 eV)
   110     110      0.667      -0.193 au  C             1.00      1 P:x             5
                        (      -5.239 eV)
   111     111       --         0.169 au  C             1.00      2 P:x             5
                        (       4.589 eV)
   112     112       --         2.013 au  C             1.00      3 P:x             5
                        (      54.789 eV)
   113     113      0.667      -0.193 au  C             1.00      1 P:y             5
                        (      -5.239 eV)
   114     114       --         0.169 au  C             1.00      2 P:y             5
                        (       4.589 eV)
   115     115       --         2.013 au  C             1.00      3 P:y             5
                        (      54.789 eV)
   116     116      0.667      -0.193 au  C             1.00      1 P:z             5
                        (      -5.239 eV)
   117     117       --         0.169 au  C             1.00      2 P:z             5
                        (       4.589 eV)
   118     118       --         2.013 au  C             1.00      3 P:z             5
                        (      54.789 eV)
   119     119       --         1.243 au  C             1.00      1 D:z2            5
                        (      33.824 eV)
   120     120       --         1.243 au  C             1.00      1 D:x2-y2         5
                        (      33.824 eV)
   121     121       --         1.243 au  C             1.00      1 D:xy            5
                        (      33.824 eV)
   122     122       --         1.243 au  C             1.00      1 D:xz            5
                        (      33.824 eV)
   123     123       --         1.243 au  C             1.00      1 D:yz            5
                        (      33.824 eV)
   124     124       --         4.016 au  C             1.00      1 F:z3            5
                        (     109.271 eV)
   125     125       --         4.016 au  C             1.00      1 F:z             5
                        (     109.271 eV)
   126     126       --         4.016 au  C             1.00      1 F:xyz           5
                        (     109.271 eV)
   127     127       --         4.016 au  C             1.00      1 F:z2x           5
                        (     109.271 eV)
   128     128       --         4.016 au  C             1.00      1 F:z2y           5
                        (     109.271 eV)
   129     129       --         4.016 au  C             1.00      1 F:x             5
                        (     109.271 eV)
   130     130       --         4.016 au  C             1.00      1 F:y             5
                        (     109.271 eV)
   131     131      2.000     -10.066 au  C             1.00      1 S               6
                        (    -273.921 eV)
   132     132      2.000      -0.501 au  C             1.00      2 S               6
                        (     -13.620 eV)
   133     133       --         0.373 au  C             1.00      3 S               6
                        (      10.158 eV)
   134     134       --         5.405 au  C             1.00      4 S               6
                        (     147.073 eV)
   135     135       --        49.848 au  C             1.00      5 S               6
                        (    1356.422 eV)
   136     136      0.667      -0.193 au  C             1.00      1 P:x             6
                        (      -5.239 eV)
   137     137       --         0.169 au  C             1.00      2 P:x             6
                        (       4.589 eV)
   138     138       --         2.013 au  C             1.00      3 P:x             6
                        (      54.789 eV)
   139     139      0.667      -0.193 au  C             1.00      1 P:y             6
                        (      -5.239 eV)
   140     140       --         0.169 au  C             1.00      2 P:y             6
                        (       4.589 eV)
   141     141       --         2.013 au  C             1.00      3 P:y             6
                        (      54.789 eV)
   142     142      0.667      -0.193 au  C             1.00      1 P:z             6
                        (      -5.239 eV)
   143     143       --         0.169 au  C             1.00      2 P:z             6
                        (       4.589 eV)
   144     144       --         2.013 au  C             1.00      3 P:z             6
                        (      54.789 eV)
   145     145       --         1.243 au  C             1.00      1 D:z2            6
                        (      33.824 eV)
   146     146       --         1.243 au  C             1.00      1 D:x2-y2         6
                        (      33.824 eV)
   147     147       --         1.243 au  C             1.00      1 D:xy            6
                        (      33.824 eV)
   148     148       --         1.243 au  C             1.00      1 D:xz            6
                        (      33.824 eV)
   149     149       --         1.243 au  C             1.00      1 D:yz            6
                        (      33.824 eV)
   150     150       --         4.016 au  C             1.00      1 F:z3            6
                        (     109.271 eV)
   151     151       --         4.016 au  C             1.00      1 F:z             6
                        (     109.271 eV)
   152     152       --         4.016 au  C             1.00      1 F:xyz           6
                        (     109.271 eV)
   153     153       --         4.016 au  C             1.00      1 F:z2x           6
                        (     109.271 eV)
   154     154       --         4.016 au  C             1.00      1 F:z2y           6
                        (     109.271 eV)
   155     155       --         4.016 au  C             1.00      1 F:x             6
                        (     109.271 eV)
   156     156       --         4.016 au  C             1.00      1 F:y             6
                        (     109.271 eV)
   157     157      2.000     -10.066 au  C             1.00      1 S               7
                        (    -273.921 eV)
   158     158      2.000      -0.501 au  C             1.00      2 S               7
                        (     -13.620 eV)
   159     159       --         0.373 au  C             1.00      3 S               7
                        (      10.158 eV)
   160     160       --         5.405 au  C             1.00      4 S               7
                        (     147.073 eV)
   161     161       --        49.848 au  C             1.00      5 S               7
                        (    1356.422 eV)
   162     162      0.667      -0.193 au  C             1.00      1 P:x             7
                        (      -5.239 eV)
   163     163       --         0.169 au  C             1.00      2 P:x             7
                        (       4.589 eV)
   164     164       --         2.013 au  C             1.00      3 P:x             7
                        (      54.789 eV)
   165     165      0.667      -0.193 au  C             1.00      1 P:y             7
                        (      -5.239 eV)
   166     166       --         0.169 au  C             1.00      2 P:y             7
                        (       4.589 eV)
   167     167       --         2.013 au  C             1.00      3 P:y             7
                        (      54.789 eV)
   168     168      0.667      -0.193 au  C             1.00      1 P:z             7
                        (      -5.239 eV)
   169     169       --         0.169 au  C             1.00      2 P:z             7
                        (       4.589 eV)
   170     170       --         2.013 au  C             1.00      3 P:z             7
                        (      54.789 eV)
   171     171       --         1.243 au  C             1.00      1 D:z2            7
                        (      33.824 eV)
   172     172       --         1.243 au  C             1.00      1 D:x2-y2         7
                        (      33.824 eV)
   173     173       --         1.243 au  C             1.00      1 D:xy            7
                        (      33.824 eV)
   174     174       --         1.243 au  C             1.00      1 D:xz            7
                        (      33.824 eV)
   175     175       --         1.243 au  C             1.00      1 D:yz            7
                        (      33.824 eV)
   176     176       --         4.016 au  C             1.00      1 F:z3            7
                        (     109.271 eV)
   177     177       --         4.016 au  C             1.00      1 F:z             7
                        (     109.271 eV)
   178     178       --         4.016 au  C             1.00      1 F:xyz           7
                        (     109.271 eV)
   179     179       --         4.016 au  C             1.00      1 F:z2x           7
                        (     109.271 eV)
   180     180       --         4.016 au  C             1.00      1 F:z2y           7
                        (     109.271 eV)
   181     181       --         4.016 au  C             1.00      1 F:x             7
                        (     109.271 eV)
   182     182       --         4.016 au  C             1.00      1 F:y             7
                        (     109.271 eV)
   183     183      2.000     -10.066 au  C             1.00      1 S               8
                        (    -273.921 eV)
   184     184      2.000      -0.501 au  C             1.00      2 S               8
                        (     -13.620 eV)
   185     185       --         0.373 au  C             1.00      3 S               8
                        (      10.158 eV)
   186     186       --         5.405 au  C             1.00      4 S               8
                        (     147.073 eV)
   187     187       --        49.848 au  C             1.00      5 S               8
                        (    1356.422 eV)
   188     188      0.667      -0.193 au  C             1.00      1 P:x             8
                        (      -5.239 eV)
   189     189       --         0.169 au  C             1.00      2 P:x             8
                        (       4.589 eV)
   190     190       --         2.013 au  C             1.00      3 P:x             8
                        (      54.789 eV)
   191     191      0.667      -0.193 au  C             1.00      1 P:y             8
                        (      -5.239 eV)
   192     192       --         0.169 au  C             1.00      2 P:y             8
                        (       4.589 eV)
   193     193       --         2.013 au  C             1.00      3 P:y             8
                        (      54.789 eV)
   194     194      0.667      -0.193 au  C             1.00      1 P:z             8
                        (      -5.239 eV)
   195     195       --         0.169 au  C             1.00      2 P:z             8
                        (       4.589 eV)
   196     196       --         2.013 au  C             1.00      3 P:z             8
                        (      54.789 eV)
   197     197       --         1.243 au  C             1.00      1 D:z2            8
                        (      33.824 eV)
   198     198       --         1.243 au  C             1.00      1 D:x2-y2         8
                        (      33.824 eV)
   199     199       --         1.243 au  C             1.00      1 D:xy            8
                        (      33.824 eV)
   200     200       --         1.243 au  C             1.00      1 D:xz            8
                        (      33.824 eV)
   201     201       --         1.243 au  C             1.00      1 D:yz            8
                        (      33.824 eV)
   202     202       --         4.016 au  C             1.00      1 F:z3            8
                        (     109.271 eV)
   203     203       --         4.016 au  C             1.00      1 F:z             8
                        (     109.271 eV)
   204     204       --         4.016 au  C             1.00      1 F:xyz           8
                        (     109.271 eV)
   205     205       --         4.016 au  C             1.00      1 F:z2x           8
                        (     109.271 eV)
   206     206       --         4.016 au  C             1.00      1 F:z2y           8
                        (     109.271 eV)
   207     207       --         4.016 au  C             1.00      1 F:x             8
                        (     109.271 eV)
   208     208       --         4.016 au  C             1.00      1 F:y             8
                        (     109.271 eV)
   209     209      2.000     -10.066 au  C             1.00      1 S               9
                        (    -273.921 eV)
   210     210      2.000      -0.501 au  C             1.00      2 S               9
                        (     -13.620 eV)
   211     211       --         0.373 au  C             1.00      3 S               9
                        (      10.158 eV)
   212     212       --         5.405 au  C             1.00      4 S               9
                        (     147.073 eV)
   213     213       --        49.848 au  C             1.00      5 S               9
                        (    1356.422 eV)
   214     214      0.667      -0.193 au  C             1.00      1 P:x             9
                        (      -5.239 eV)
   215     215       --         0.169 au  C             1.00      2 P:x             9
                        (       4.589 eV)
   216     216       --         2.013 au  C             1.00      3 P:x             9
                        (      54.789 eV)
   217     217      0.667      -0.193 au  C             1.00      1 P:y             9
                        (      -5.239 eV)
   218     218       --         0.169 au  C             1.00      2 P:y             9
                        (       4.589 eV)
   219     219       --         2.013 au  C             1.00      3 P:y             9
                        (      54.789 eV)
   220     220      0.667      -0.193 au  C             1.00      1 P:z             9
                        (      -5.239 eV)
   221     221       --         0.169 au  C             1.00      2 P:z             9
                        (       4.589 eV)
   222     222       --         2.013 au  C             1.00      3 P:z             9
                        (      54.789 eV)
   223     223       --         1.243 au  C             1.00      1 D:z2            9
                        (      33.824 eV)
   224     224       --         1.243 au  C             1.00      1 D:x2-y2         9
                        (      33.824 eV)
   225     225       --         1.243 au  C             1.00      1 D:xy            9
                        (      33.824 eV)
   226     226       --         1.243 au  C             1.00      1 D:xz            9
                        (      33.824 eV)
   227     227       --         1.243 au  C             1.00      1 D:yz            9
                        (      33.824 eV)
   228     228       --         4.016 au  C             1.00      1 F:z3            9
                        (     109.271 eV)
   229     229       --         4.016 au  C             1.00      1 F:z             9
                        (     109.271 eV)
   230     230       --         4.016 au  C             1.00      1 F:xyz           9
                        (     109.271 eV)
   231     231       --         4.016 au  C             1.00      1 F:z2x           9
                        (     109.271 eV)
   232     232       --         4.016 au  C             1.00      1 F:z2y           9
                        (     109.271 eV)
   233     233       --         4.016 au  C             1.00      1 F:x             9
                        (     109.271 eV)
   234     234       --         4.016 au  C             1.00      1 F:y             9
                        (     109.271 eV)
   235     235      2.000     -10.066 au  C             1.00      1 S              10
                        (    -273.921 eV)
   236     236      2.000      -0.501 au  C             1.00      2 S              10
                        (     -13.620 eV)
   237     237       --         0.373 au  C             1.00      3 S              10
                        (      10.158 eV)
   238     238       --         5.405 au  C             1.00      4 S              10
                        (     147.073 eV)
   239     239       --        49.848 au  C             1.00      5 S              10
                        (    1356.422 eV)
   240     240      0.667      -0.193 au  C             1.00      1 P:x            10
                        (      -5.239 eV)
   241     241       --         0.169 au  C             1.00      2 P:x            10
                        (       4.589 eV)
   242     242       --         2.013 au  C             1.00      3 P:x            10
                        (      54.789 eV)
   243     243      0.667      -0.193 au  C             1.00      1 P:y            10
                        (      -5.239 eV)
   244     244       --         0.169 au  C             1.00      2 P:y            10
                        (       4.589 eV)
   245     245       --         2.013 au  C             1.00      3 P:y            10
                        (      54.789 eV)
   246     246      0.667      -0.193 au  C             1.00      1 P:z            10
                        (      -5.239 eV)
   247     247       --         0.169 au  C             1.00      2 P:z            10
                        (       4.589 eV)
   248     248       --         2.013 au  C             1.00      3 P:z            10
                        (      54.789 eV)
   249     249       --         1.243 au  C             1.00      1 D:z2           10
                        (      33.824 eV)
   250     250       --         1.243 au  C             1.00      1 D:x2-y2        10
                        (      33.824 eV)
   251     251       --         1.243 au  C             1.00      1 D:xy           10
                        (      33.824 eV)
   252     252       --         1.243 au  C             1.00      1 D:xz           10
                        (      33.824 eV)
   253     253       --         1.243 au  C             1.00      1 D:yz           10
                        (      33.824 eV)
   254     254       --         4.016 au  C             1.00      1 F:z3           10
                        (     109.271 eV)
   255     255       --         4.016 au  C             1.00      1 F:z            10
                        (     109.271 eV)
   256     256       --         4.016 au  C             1.00      1 F:xyz          10
                        (     109.271 eV)
   257     257       --         4.016 au  C             1.00      1 F:z2x          10
                        (     109.271 eV)
   258     258       --         4.016 au  C             1.00      1 F:z2y          10
                        (     109.271 eV)
   259     259       --         4.016 au  C             1.00      1 F:x            10
                        (     109.271 eV)
   260     260       --         4.016 au  C             1.00      1 F:y            10
                        (     109.271 eV)
   261     261      2.000     -10.066 au  C             1.00      1 S              11
                        (    -273.921 eV)
   262     262      2.000      -0.501 au  C             1.00      2 S              11
                        (     -13.620 eV)
   263     263       --         0.373 au  C             1.00      3 S              11
                        (      10.158 eV)
   264     264       --         5.405 au  C             1.00      4 S              11
                        (     147.073 eV)
   265     265       --        49.848 au  C             1.00      5 S              11
                        (    1356.422 eV)
   266     266      0.667      -0.193 au  C             1.00      1 P:x            11
                        (      -5.239 eV)
   267     267       --         0.169 au  C             1.00      2 P:x            11
                        (       4.589 eV)
   268     268       --         2.013 au  C             1.00      3 P:x            11
                        (      54.789 eV)
   269     269      0.667      -0.193 au  C             1.00      1 P:y            11
                        (      -5.239 eV)
   270     270       --         0.169 au  C             1.00      2 P:y            11
                        (       4.589 eV)
   271     271       --         2.013 au  C             1.00      3 P:y            11
                        (      54.789 eV)
   272     272      0.667      -0.193 au  C             1.00      1 P:z            11
                        (      -5.239 eV)
   273     273       --         0.169 au  C             1.00      2 P:z            11
                        (       4.589 eV)
   274     274       --         2.013 au  C             1.00      3 P:z            11
                        (      54.789 eV)
   275     275       --         1.243 au  C             1.00      1 D:z2           11
                        (      33.824 eV)
   276     276       --         1.243 au  C             1.00      1 D:x2-y2        11
                        (      33.824 eV)
   277     277       --         1.243 au  C             1.00      1 D:xy           11
                        (      33.824 eV)
   278     278       --         1.243 au  C             1.00      1 D:xz           11
                        (      33.824 eV)
   279     279       --         1.243 au  C             1.00      1 D:yz           11
                        (      33.824 eV)
   280     280       --         4.016 au  C             1.00      1 F:z3           11
                        (     109.271 eV)
   281     281       --         4.016 au  C             1.00      1 F:z            11
                        (     109.271 eV)
   282     282       --         4.016 au  C             1.00      1 F:xyz          11
                        (     109.271 eV)
   283     283       --         4.016 au  C             1.00      1 F:z2x          11
                        (     109.271 eV)
   284     284       --         4.016 au  C             1.00      1 F:z2y          11
                        (     109.271 eV)
   285     285       --         4.016 au  C             1.00      1 F:x            11
                        (     109.271 eV)
   286     286       --         4.016 au  C             1.00      1 F:y            11
                        (     109.271 eV)
   287     287      2.000     -14.160 au  N             1.00      1 S              12
                        (    -385.319 eV)
   288     288      2.000      -0.678 au  N             1.00      2 S              12
                        (     -18.450 eV)
   289     289       --         0.517 au  N             1.00      3 S              12
                        (      14.073 eV)
   290     290       --         6.872 au  N             1.00      4 S              12
                        (     186.990 eV)
   291     291       --        63.432 au  N             1.00      5 S              12
                        (    1726.082 eV)
   292     292      1.000      -0.260 au  N             1.00      1 P:x            12
                        (      -7.062 eV)
   293     293       --         0.281 au  N             1.00      2 P:x            12
                        (       7.649 eV)
   294     294       --         3.275 au  N             1.00      3 P:x            12
                        (      89.105 eV)
   295     295      1.000      -0.260 au  N             1.00      1 P:y            12
                        (      -7.062 eV)
   296     296       --         0.281 au  N             1.00      2 P:y            12
                        (       7.649 eV)
   297     297       --         3.275 au  N             1.00      3 P:y            12
                        (      89.105 eV)
   298     298      1.000      -0.260 au  N             1.00      1 P:z            12
                        (      -7.062 eV)
   299     299       --         0.281 au  N             1.00      2 P:z            12
                        (       7.649 eV)
   300     300       --         3.275 au  N             1.00      3 P:z            12
                        (      89.105 eV)
   301     301       --         1.250 au  N             1.00      1 D:z2           12
                        (      34.005 eV)
   302     302       --         1.250 au  N             1.00      1 D:x2-y2        12
                        (      34.005 eV)
   303     303       --         1.250 au  N             1.00      1 D:xy           12
                        (      34.005 eV)
   304     304       --         1.250 au  N             1.00      1 D:xz           12
                        (      34.005 eV)
   305     305       --         1.250 au  N             1.00      1 D:yz           12
                        (      34.005 eV)
   306     306       --         4.013 au  N             1.00      1 F:z3           12
                        (     109.190 eV)
   307     307       --         4.013 au  N             1.00      1 F:z            12
                        (     109.190 eV)
   308     308       --         4.013 au  N             1.00      1 F:xyz          12
                        (     109.190 eV)
   309     309       --         4.013 au  N             1.00      1 F:z2x          12
                        (     109.190 eV)
   310     310       --         4.013 au  N             1.00      1 F:z2y          12
                        (     109.190 eV)
   311     311       --         4.013 au  N             1.00      1 F:x            12
                        (     109.190 eV)
   312     312       --         4.013 au  N             1.00      1 F:y            12
                        (     109.190 eV)
   313     313      2.000     -14.160 au  N             1.00      1 S              13
                        (    -385.319 eV)
   314     314      2.000      -0.678 au  N             1.00      2 S              13
                        (     -18.450 eV)
   315     315       --         0.517 au  N             1.00      3 S              13
                        (      14.073 eV)
   316     316       --         6.872 au  N             1.00      4 S              13
                        (     186.990 eV)
   317     317       --        63.432 au  N             1.00      5 S              13
                        (    1726.082 eV)
   318     318      1.000      -0.260 au  N             1.00      1 P:x            13
                        (      -7.062 eV)
   319     319       --         0.281 au  N             1.00      2 P:x            13
                        (       7.649 eV)
   320     320       --         3.275 au  N             1.00      3 P:x            13
                        (      89.105 eV)
   321     321      1.000      -0.260 au  N             1.00      1 P:y            13
                        (      -7.062 eV)
   322     322       --         0.281 au  N             1.00      2 P:y            13
                        (       7.649 eV)
   323     323       --         3.275 au  N             1.00      3 P:y            13
                        (      89.105 eV)
   324     324      1.000      -0.260 au  N             1.00      1 P:z            13
                        (      -7.062 eV)
   325     325       --         0.281 au  N             1.00      2 P:z            13
                        (       7.649 eV)
   326     326       --         3.275 au  N             1.00      3 P:z            13
                        (      89.105 eV)
   327     327       --         1.250 au  N             1.00      1 D:z2           13
                        (      34.005 eV)
   328     328       --         1.250 au  N             1.00      1 D:x2-y2        13
                        (      34.005 eV)
   329     329       --         1.250 au  N             1.00      1 D:xy           13
                        (      34.005 eV)
   330     330       --         1.250 au  N             1.00      1 D:xz           13
                        (      34.005 eV)
   331     331       --         1.250 au  N             1.00      1 D:yz           13
                        (      34.005 eV)
   332     332       --         4.013 au  N             1.00      1 F:z3           13
                        (     109.190 eV)
   333     333       --         4.013 au  N             1.00      1 F:z            13
                        (     109.190 eV)
   334     334       --         4.013 au  N             1.00      1 F:xyz          13
                        (     109.190 eV)
   335     335       --         4.013 au  N             1.00      1 F:z2x          13
                        (     109.190 eV)
   336     336       --         4.013 au  N             1.00      1 F:z2y          13
                        (     109.190 eV)
   337     337       --         4.013 au  N             1.00      1 F:x            13
                        (     109.190 eV)
   338     338       --         4.013 au  N             1.00      1 F:y            13
                        (     109.190 eV)
   339     339      2.000     -14.160 au  N             1.00      1 S              14
                        (    -385.319 eV)
   340     340      2.000      -0.678 au  N             1.00      2 S              14
                        (     -18.450 eV)
   341     341       --         0.517 au  N             1.00      3 S              14
                        (      14.073 eV)
   342     342       --         6.872 au  N             1.00      4 S              14
                        (     186.990 eV)
   343     343       --        63.432 au  N             1.00      5 S              14
                        (    1726.082 eV)
   344     344      1.000      -0.260 au  N             1.00      1 P:x            14
                        (      -7.062 eV)
   345     345       --         0.281 au  N             1.00      2 P:x            14
                        (       7.649 eV)
   346     346       --         3.275 au  N             1.00      3 P:x            14
                        (      89.105 eV)
   347     347      1.000      -0.260 au  N             1.00      1 P:y            14
                        (      -7.062 eV)
   348     348       --         0.281 au  N             1.00      2 P:y            14
                        (       7.649 eV)
   349     349       --         3.275 au  N             1.00      3 P:y            14
                        (      89.105 eV)
   350     350      1.000      -0.260 au  N             1.00      1 P:z            14
                        (      -7.062 eV)
   351     351       --         0.281 au  N             1.00      2 P:z            14
                        (       7.649 eV)
   352     352       --         3.275 au  N             1.00      3 P:z            14
                        (      89.105 eV)
   353     353       --         1.250 au  N             1.00      1 D:z2           14
                        (      34.005 eV)
   354     354       --         1.250 au  N             1.00      1 D:x2-y2        14
                        (      34.005 eV)
   355     355       --         1.250 au  N             1.00      1 D:xy           14
                        (      34.005 eV)
   356     356       --         1.250 au  N             1.00      1 D:xz           14
                        (      34.005 eV)
   357     357       --         1.250 au  N             1.00      1 D:yz           14
                        (      34.005 eV)
   358     358       --         4.013 au  N             1.00      1 F:z3           14
                        (     109.190 eV)
   359     359       --         4.013 au  N             1.00      1 F:z            14
                        (     109.190 eV)
   360     360       --         4.013 au  N             1.00      1 F:xyz          14
                        (     109.190 eV)
   361     361       --         4.013 au  N             1.00      1 F:z2x          14
                        (     109.190 eV)
   362     362       --         4.013 au  N             1.00      1 F:z2y          14
                        (     109.190 eV)
   363     363       --         4.013 au  N             1.00      1 F:x            14
                        (     109.190 eV)
   364     364       --         4.013 au  N             1.00      1 F:y            14
                        (     109.190 eV)
   365     365      2.000     -18.941 au  O             1.00      1 S              15
                        (    -515.403 eV)
   366     366      2.000      -0.876 au  O             1.00      2 S              15
                        (     -23.838 eV)
   367     367       --         0.791 au  O             1.00      3 S              15
                        (      21.524 eV)
   368     368       --        13.422 au  O             1.00      4 S              15
                        (     365.226 eV)
   369     369       --       121.561 au  O             1.00      5 S              15
                        (    3307.838 eV)
   370     370      1.333      -0.331 au  O             1.00      1 P:x            15
                        (      -9.020 eV)
   371     371       --         0.347 au  O             1.00      2 P:x            15
                        (       9.437 eV)
   372     372       --         3.820 au  O             1.00      3 P:x            15
                        (     103.939 eV)
   373     373      1.333      -0.331 au  O             1.00      1 P:y            15
                        (      -9.020 eV)
   374     374       --         0.347 au  O             1.00      2 P:y            15
                        (       9.437 eV)
   375     375       --         3.820 au  O             1.00      3 P:y            15
                        (     103.939 eV)
   376     376      1.333      -0.331 au  O             1.00      1 P:z            15
                        (      -9.020 eV)
   377     377       --         0.347 au  O             1.00      2 P:z            15
                        (       9.437 eV)
   378     378       --         3.820 au  O             1.00      3 P:z            15
                        (     103.939 eV)
   379     379       --         1.071 au  O             1.00      1 D:z2           15
                        (      29.134 eV)
   380     380       --         1.071 au  O             1.00      1 D:x2-y2        15
                        (      29.134 eV)
   381     381       --         1.071 au  O             1.00      1 D:xy           15
                        (      29.134 eV)
   382     382       --         1.071 au  O             1.00      1 D:xz           15
                        (      29.134 eV)
   383     383       --         1.071 au  O             1.00      1 D:yz           15
                        (      29.134 eV)
   384     384       --         3.359 au  O             1.00      1 F:z3           15
                        (      91.410 eV)
   385     385       --         3.359 au  O             1.00      1 F:z            15
                        (      91.410 eV)
   386     386       --         3.359 au  O             1.00      1 F:xyz          15
                        (      91.410 eV)
   387     387       --         3.359 au  O             1.00      1 F:z2x          15
                        (      91.410 eV)
   388     388       --         3.359 au  O             1.00      1 F:z2y          15
                        (      91.410 eV)
   389     389       --         3.359 au  O             1.00      1 F:x            15
                        (      91.410 eV)
   390     390       --         3.359 au  O             1.00      1 F:y            15
                        (      91.410 eV)
   391     391      1.000      -0.240 au  H             1.00      1 S              16
                        (      -6.532 eV)
   392     392       --         0.088 au  H             1.00      2 S              16
                        (       2.394 eV)
   393     393       --         1.502 au  H             1.00      3 S              16
                        (      40.869 eV)
   394     394       --         0.406 au  H             1.00      1 P:x            16
                        (      11.051 eV)
   395     395       --         0.406 au  H             1.00      1 P:y            16
                        (      11.051 eV)
   396     396       --         0.406 au  H             1.00      1 P:z            16
                        (      11.051 eV)
   397     397       --         2.569 au  H             1.00      1 D:z2           16
                        (      69.917 eV)
   398     398       --         2.569 au  H             1.00      1 D:x2-y2        16
                        (      69.917 eV)
   399     399       --         2.569 au  H             1.00      1 D:xy           16
                        (      69.917 eV)
   400     400       --         2.569 au  H             1.00      1 D:xz           16
                        (      69.917 eV)
   401     401       --         2.569 au  H             1.00      1 D:yz           16
                        (      69.917 eV)
   402     402      1.000      -0.240 au  H             1.00      1 S              17
                        (      -6.532 eV)
   403     403       --         0.088 au  H             1.00      2 S              17
                        (       2.394 eV)
   404     404       --         1.502 au  H             1.00      3 S              17
                        (      40.869 eV)
   405     405       --         0.406 au  H             1.00      1 P:x            17
                        (      11.051 eV)
   406     406       --         0.406 au  H             1.00      1 P:y            17
                        (      11.051 eV)
   407     407       --         0.406 au  H             1.00      1 P:z            17
                        (      11.051 eV)
   408     408       --         2.569 au  H             1.00      1 D:z2           17
                        (      69.917 eV)
   409     409       --         2.569 au  H             1.00      1 D:x2-y2        17
                        (      69.917 eV)
   410     410       --         2.569 au  H             1.00      1 D:xy           17
                        (      69.917 eV)
   411     411       --         2.569 au  H             1.00      1 D:xz           17
                        (      69.917 eV)
   412     412       --         2.569 au  H             1.00      1 D:yz           17
                        (      69.917 eV)
   413     413      1.000      -0.240 au  H             1.00      1 S              18
                        (      -6.532 eV)
   414     414       --         0.088 au  H             1.00      2 S              18
                        (       2.394 eV)
   415     415       --         1.502 au  H             1.00      3 S              18
                        (      40.869 eV)
   416     416       --         0.406 au  H             1.00      1 P:x            18
                        (      11.051 eV)
   417     417       --         0.406 au  H             1.00      1 P:y            18
                        (      11.051 eV)
   418     418       --         0.406 au  H             1.00      1 P:z            18
                        (      11.051 eV)
   419     419       --         2.569 au  H             1.00      1 D:z2           18
                        (      69.917 eV)
   420     420       --         2.569 au  H             1.00      1 D:x2-y2        18
                        (      69.917 eV)
   421     421       --         2.569 au  H             1.00      1 D:xy           18
                        (      69.917 eV)
   422     422       --         2.569 au  H             1.00      1 D:xz           18
                        (      69.917 eV)
   423     423       --         2.569 au  H             1.00      1 D:yz           18
                        (      69.917 eV)
   424     424      1.000      -0.240 au  H             1.00      1 S              19
                        (      -6.532 eV)
   425     425       --         0.088 au  H             1.00      2 S              19
                        (       2.394 eV)
   426     426       --         1.502 au  H             1.00      3 S              19
                        (      40.869 eV)
   427     427       --         0.406 au  H             1.00      1 P:x            19
                        (      11.051 eV)
   428     428       --         0.406 au  H             1.00      1 P:y            19
                        (      11.051 eV)
   429     429       --         0.406 au  H             1.00      1 P:z            19
                        (      11.051 eV)
   430     430       --         2.569 au  H             1.00      1 D:z2           19
                        (      69.917 eV)
   431     431       --         2.569 au  H             1.00      1 D:x2-y2        19
                        (      69.917 eV)
   432     432       --         2.569 au  H             1.00      1 D:xy           19
                        (      69.917 eV)
   433     433       --         2.569 au  H             1.00      1 D:xz           19
                        (      69.917 eV)
   434     434       --         2.569 au  H             1.00      1 D:yz           19
                        (      69.917 eV)
   435     435      1.000      -0.240 au  H             1.00      1 S              20
                        (      -6.532 eV)
   436     436       --         0.088 au  H             1.00      2 S              20
                        (       2.394 eV)
   437     437       --         1.502 au  H             1.00      3 S              20
                        (      40.869 eV)
   438     438       --         0.406 au  H             1.00      1 P:x            20
                        (      11.051 eV)
   439     439       --         0.406 au  H             1.00      1 P:y            20
                        (      11.051 eV)
   440     440       --         0.406 au  H             1.00      1 P:z            20
                        (      11.051 eV)
   441     441       --         2.569 au  H             1.00      1 D:z2           20
                        (      69.917 eV)
   442     442       --         2.569 au  H             1.00      1 D:x2-y2        20
                        (      69.917 eV)
   443     443       --         2.569 au  H             1.00      1 D:xy           20
                        (      69.917 eV)
   444     444       --         2.569 au  H             1.00      1 D:xz           20
                        (      69.917 eV)
   445     445       --         2.569 au  H             1.00      1 D:yz           20
                        (      69.917 eV)
   446     446      1.000      -0.240 au  H             1.00      1 S              21
                        (      -6.532 eV)
   447     447       --         0.088 au  H             1.00      2 S              21
                        (       2.394 eV)
   448     448       --         1.502 au  H             1.00      3 S              21
                        (      40.869 eV)
   449     449       --         0.406 au  H             1.00      1 P:x            21
                        (      11.051 eV)
   450     450       --         0.406 au  H             1.00      1 P:y            21
                        (      11.051 eV)
   451     451       --         0.406 au  H             1.00      1 P:z            21
                        (      11.051 eV)
   452     452       --         2.569 au  H             1.00      1 D:z2           21
                        (      69.917 eV)
   453     453       --         2.569 au  H             1.00      1 D:x2-y2        21
                        (      69.917 eV)
   454     454       --         2.569 au  H             1.00      1 D:xy           21
                        (      69.917 eV)
   455     455       --         2.569 au  H             1.00      1 D:xz           21
                        (      69.917 eV)
   456     456       --         2.569 au  H             1.00      1 D:yz           21
                        (      69.917 eV)
   457     457      1.000      -0.240 au  H             1.00      1 S              22
                        (      -6.532 eV)
   458     458       --         0.088 au  H             1.00      2 S              22
                        (       2.394 eV)
   459     459       --         1.502 au  H             1.00      3 S              22
                        (      40.869 eV)
   460     460       --         0.406 au  H             1.00      1 P:x            22
                        (      11.051 eV)
   461     461       --         0.406 au  H             1.00      1 P:y            22
                        (      11.051 eV)
   462     462       --         0.406 au  H             1.00      1 P:z            22
                        (      11.051 eV)
   463     463       --         2.569 au  H             1.00      1 D:z2           22
                        (      69.917 eV)
   464     464       --         2.569 au  H             1.00      1 D:x2-y2        22
                        (      69.917 eV)
   465     465       --         2.569 au  H             1.00      1 D:xy           22
                        (      69.917 eV)
   466     466       --         2.569 au  H             1.00      1 D:xz           22
                        (      69.917 eV)
   467     467       --         2.569 au  H             1.00      1 D:yz           22
                        (      69.917 eV)
   468     468      1.000      -0.240 au  H             1.00      1 S              23
[...]
                                    1.61%     1 P:z            -5.239  0.67     1 C
                                    1.59%     2 P:x             4.589  0.00    11 C
                                    1.54%     1 P:z            -5.239  0.67     3 C
                                    1.50%     2 S             -13.620  2.00     3 C
                                    1.38%     2 S               2.394  0.00    25 H
                                    1.35%     1 P:y            -5.239  0.67     9 C
                                    1.32%     2 S               2.394  0.00    20 H
                                    1.30%     3 S              40.869  0.00    27 H
                                    1.28%     2 P:x             4.589  0.00    10 C
                                    1.26%     3 S              40.869  0.00    26 H
                                   -1.23%     1 P:x            -5.239  0.67     5 C
                                    1.15%     1 P:y            -5.239  0.67     6 C
                                    1.07%     1 P:x            -5.239  0.67     7 C
                                   -1.04%     2 S               2.394  0.00    21 H
                                   -1.01%     1 P:z            -5.239  0.67     9 C



 =======================================================================
 Electrostatic potential at the Nuclei due to electrons and other nuclei
 =======================================================================
  
         Atom                  Potential
         ----                  ---------
     1)   C                  14.77082530
     2)   N                  18.41298858
     3)   C                  14.70867520
     4)   O                  22.47287231
     5)   N                  18.44080491
     6)   C                  14.72652957
     7)   C                  14.77953198
     8)   C                  14.75634436
     9)   C                  14.77154656
    10)   C                  14.77244454
    11)   C                  14.77291705
    12)   C                  14.77226581
    13)   C                  14.77087926
    14)   N                  18.30496912
    15)   C                  14.75320587
    16)   H                   1.13175039
    17)   H                   1.12946165
    18)   H                   1.11954622
    19)   H                   1.04267803
    20)   H                   1.09354450
    21)   H                   1.10951633
    22)   H                   1.10373554
    23)   H                   1.09114267
    24)   H                   1.09328518
    25)   H                   1.09347846
    26)   H                   1.09287565
    27)   H                   1.09025354
    28)   H                   1.10381505
    29)   H                   1.09567176
    30)   H                   1.09209005
 Mulliken charges used for AMS results%charges...


    =====================
     CALCULATION RESULTS
    =====================

Energy (hartree)            -6.49750494


--------------
Atomic charges
--------------
  Index   Atom    Charge
      1      C    0.7833
      2      N   -0.1534
      3      C    0.6441
      4      O   -0.6611
      5      N   -0.3712
      6      C    0.1764
      7      C    0.6489
      8      C   -0.0808
      9      C    0.2608
     10      C    0.2139
     11      C    0.2125
     12      C    0.2245
     13      C    0.2509
     14      N   -0.0608
     15      C    0.7748
     16      H   -0.1986
     17      H   -0.1725
     18      H   -0.2395
     19      H   -0.0499
     20      H   -0.1959
     21      H   -0.1907
     22      H   -0.2035
     23      H   -0.2091
     24      H   -0.2154
     25      H   -0.2085
     26      H   -0.2183
     27      H   -0.2101
     28      H   -0.1666
     29      H   -0.2011
     30      H   -0.1829


Dipole moment vector    (Debye):     3.48516437   -1.17638172    1.07249507
              magnitude (Debye):     3.83151279


-----------------------
Molecular orbitals info
-----------------------
n orbitals:              555
n spin:                    1

Note: only printing virtual orbitals with
      energy smaller than HOMO + 100. eV

HOMO (eV):              -4.6161
LUMO (eV):              -2.7507
HOMO-LUMO gap (eV):      1.8654

   Index   Energy (eV)    Occupation
     352       95.0140         0.000       
     351       94.8613         0.000       
     350       94.2973         0.000       
     349       94.0195         0.000       
     348       93.7229         0.000       
     347       93.4231         0.000       
     346       92.8498         0.000       
     345       92.7801         0.000       
     344       92.4655         0.000       
     343       92.1074         0.000       
     342       91.7971         0.000       
     341       91.4303         0.000       
     340       91.2572         0.000       
     339       90.7606         0.000       
     338       90.5306         0.000       
     337       90.2729         0.000       
     336       89.4906         0.000       
     335       88.6273         0.000       
     334       88.0376         0.000       
     333       87.1876         0.000       
     332       87.0335         0.000       
     331       86.9589         0.000       
     330       86.2732         0.000       
     329       85.9216         0.000       
     328       85.8353         0.000       
     327       84.7988         0.000       
     326       84.0274         0.000       
     325       83.3600         0.000       
     324       83.0884         0.000       
     323       82.9547         0.000       
     322       82.6796         0.000       
     321       82.5807         0.000       
     320       82.3555         0.000       
     319       81.7763         0.000       
     318       81.3081         0.000       
     317       80.9803         0.000       
     316       80.6855         0.000       
     315       80.3113         0.000       
     314       79.9106         0.000       
     313       79.7390         0.000       
     312       79.5332         0.000       
     311       79.1860         0.000       
     310       78.8848         0.000       
     309       78.7386         0.000       
     308       78.4163         0.000       
     307       78.2820         0.000       
     306       77.9018         0.000       
     305       77.6137         0.000       
     304       77.2381         0.000       
     303       77.0401         0.000       
     302       76.8224         0.000       
     301       76.5899         0.000       
     300       76.4626         0.000       
     299       76.1957         0.000       
     298       75.3726         0.000       
     297       74.7901         0.000       
     296       74.4200         0.000       
     295       74.1486         0.000       
     294       73.6592         0.000       
     293       73.3627         0.000       
     292       72.5546         0.000       
     291       72.2294         0.000       
     290       71.6094         0.000       
     289       70.6767         0.000       
     288       70.6377         0.000       
     287       70.0770         0.000       
     286       69.5707         0.000       
     285       69.0956         0.000       
     284       68.6070         0.000       
     283       68.4463         0.000       
     282       67.7338         0.000       
     281       67.2365         0.000       
     280       66.5796         0.000       
     279       66.2093         0.000       
     278       65.6690         0.000       
     277       65.2933         0.000       
     276       64.6737         0.000       
     275       64.5336         0.000       
     274       64.1547         0.000       
     273       63.2874         0.000       
     272       63.2234         0.000       
     271       62.4498         0.000       
     270       62.1985         0.000       
     269       61.8459         0.000       
     268       61.7561         0.000       
     267       61.1478         0.000       
     266       60.6421         0.000       
     265       59.8759         0.000       
     264       59.5077         0.000       
     263       58.3895         0.000       
     262       57.9535         0.000       
     261       57.6896         0.000       
     260       57.2000         0.000       
     259       57.1733         0.000       
     258       56.8517         0.000       
     257       56.3513         0.000       
     256       56.0187         0.000       
     255       55.6491         0.000       
     254       55.3204         0.000       
     253       55.1949         0.000       
     252       54.7752         0.000       
     251       54.5907         0.000       
     250       53.9234         0.000       
     249       53.6945         0.000       
     248       53.3283         0.000       
     247       53.1271         0.000       
     246       52.6630         0.000       
     245       51.5180         0.000       
     244       51.2107         0.000       
     243       51.0455         0.000       
     242       50.6762         0.000       
     241       50.4710         0.000       
     240       49.9995         0.000       
     239       49.8947         0.000       
     238       49.6265         0.000       
     237       49.3487         0.000       
     236       49.1458         0.000       
     235       48.7692         0.000       
     234       48.7070         0.000       
     233       48.0230         0.000       
     232       47.5950         0.000       
     231       46.9197         0.000       
     230       46.7926         0.000       
     229       46.2598         0.000       
     228       45.7017         0.000       
     227       45.0815         0.000       
     226       44.4707         0.000       
     225       44.2874         0.000       
     224       44.0666         0.000       
     223       43.5054         0.000       
     222       43.2747         0.000       
     221       42.5332         0.000       
     220       42.3264         0.000       
     219       42.1547         0.000       
     218       41.7312         0.000       
     217       41.4118         0.000       
     216       40.9260         0.000       
     215       40.6306         0.000       
     214       40.3760         0.000       
     213       39.7041         0.000       
     212       39.5668         0.000       
     211       39.2674         0.000       
     210       38.6515         0.000       
     209       38.6394         0.000       
     208       38.5482         0.000       
     207       38.0963         0.000       
     206       37.6897         0.000       
     205       37.2740         0.000       
     204       37.1128         0.000       
     203       36.7002         0.000       
     202       36.3028         0.000       
     201       36.1268         0.000       
     200       35.8572         0.000       
     199       35.5342         0.000       
     198       35.2194         0.000       
     197       35.0390         0.000       
     196       34.8520         0.000       
     195       34.3765         0.000       
     194       34.1095         0.000       
     193       33.8094         0.000       
     192       33.2350         0.000       
     191       32.9716         0.000       
     190       32.5380         0.000       
     189       32.2276         0.000       
     188       31.9875         0.000       
     187       31.4621         0.000       
     186       31.0646         0.000       
     185       30.8648         0.000       
     184       30.6938         0.000       
     183       30.5498         0.000       
     182       30.1485         0.000       
     181       30.0025         0.000       
     180       29.9316         0.000       
     179       29.4802         0.000       
     178       29.0599         0.000       
     177       28.7441         0.000       
     176       28.4253         0.000       
     175       27.9433         0.000       
     174       27.8244         0.000       
     173       27.5840         0.000       
     172       27.4393         0.000       
     171       27.0530         0.000       
     170       26.7286         0.000       
     169       26.3573         0.000       
     168       26.0839         0.000       
     167       25.9246         0.000       
     166       25.7972         0.000       
     165       25.3737         0.000       
     164       25.0527         0.000       
     163       24.6713         0.000       
     162       24.2593         0.000       
     161       23.6901         0.000       
     160       23.6545         0.000       
     159       23.3433         0.000       
     158       23.0163         0.000       
     157       22.5201         0.000       
     156       22.1811         0.000       
     155       21.9664         0.000       
     154       21.5517         0.000       
     153       21.5235         0.000       
     152       20.8814         0.000       
     151       20.5038         0.000       
     150       19.9236         0.000       
     149       19.4857         0.000       
     148       19.3697         0.000       
     147       18.9363         0.000       
     146       18.7025         0.000       
     145       18.2096         0.000       
     144       17.6571         0.000       
     143       17.6125         0.000       
     142       17.4868         0.000       
     141       17.0331         0.000       
     140       16.8984         0.000       
     139       16.6975         0.000       
     138       15.9126         0.000       
     137       15.5803         0.000       
     136       15.1757         0.000       
     135       14.9319         0.000       
     134       14.8024         0.000       
     133       14.3009         0.000       
     132       14.1540         0.000       
     131       13.6421         0.000       
     130       13.4440         0.000       
     129       13.3662         0.000       
     128       13.2721         0.000       
     127       12.9949         0.000       
     126       12.6838         0.000       
     125       12.5022         0.000       
     124       12.1087         0.000       
     123       11.8814         0.000       
     122       11.6834         0.000       
     121       11.3819         0.000       
     120       11.0942         0.000       
     119       10.8683         0.000       
     118       10.8554         0.000       
     117       10.6015         0.000       
     116       10.4241         0.000       
     115       10.3582         0.000       
     114       10.2032         0.000       
     113        9.8742         0.000       
     112        9.7655         0.000       
     111        9.4214         0.000       
     110        9.0035         0.000       
     109        8.8791         0.000       
     108        8.8248         0.000       
     107        8.7414         0.000       
     106        8.6542         0.000       
     105        8.5491         0.000       
     104        8.4319         0.000       
     103        8.2339         0.000       
     102        8.0682         0.000       
     101        7.9118         0.000       
     100        7.6857         0.000       
      99        7.4720         0.000       
      98        7.3625         0.000       
      97        7.1027         0.000       
      96        6.8483         0.000       
      95        6.7688         0.000       
      94        6.6431         0.000       
      93        6.3798         0.000       
      92        6.0510         0.000       
      91        5.7952         0.000       
      90        5.5181         0.000       
      89        5.2986         0.000       
      88        5.2104         0.000       
      87        4.9868         0.000       
      86        4.9088         0.000       
      85        4.8403         0.000       
      84        4.7537         0.000       
      83        4.4249         0.000       
      82        4.3830         0.000       
      81        4.3199         0.000       
      80        3.9647         0.000       
      79        3.8347         0.000       
      78        3.4464         0.000       
      77        3.1310         0.000       
      76        2.8149         0.000       
      75        2.5711         0.000       
      74        2.4942         0.000       
      73        2.2948         0.000       
      72        2.2907         0.000       
      71        2.0330         0.000       
      70        1.7866         0.000       
      69        1.6143         0.000       
      68        1.3697         0.000       
      67        1.1888         0.000       
      66        1.0978         0.000       
      65        0.9783         0.000       
      64        0.8755         0.000       
      63        0.6193         0.000       
      62        0.3215         0.000       
      61        0.0237         0.000       
      60       -0.0174         0.000       
      59       -0.3909         0.000       
      58       -1.2084         0.000       
      57       -1.5759         0.000       
      56       -2.7507         0.000 < LUMO
      55       -4.6161         2.000 < HOMO
      54       -5.0340         2.000       
      53       -5.4209         2.000       
      52       -6.3869         2.000       
      51       -6.6547         2.000       
      50       -6.8362         2.000       
      49       -8.1576         2.000       
      48       -8.6416         2.000       
      47       -8.7128         2.000       
      46       -8.8799         2.000       
      45       -9.1560         2.000       
      44       -9.3154         2.000       
      43       -9.5685         2.000       
      42       -9.7291         2.000       
      41       -9.7792         2.000       
      40      -10.2996         2.000       
      39      -10.3389         2.000       
      38      -10.5276         2.000       
      37      -10.6395         2.000       
      36      -10.8229         2.000       
      35      -11.0601         2.000       
      34      -11.3775         2.000       
      33      -11.8987         2.000       
      32      -12.2128         2.000       
      31      -13.0261         2.000       
      30      -13.1439         2.000       
      29      -13.5518         2.000       
      28      -14.4262         2.000       
      27      -15.2351         2.000       
      26      -15.5832         2.000       
      25      -16.8498         2.000       
      24      -17.3438         2.000       
      23      -18.5391         2.000       
      22      -18.7751         2.000       
      21      -19.3630         2.000       
      20      -20.5013         2.000       
      19      -21.7091         2.000       
      18      -22.1897         2.000       
      17      -24.6686         2.000       
      16      -26.0928         2.000       
      15     -270.1676         2.000       
      14     -270.3617         2.000       
      13     -270.4697         2.000       
      12     -270.4872         2.000       
      11     -270.4922         2.000       
      10     -270.5161         2.000       
       9     -270.5353         2.000       
       8     -270.8883         2.000       
       7     -270.8973         2.000       
       6     -271.6906         2.000       
       5     -272.1523         2.000       
       4     -381.0765         2.000       
       3     -381.5357         2.000       
       2     -384.5741         2.000       
       1     -509.4746         2.000       

AMS application finished. Exiting.
NORMAL TERMINATION
     Total cpu time:     146.58
  Total system time:       0.48
 Total elapsed time:     147.95
NORMAL TERMINATION
