srun: Step created for StepId=662414.38

 *******************************************************************************
 *                                                                             *
 *  --------------------------------                                           *
 *   Amsterdam Modeling Suite (AMS)              2026.103                      *
 *  --------------------------------                                           *
 *                                               r260501 2026-05-01 873454b5   *
 *                                                                             *
 *                                                                             *
 *                              =================                              *
 *                              |               |                              *
 *                              |     A M S     |                              *
 *                              |               |                              *
 *                              =================                              *
 *                                                                             *
 *                                                                             *
 *   Online information and documentation:  https://www.scm.com/support/       *
 *   E-mail:  support@scm.com   info@scm.com                                   *
 *                                                                             *
 *   Scientific publications using AMS results must be properly referenced     *
 *   See the User Manuals (or the web site) for recommended citations          *
 *   The terms and conditions of the End User License Agreement apply to       *
 *   the use of AMS, https://www.scm.com/license-terms/                        *
 *                                                                             *
 **********************  x86_64_linux_intel / intelmpi  ************************
 
 Licensed to: Jong-June Jeon / University of Seoul 2026-06-02 13:44:15
 SCM User ID: u30731
  
 AMS 2026.103  RunTime: Jun03-2026 13:26:37  ShM Nodes: 1  Procs: 1

 AMS jobname: c5_fragB_opt
 AMS jobid  : 1919374931

 Start   directory: /gpfs/home1/yeseo1ee/projects/eda-asm-prediction/ADF_800/adf_outputs/batch_003/qmrxn20_e2_A_E_A_E_B_B/
 Results directory: /gpfs/home1/yeseo1ee/projects/eda-asm-prediction/ADF_800/adf_outputs/batch_003/qmrxn20_e2_A_E_A_E_B_B/c5_fragB_opt.results/
 Scratch directory: /tmp/amstmp_c5_fragB_opt_kid0.1919374931/

 RNG seed: 1657000600 768330712 -690703130 842650183 -1395032238 -1381364577 1226750699 -459499734



                      ************************************************************************
                      *  ADF 2026.103  RunTime: Jun03-2026 13:26:37  ShM Nodes: 1  Procs: 1  *
                      ************************************************************************
  

       ***************************
       *  GEOMETRY OPTIMIZATION  *
       ***************************

Optimization Method                    Quasi Newton
Optimization Coordinates               Delocalized Coordinates
Optimize lattice                       F
 
 ------------------------------------------------------
 Convergence criteria (Hartree,Angstrom)
 ------------------------------------------------------
 Maximum gradient               0.000100000000
 Maximum rms gradient           0.000066666667
 Maximum step allowed           0.010000000000
 Maximum rms step allowed       0.006666666667
 Maximum energy change allowe   0.000110000000
 Maximum stress energy allowe   0.000500000000
 
Initial model Hessian                  Automatic Hessian
 
------------------------------------
Quasi-Newton Optimizer Parameters
------------------------------------
Hessian Update Method                  BFGS
Maximum number of steps                  200
First GDIIS cycle                          0
Maximum GDIIS vectors                      0
Trust radius (bohr)                        0.200000
Trust radius varies                        T
Constraints converged at all steps         T
Use projector                              T
 
 Rigid motions settings for: old optimizer
 Atomic rotations (x,y,z):     T T T
 Atomic translations (x,y,z):  T T T
 Tolerance:                  1.000000000000000E-006

--------
Geometry
--------
Formula: C2H6ClN2
Atoms
  Index Symbol   x (angstrom)   y (angstrom)   z (angstrom)
      1      C    -0.33571074    -0.02648657    -0.15470080
      2      C    -0.13828622     0.03677687     1.26194071
      3     Cl     1.47483303    -0.24355034    -1.18219293
      4      H    -0.77003491    -0.96843945    -0.49121071
      5      H     0.29993230     0.98853391     1.58514492
      6      N     0.48610712    -1.10319373     1.91823359
      7      H     1.29193254    -1.39117292     1.36553150
      8      H    -0.16462759    -1.88019217     1.91406469
      9      N    -0.96554075     1.08745326    -0.81032531
     10      H    -1.89061108     1.12037779    -0.38260576
     11      H    -0.47751802     1.92500784    -0.50787651

Total System Charge              0.00000


----------------
ADF Engine Input
----------------
 
   Basis
     Type TZ2P
     Core None
   End
   XC
     GGA BLYP
     Dispersion GRIMME3 BJDAMP
   End
   Symmetry NOSYM
   NumericalQuality Normal
   Unrestricted No
   SCF
     Iterations 200
     Converge 1.0e-6
   End
   Save TAPE21
 

 Title: *** (NO TITLE) ***

 Using automatic Hessian for delocalized coordinates.
 *** GO1_GOStep1 ***

 Integrated fractional orbital density (NFOD):         1.000

 Energy gradients wrt nuclear displacements
 ==========================================

     Atom      Cartesian (a.u./angstrom)
                 X         Y         Z
 ----------------------------------------
     1 C     0.036909  0.018092  0.023334
     2 C    -0.113882  0.018016  0.014538
     3 Cl    0.009352 -0.002013 -0.020751
     4 H     0.000295  0.005116  0.003455
     5 H     0.019309 -0.005928 -0.015448
     6 N     0.041752 -0.029837 -0.016338
     7 H    -0.014874  0.001449  0.003070
     8 H     0.005954  0.018372  0.002743
     9 N     0.000404  0.005530 -0.005831
    10 H     0.017121 -0.010018  0.009607
    11 H    -0.002339 -0.018779  0.001621
 ----------------------------------------
 
----------------------------------------------------------------------
Geometry Convergence after Step   1       (Hartree/Angstrom,Angstrom)
----------------------------------------------------------------------
current energy                               -1.98278868 Hartree
energy change                      -1.98278868     0.00011000    F
constrained gradient max            0.11389307     0.00010000    F
constrained gradient rms            0.02544778     0.00006667    F
gradient max                        0.11389307
gradient rms                        0.02544778
cart. step max                      0.05705493     0.01000000    F
cart. step rms                      0.02519865     0.00666667    F
 

--------
Geometry
--------
Formula: C2H6ClN2
Atoms
  Index Symbol   x (angstrom)   y (angstrom)   z (angstrom)
      1      C    -0.34812455    -0.02411137    -0.17093250
      2      C    -0.09169553     0.01434969     1.24533604
      3     Cl     1.47396988    -0.23831848    -1.15861435
      4      H    -0.78657372    -0.96386569    -0.51608467
      5      H     0.32759832     0.96675535     1.59363282
      6      N     0.49526222    -1.11391607     1.93922539
      7      H     1.32533019    -1.42047630     1.42258643
      8      H    -0.15887765    -1.89800977     1.93306068
      9      N    -0.98862798     1.10325125    -0.81854087
     10      H    -1.93122497     1.16105207    -0.42065933
     11      H    -0.50656053     1.95840381    -0.53300625

Total System Charge              0.00000

 *** GO1_GOStep2 ***

 Integrated fractional orbital density (NFOD):         1.000

 Energy gradients wrt nuclear displacements
 ==========================================

     Atom      Cartesian (a.u./angstrom)
                 X         Y         Z
 ----------------------------------------
     1 C     0.037174  0.013007  0.011608
     2 C    -0.089229  0.004921  0.010138
     3 Cl    0.007748 -0.002848 -0.013515
     4 H     0.000021  0.001295  0.001324
     5 H     0.016072 -0.003630 -0.007767
     6 N     0.039291 -0.016869 -0.000032
     7 H    -0.009542 -0.000829 -0.003175
     8 H    -0.000446  0.008653  0.004904
     9 N    -0.006247  0.003897 -0.014841
    10 H     0.005911 -0.001792  0.009077
    11 H    -0.000751 -0.005806  0.002278
 ----------------------------------------

 dE(predicted):    -0.72484E-02, dE(actual):    -0.72456E-02, Trust radius:    0.400000, all in a.u.
 
----------------------------------------------------------------------
Geometry Convergence after Step   2       (Hartree/Angstrom,Angstrom)
----------------------------------------------------------------------
current energy                               -1.99003432 Hartree
energy change                      -0.00724564     0.00011000    F
constrained gradient max            0.08925276     0.00010000    F
constrained gradient rms            0.01971299     0.00006667    F
gradient max                        0.08925276
gradient rms                        0.01971299
cart. step max                      0.10537824     0.01000000    F
cart. step rms                      0.03105940     0.00666667    F
 

--------
Geometry
--------
Formula: C2H6ClN2
Atoms
  Index Symbol   x (angstrom)   y (angstrom)   z (angstrom)
      1      C    -0.37330463    -0.03350762    -0.18053359
      2      C    -0.02560586     0.00488544     1.21893900
      3     Cl     1.45316713    -0.24021005    -1.12949525
      4      H    -0.82803709    -0.96801469    -0.52285968
      5      H     0.35179949     0.96297516     1.59615651
      6      N     0.48715430    -1.11658685     1.94377715
      7      H     1.37884301    -1.42136416     1.52796467
      8      H    -0.15477901    -1.91433107     1.86768293
      9      N    -1.00345047     1.10856047    -0.81211398
     10      H    -1.96133989     1.19406237    -0.45349536
     11      H    -0.51397129     1.96864550    -0.54001902

Total System Charge              0.00000

 *** GO1_GOStep3 ***

 Integrated fractional orbital density (NFOD):         1.000

 Energy gradients wrt nuclear displacements
 ==========================================

     Atom      Cartesian (a.u./angstrom)
                 X         Y         Z
 ----------------------------------------
     1 C     0.030687  0.002438 -0.003366
     2 C    -0.050417 -0.001227  0.001069
     3 Cl    0.000165 -0.000839 -0.000733
     4 H    -0.000702 -0.000686 -0.001500
     5 H     0.007384  0.000024  0.001758
     6 N     0.030346 -0.001322  0.012252
     7 H    -0.005337 -0.004687 -0.011394
     8 H    -0.005516  0.000866  0.006134
     9 N    -0.007409 -0.000577 -0.013656
    10 H    -0.000014  0.003427  0.007201
    11 H     0.000813  0.002583  0.002234
 ----------------------------------------

 dE(predicted):    -0.73300E-02, dE(actual):    -0.81023E-02, Trust radius:    0.800000, all in a.u.
 
----------------------------------------------------------------------
Geometry Convergence after Step   3       (Hartree/Angstrom,Angstrom)
----------------------------------------------------------------------
current energy                               -1.99813663 Hartree
energy change                      -0.00810231     0.00011000    F
constrained gradient max            0.05044201     0.00010000    F
constrained gradient rms            0.01255854     0.00006667    F
gradient max                        0.05044201
gradient rms                        0.01255854
cart. step max                      0.20956175     0.01000000    F
cart. step rms                      0.05254305     0.00666667    F
 

--------
Geometry
--------
Formula: C2H6ClN2
Atoms
  Index Symbol   x (angstrom)   y (angstrom)   z (angstrom)
      1      C    -0.39788644    -0.03739533    -0.18282046
      2      C     0.03170013    -0.00392044     1.19355620
      3     Cl     1.40543764    -0.26946193    -1.15227164
      4      H    -0.88287244    -0.96214354    -0.50954034
      5      H     0.37701331     0.95394116     1.59432696
      6      N     0.45450797    -1.12458668     1.94092418
      7      H     1.43514830    -1.37504817     1.73752642
      8      H    -0.11303929    -1.95276373     1.71608963
      9      N    -1.01043894     1.11662866    -0.80003283
     10      H    -1.97941768     1.22465558    -0.48047669
     11      H    -0.50967687     1.97520893    -0.54127804

Total System Charge              0.00000

 *** GO1_GOStep4 ***

 Integrated fractional orbital density (NFOD):         1.000

 Energy gradients wrt nuclear displacements
 ==========================================

     Atom      Cartesian (a.u./angstrom)
                 X         Y         Z
 ----------------------------------------
     1 C     0.024693 -0.003014 -0.013823
     2 C    -0.019506 -0.004603 -0.006360
     3 Cl   -0.009373  0.001940  0.010138
     4 H    -0.001039 -0.000708 -0.002302
     5 H    -0.000477  0.001672  0.005830
     6 N     0.020479  0.007884  0.024375
     7 H     0.000336 -0.007569 -0.015861
     8 H    -0.007924 -0.003907  0.002785
     9 N    -0.006201 -0.003411 -0.011560
    10 H    -0.002513  0.005796  0.005074
    11 H     0.001524  0.005919  0.001704
 ----------------------------------------

 dE(predicted):    -0.95494E-02, dE(actual):    -0.79210E-02, Trust radius:    0.800000, all in a.u.
 
----------------------------------------------------------------------
Geometry Convergence after Step   4       (Hartree/Angstrom,Angstrom)
----------------------------------------------------------------------
current energy                               -2.00605764 Hartree
energy change                      -0.00792101     0.00011000    F
constrained gradient max            0.02473585     0.00010000    F
constrained gradient rms            0.00992391     0.00006667    F
gradient max                        0.02473585
gradient rms                        0.00992391
cart. step max                      0.21203255     0.01000000    F
cart. step rms                      0.04977429     0.00666667    F
 

--------
Geometry
--------
Formula: C2H6ClN2
Atoms
  Index Symbol   x (angstrom)   y (angstrom)   z (angstrom)
      1      C    -0.40591319    -0.03697713    -0.18668785
      2      C     0.07599454    -0.01034491     1.16932775
      3     Cl     1.36119177    -0.29588363    -1.21997979
      4      H    -0.91549597    -0.95368133    -0.49670581
      5      H     0.39629997     0.94433623     1.59079514
      6      N     0.42068688    -1.13194472     1.92534846
      7      H     1.43304020    -1.33083393     1.94955897
      8      H    -0.05094945    -1.98048664     1.58785424
      9      N    -1.01301465     1.12351666    -0.78325426
     10      H    -1.98630645     1.23786149    -0.48446514
     11      H    -0.50505796     1.97955240    -0.53578832

Total System Charge              0.00000

 *** GO1_GOStep5 ***

 Integrated fractional orbital density (NFOD):         1.000

 Energy gradients wrt nuclear displacements
 ==========================================

     Atom      Cartesian (a.u./angstrom)
                 X         Y         Z
 ----------------------------------------
     1 C     0.020701 -0.004151 -0.019076
     2 C    -0.002280 -0.007467 -0.006583
     3 Cl   -0.014974  0.004046  0.014886
     4 H    -0.001100 -0.000368 -0.002269
     5 H    -0.004174  0.001327  0.006005
     6 N     0.007968  0.014023  0.025384
     7 H     0.005944 -0.008420 -0.014212
     8 H    -0.006936 -0.005109 -0.000428
     9 N    -0.004286 -0.005264 -0.008184
    10 H    -0.002449  0.005791  0.003424
    11 H     0.001585  0.005591  0.001051
 ----------------------------------------

 dE(predicted):    -0.90978E-02, dE(actual):    -0.61365E-02, Trust radius:    0.800000, all in a.u.
 
----------------------------------------------------------------------
Geometry Convergence after Step   5       (Hartree/Angstrom,Angstrom)
----------------------------------------------------------------------
current energy                               -2.01219418 Hartree
energy change                      -0.00613654     0.00011000    F
constrained gradient max            0.02547980     0.00010000    F
constrained gradient rms            0.00941289     0.00006667    F
gradient max                        0.02547980
gradient rms                        0.00941289
cart. step max                      0.21576566     0.01000000    F
cart. step rms                      0.05327928     0.00666667    F
 

--------
Geometry
--------
Formula: C2H6ClN2
Atoms
  Index Symbol   x (angstrom)   y (angstrom)   z (angstrom)
      1      C    -0.40494126    -0.03302704    -0.18962358
      2      C     0.11838233    -0.01372678     1.14439409
      3     Cl     1.31609638    -0.33255194    -1.31510500
      4      H    -0.93652395    -0.94315947    -0.47867613
      5      H     0.40840464     0.93694772     1.58943116
      6      N     0.39321577    -1.14073357     1.89449702
      7      H     1.37506049    -1.28481452     2.16532463
      8      H     0.04123846    -2.00354783     1.46925605
      9      N    -1.01233241     1.13183120    -0.76129358
     10      H    -1.98791003     1.24256818    -0.47672505
     11      H    -0.50021475     1.98532853    -0.52547622

Total System Charge              0.00000

 *** GO1_GOStep6 ***

 Integrated fractional orbital density (NFOD):         1.000

 Energy gradients wrt nuclear displacements
 ==========================================

     Atom      Cartesian (a.u./angstrom)
                 X         Y         Z
 ----------------------------------------
     1 C     0.018404 -0.003877 -0.020540
     2 C     0.007758 -0.009733 -0.003672
     3 Cl   -0.017737  0.005372  0.016286
     4 H    -0.000937  0.000001 -0.001102
     5 H    -0.006426  0.000617  0.004426
     6 N    -0.002429  0.017027  0.016700
     7 H     0.008010 -0.008247 -0.009142
     8 H    -0.003582 -0.003665 -0.001465
     9 N    -0.002876 -0.005098 -0.003964
    10 H    -0.001198  0.004446  0.002266
    11 H     0.001014  0.003157  0.000209
 ----------------------------------------

 dE(predicted):    -0.75583E-02, dE(actual):    -0.53015E-02, Trust radius:    0.800000, all in a.u.
 
----------------------------------------------------------------------
Geometry Convergence after Step   6       (Hartree/Angstrom,Angstrom)
----------------------------------------------------------------------
current energy                               -2.01749568 Hartree
energy change                      -0.00530150     0.00011000    F
constrained gradient max            0.02057304     0.00010000    F
constrained gradient rms            0.00874179     0.00006667    F
gradient max                        0.02057304
gradient rms                        0.00874179
cart. step max                      0.21784415     0.01000000    F
cart. step rms                      0.06134500     0.00666667    F
 

--------
Geometry
--------
Formula: C2H6ClN2
Atoms
  Index Symbol   x (angstrom)   y (angstrom)   z (angstrom)
      1      C    -0.40413086    -0.02582943    -0.19010737
      2      C     0.16170364    -0.01731042     1.11749147
      3     Cl     1.26602046    -0.38698032    -1.42411459
      4      H    -0.95752782    -0.92838432    -0.45861953
      5      H     0.43045914     0.92568564     1.58634920
      6      N     0.37916327    -1.15388174     1.85167935
      7      H     1.25003867    -1.23064466     2.38316878
      8      H     0.18391794    -2.02691988     1.36143322
      9      N    -1.00901745     1.14617553    -0.73474285
     10      H    -1.99074181     1.24501086    -0.47607731
     11      H    -0.49940950     1.99819324    -0.50045698

Total System Charge              0.00000

 *** GO1_GOStep7 ***

 Integrated fractional orbital density (NFOD):         1.000

 Energy gradients wrt nuclear displacements
 ==========================================

     Atom      Cartesian (a.u./angstrom)
                 X         Y         Z
 ----------------------------------------
     1 C     0.017522 -0.003869 -0.018199
     2 C     0.013863 -0.011655 -0.001539
     3 Cl   -0.018087  0.006418  0.015559
     4 H    -0.000630 -0.000518 -0.000044
     5 H    -0.006367  0.000067  0.002457
     6 N    -0.010088  0.017203  0.004863
     7 H     0.006579 -0.006797 -0.002921
     8 H    -0.000544 -0.001247 -0.000227
     9 N    -0.003014 -0.003145 -0.000966
    10 H     0.000127  0.002796  0.001670
    11 H     0.000638  0.000748 -0.000652
 ----------------------------------------

 dE(predicted):    -0.49278E-02, dE(actual):    -0.42670E-02, Trust radius:    0.800000, all in a.u.
 
----------------------------------------------------------------------
Geometry Convergence after Step   7       (Hartree/Angstrom,Angstrom)
----------------------------------------------------------------------
current energy                               -2.02176268 Hartree
energy change                      -0.00426700     0.00011000    F
constrained gradient max            0.01822510     0.00010000    F
constrained gradient rms            0.00815422     0.00006667    F
gradient max                        0.01822510
gradient rms                        0.00815422
cart. step max                      0.20955291     0.01000000    F
cart. step rms                      0.06082828     0.00666667    F
 

--------
Geometry
--------
Formula: C2H6ClN2
Atoms
  Index Symbol   x (angstrom)   y (angstrom)   z (angstrom)
      1      C    -0.42772168    -0.01620340    -0.17734760
      2      C     0.17009557    -0.02237001     1.10869315
      3     Cl     1.21124231    -0.48933294    -1.47637423
      4      H    -1.01018376    -0.90310873    -0.43305744
      5      H     0.41530657     0.91057580     1.60709815
      6      N     0.40512285    -1.17550051     1.80386047
      7      H     1.12549661    -1.18058785     2.52262971
      8      H     0.39347085    -2.04020564     1.26706292
      9      N    -0.99494658     1.17164512    -0.71863567
     10      H    -1.98992025     1.27297631    -0.52425571
     11      H    -0.48748681     2.01722635    -0.46367037

Total System Charge              0.00000

 *** GO1_GOStep8 ***

 Integrated fractional orbital density (NFOD):         1.000

 Energy gradients wrt nuclear displacements
 ==========================================

     Atom      Cartesian (a.u./angstrom)
                 X         Y         Z
 ----------------------------------------
     1 C     0.018244 -0.007152 -0.012587
     2 C     0.015042 -0.010001 -0.003105
     3 Cl   -0.017532  0.008211  0.014613
     4 H    -0.000744 -0.001272  0.000718
     5 H    -0.004939 -0.000766  0.001802
     6 N    -0.009570  0.012636 -0.000799
     7 H     0.002686 -0.004741  0.000468
     8 H     0.000915 -0.000000  0.001220
     9 N    -0.005072  0.000720 -0.003568
    10 H     0.000343  0.002176  0.002218
    11 H     0.000628  0.000190 -0.000979
 ----------------------------------------

 dE(predicted):    -0.26422E-02, dE(actual):    -0.27734E-02, Trust radius:    0.800000, all in a.u.
 
----------------------------------------------------------------------
Geometry Convergence after Step   8       (Hartree/Angstrom,Angstrom)
----------------------------------------------------------------------
current energy                               -2.02453612 Hartree
energy change                      -0.00277344     0.00011000    F
constrained gradient max            0.01829327     0.00010000    F
constrained gradient rms            0.00744989     0.00006667    F
gradient max                        0.01829327
gradient rms                        0.00744989
cart. step max                      0.21140001     0.01000000    F
cart. step rms                      0.05988344     0.00666667    F
 

--------
Geometry
--------
Formula: C2H6ClN2
Atoms
  Index Symbol   x (angstrom)   y (angstrom)   z (angstrom)
      1      C    -0.46360521    -0.00503229    -0.15535875
      2      C     0.15155471    -0.02218383     1.11634556
      3     Cl     1.15770308    -0.62784176    -1.48472782
      4      H    -1.07570844    -0.87113836    -0.40728989
      5      H     0.37447613     0.90188553     1.64040849
      6      N     0.45333260    -1.19190095     1.75772260
      7      H     1.03607994    -1.15769518     2.58515699
      8      H     0.60487086    -2.01773215     1.18466202
      9      N    -0.96997863     1.19937188    -0.70464939
     10      H    -1.97899791     1.30119951    -0.61786028
     11      H    -0.47925145     2.03618209    -0.39840614

Total System Charge              0.00000

 *** GO1_GOStep9 ***

 Integrated fractional orbital density (NFOD):         1.000

 Energy gradients wrt nuclear displacements
 ==========================================

     Atom      Cartesian (a.u./angstrom)
                 X         Y         Z
 ----------------------------------------
     1 C     0.020373 -0.012603 -0.006618
     2 C     0.010407 -0.001705 -0.005173
     3 Cl   -0.016135  0.009962  0.012613
     4 H    -0.001354 -0.001355  0.001022
     5 H    -0.003100 -0.001666  0.001002
     6 N    -0.005349  0.002748 -0.001163
     7 H    -0.001944 -0.002430 -0.000769
     8 H     0.001139  0.001190  0.003720
     9 N    -0.004863  0.005172 -0.007936
    10 H     0.000022  0.001255  0.004203
    11 H     0.000804 -0.000569 -0.000902
 ----------------------------------------

 dE(predicted):    -0.22838E-02, dE(actual):    -0.25172E-02, Trust radius:    0.800000, all in a.u.
 
----------------------------------------------------------------------
Geometry Convergence after Step   9       (Hartree/Angstrom,Angstrom)
----------------------------------------------------------------------
current energy                               -2.02705328 Hartree
energy change                      -0.00251716     0.00011000    F
constrained gradient max            0.02038367     0.00010000    F
constrained gradient rms            0.00672176     0.00006667    F
gradient max                        0.02038367
gradient rms                        0.00672176
cart. step max                      0.21246397     0.01000000    F
cart. step rms                      0.07219983     0.00666667    F
 

--------
Geometry
--------
Formula: C2H6ClN2
Atoms
  Index Symbol   x (angstrom)   y (angstrom)   z (angstrom)
      1      C    -0.51602008     0.01190742    -0.11732633
      2      C     0.10854379    -0.01725703     1.14401598
      3     Cl     1.10055838    -0.82098719    -1.44099742
      4      H    -1.15196744    -0.83083988    -0.37847731
      5      H     0.31770636     0.89792089     1.69017619
      6      N     0.52165906    -1.19823914     1.70212655
      7      H     0.98512341    -1.16662550     2.59705926
      8      H     0.81733483    -1.94490765     1.07889815
      9      N    -0.93781832     1.22780104    -0.68413142
     10      H    -1.94549061     1.32929926    -0.76932451
     11      H    -0.48915370     2.05704228    -0.30601575

Total System Charge              0.00000

 *** GO1_GOStep10 ***

 Integrated fractional orbital density (NFOD):         1.000

 Energy gradients wrt nuclear displacements
 ==========================================

     Atom      Cartesian (a.u./angstrom)
                 X         Y         Z
 ----------------------------------------
     1 C     0.023162 -0.019198 -0.001999
     2 C    -0.001462  0.010963 -0.004431
     3 Cl   -0.015286  0.010917  0.012241
     4 H    -0.002311 -0.000229  0.001486
     5 H    -0.000086 -0.002320 -0.000723
     6 N     0.003744 -0.009493 -0.001495
     7 H    -0.006333 -0.000021 -0.004653
     8 H     0.001527  0.001583  0.006462
     9 N    -0.002660  0.009638 -0.013182
    10 H    -0.000689  0.000059  0.006328
    11 H     0.000395 -0.001899 -0.000035
 ----------------------------------------

 dE(predicted):    -0.35314E-02, dE(actual):    -0.32931E-02, Trust radius:    1.000000, all in a.u.
 
----------------------------------------------------------------------
Geometry Convergence after Step  10       (Hartree/Angstrom,Angstrom)
----------------------------------------------------------------------
current energy                               -2.03034634 Hartree
energy change                      -0.00329306     0.00011000    F
constrained gradient max            0.02316524     0.00010000    F
constrained gradient rms            0.00797707     0.00006667    F
gradient max                        0.02316524
gradient rms                        0.00797707
cart. step max                      0.21190310     0.01000000    F
cart. step rms                      0.07576073     0.00666667    F
 

--------
Geometry
--------
Formula: C2H6ClN2
Atoms
  Index Symbol   x (angstrom)   y (angstrom)   z (angstrom)
      1      C    -0.57203147     0.03175464    -0.06690908
      2      C     0.05547120    -0.00907284     1.18833980
      3     Cl     1.04710837    -1.03289030    -1.37951755
      4      H    -1.20897814    -0.79527910    -0.35825172
      5      H     0.26754203     0.90345693     1.74171059
      6      N     0.58740168    -1.18545024     1.64860500
      7      H     0.98909185    -1.19206885     2.57105190
      8      H     0.95408487    -1.83769665     0.95873750
      9      N    -0.90565270     1.24829578    -0.64257665
     10      H    -1.86448026     1.33831022    -0.95979718
     11      H    -0.53908174     2.07575490    -0.18538921

Total System Charge              0.00000

 *** GO1_GOStep11 ***

 Integrated fractional orbital density (NFOD):         1.000

 Energy gradients wrt nuclear displacements
 ==========================================

     Atom      Cartesian (a.u./angstrom)
                 X         Y         Z
 ----------------------------------------
     1 C     0.023007 -0.021633 -0.003633
     2 C    -0.016644  0.021991  0.001247
     3 Cl   -0.014543  0.011265  0.013097
     4 H    -0.003205  0.002473  0.002318
     5 H     0.003470 -0.001548 -0.003509
     6 N     0.014373 -0.020554 -0.009336
     7 H    -0.009352  0.002500 -0.007117
     8 H     0.001300  0.004012  0.008917
     9 N     0.004009  0.007816 -0.011187
    10 H    -0.001053 -0.002279  0.007287
    11 H    -0.001363 -0.004043  0.001916
 ----------------------------------------

 dE(predicted):    -0.43976E-02, dE(actual):    -0.36123E-02, Trust radius:    1.000000, all in a.u.
 
----------------------------------------------------------------------
Geometry Convergence after Step  11       (Hartree/Angstrom,Angstrom)
----------------------------------------------------------------------
current energy                               -2.03395865 Hartree
energy change                      -0.00361230     0.00011000    F
constrained gradient max            0.02303321     0.00010000    F
constrained gradient rms            0.01040454     0.00006667    F
gradient max                        0.02303321
gradient rms                        0.01040454
cart. step max                      0.21741385     0.01000000    F
cart. step rms                      0.08131233     0.00666667    F
 

--------
Geometry
--------
Formula: C2H6ClN2
Atoms
  Index Symbol   x (angstrom)   y (angstrom)   z (angstrom)
      1      C    -0.62753478     0.05493881    -0.00573158
      2      C    -0.00244772    -0.00640087     1.25028074
      3     Cl     0.99638295    -1.24108148    -1.35719305
      4      H    -1.22397519    -0.77217449    -0.35807106
      5      H     0.22906227     0.91331314     1.79066577
      6      N     0.64168170    -1.15713388     1.61602421
      7      H     1.06646494    -1.19775113     2.52785531
      8      H     0.97387102    -1.74098783     0.84461163
      9      N    -0.88784393     1.26396250    -0.57188863
     10      H    -1.69470620     1.33235993    -1.17721103
     11      H    -0.66047937     2.09606979    -0.04333892

Total System Charge              0.00000

 *** GO1_GOStep12 ***

 Integrated fractional orbital density (NFOD):         1.000

 Energy gradients wrt nuclear displacements
 ==========================================

     Atom      Cartesian (a.u./angstrom)
                 X         Y         Z
 ----------------------------------------
     1 C     0.016282 -0.008217 -0.014125
     2 C    -0.030262  0.021750  0.011269
     3 Cl   -0.010659  0.008601  0.009780
     4 H    -0.004189  0.006059  0.004034
     5 H     0.006589  0.001210 -0.006612
     6 N     0.024307 -0.025854 -0.015909
     7 H    -0.009407  0.004873 -0.004814
     8 H    -0.002555  0.008559  0.007864
     9 N     0.014534 -0.006043  0.000004
    10 H     0.000639 -0.004281  0.005122
    11 H    -0.005279 -0.006658  0.003388
 ----------------------------------------

 dE(predicted):    -0.30635E-02, dE(actual):    -0.29113E-02, Trust radius:    1.000000, all in a.u.
 
----------------------------------------------------------------------
Geometry Convergence after Step  12       (Hartree/Angstrom,Angstrom)
----------------------------------------------------------------------
current energy                               -2.03686994 Hartree
energy change                      -0.00291129     0.00011000    F
constrained gradient max            0.03027760     0.00010000    F
constrained gradient rms            0.01187818     0.00006667    F
gradient max                        0.03027760
gradient rms                        0.01187818
cart. step max                      0.09266490     0.01000000    F
cart. step rms                      0.02767448     0.00666667    F
 

--------
Geometry
--------
Formula: C2H6ClN2
Atoms
  Index Symbol   x (angstrom)   y (angstrom)   z (angstrom)
      1      C    -0.61934335     0.06304261    -0.00343973
      2      C     0.00764848    -0.00751596     1.25584712
      3     Cl     1.02367671    -1.23172426    -1.40965249
      4      H    -1.17396276    -0.78210677    -0.38021492
      5      H     0.25215259     0.91660993     1.78455246
      6      N     0.62775699    -1.15631994     1.64533051
      7      H     1.11142222    -1.18030008     2.53171510
      8      H     0.88120612    -1.79062701     0.87609239
      9      N    -0.91153194     1.27108118    -0.55583943
     10      H    -1.69696166     1.33003187    -1.18969433
     11      H    -0.69158771     2.11294292    -0.03869328

Total System Charge              0.00000

 *** GO1_GOStep13 ***

 Integrated fractional orbital density (NFOD):         1.000

 Energy gradients wrt nuclear displacements
 ==========================================

     Atom      Cartesian (a.u./angstrom)
                 X         Y         Z
 ----------------------------------------
     1 C     0.014372 -0.004300 -0.021138
     2 C    -0.024552  0.006491  0.018514
     3 Cl   -0.008470  0.007475  0.003577
     4 H    -0.003077  0.003984  0.004032
     5 H     0.006471  0.002724 -0.006322
     6 N     0.018210 -0.011077 -0.003856
     7 H    -0.005077  0.004544  0.001163
     8 H    -0.004887  0.002729 -0.002452
     9 N     0.011967 -0.005420 -0.001087
    10 H    -0.000159 -0.002828  0.004132
    11 H    -0.004798 -0.004322  0.003438
 ----------------------------------------

 dE(predicted):    -0.13432E-02, dE(actual):    -0.18456E-02, Trust radius:    1.000000, all in a.u.
 
----------------------------------------------------------------------
Geometry Convergence after Step  13       (Hartree/Angstrom,Angstrom)
----------------------------------------------------------------------
current energy                               -2.03871552 Hartree
energy change                      -0.00184558     0.00011000    F
constrained gradient max            0.02458363     0.00010000    F
constrained gradient rms            0.00910778     0.00006667    F
gradient max                        0.02458363
gradient rms                        0.00910778
cart. step max                      0.13368006     0.01000000    F
cart. step rms                      0.04273261     0.00666667    F
 

--------
Geometry
--------
Formula: C2H6ClN2
Atoms
  Index Symbol   x (angstrom)   y (angstrom)   z (angstrom)
      1      C    -0.63780606     0.09737142     0.03668089
      2      C     0.03427168    -0.00118926     1.26957507
      3     Cl     1.00330946    -1.36540432    -1.44026922
      4      H    -1.10284739    -0.78133731    -0.38294717
      5      H     0.22747800     0.90426703     1.84874675
      6      N     0.65169621    -1.13031921     1.63618783
      7      H     1.10847796    -1.23397159     2.53503113
      8      H     0.90113831    -1.75214866     0.84424255
      9      N    -0.97331721     1.29363120    -0.51321749
     10      H    -1.65370735     1.34371065    -1.25860025
     11      H    -0.74821792     2.17050455    -0.05942671

Total System Charge              0.00000

 *** GO1_GOStep14 ***

 Integrated fractional orbital density (NFOD):         1.000

 Energy gradients wrt nuclear displacements
 ==========================================

     Atom      Cartesian (a.u./angstrom)
                 X         Y         Z
 ----------------------------------------
     1 C     0.010016 -0.000635 -0.019918
     2 C     0.000022 -0.034102  0.020554
     3 Cl   -0.007507  0.006233  0.000346
     4 H    -0.001746  0.000345  0.005729
     5 H     0.005773  0.000930 -0.004764
     6 N    -0.005851  0.031010  0.001270
     7 H    -0.000073 -0.003792  0.004707
     8 H    -0.001671  0.001583 -0.006236
     9 N     0.008300 -0.005859 -0.004423
    10 H    -0.000059  0.003553  0.001567
    11 H    -0.007205  0.000733  0.001169
 ----------------------------------------
 Rebuilding optimization coordinates

 dE(predicted):    -0.23543E-02, dE(actual):    -0.31257E-02, Trust radius:    1.000000, all in a.u.
 
----------------------------------------------------------------------
Geometry Convergence after Step  14       (Hartree/Angstrom,Angstrom)
----------------------------------------------------------------------
current energy                               -2.04184118 Hartree
energy change                      -0.00312567     0.00011000    F
constrained gradient max            0.03407070     0.00010000    F
constrained gradient rms            0.01035855     0.00006667    F
gradient max                        0.03407070
gradient rms                        0.01035855
cart. step max                      0.13084418     0.01000000    F
cart. step rms                      0.04545237     0.00666667    F
 

--------
Geometry
--------
Formula: C2H6ClN2
Atoms
  Index Symbol   x (angstrom)   y (angstrom)   z (angstrom)
      1      C    -0.66437772     0.13619289     0.07671696
      2      C     0.04328076     0.02303866     1.27988918
      3     Cl     1.04048762    -1.49624849    -1.40222737
      4      H    -1.00740492    -0.77183766    -0.40549953
      5      H     0.16097010     0.90383221     1.91610227
      6      N     0.66109659    -1.11606760     1.61201485
      7      H     1.16570262    -1.26628450     2.47933538
      8      H     0.84943140    -1.75061875     0.80357254
      9      N    -1.04216972     1.31751626    -0.46556972
     10      H    -1.65207291     1.34904173    -1.26906677
     11      H    -0.74446814     2.21654974    -0.10926440

Total System Charge              0.00000

 *** GO1_GOStep15 ***

 Integrated fractional orbital density (NFOD):         1.000

 Energy gradients wrt nuclear displacements
 ==========================================

     Atom      Cartesian (a.u./angstrom)
                 X         Y         Z
 ----------------------------------------
     1 C     0.002044  0.008294 -0.010581
     2 C     0.005193 -0.032221  0.006669
     3 Cl   -0.004686  0.006426  0.001427
     4 H     0.001011 -0.005044  0.005729
     5 H    -0.000635  0.004398 -0.002576
     6 N    -0.007227  0.034804  0.005085
     7 H     0.004556 -0.010066  0.002390
     8 H    -0.003464 -0.004637 -0.005849
     9 N     0.009414 -0.009283 -0.002168
    10 H     0.001005  0.005229  0.002766
    11 H    -0.007210  0.002100 -0.002893
 ----------------------------------------

 dE(predicted):    -0.24931E-02, dE(actual):    -0.29453E-02, Trust radius:    1.000000, all in a.u.
 
----------------------------------------------------------------------
Geometry Convergence after Step  15       (Hartree/Angstrom,Angstrom)
----------------------------------------------------------------------
current energy                               -2.04478649 Hartree
energy change                      -0.00294531     0.00011000    F
constrained gradient max            0.03480255     0.00010000    F
constrained gradient rms            0.00986374     0.00006667    F
gradient max                        0.03480255
gradient rms                        0.00986374
cart. step max                      0.10544700     0.01000000    F
cart. step rms                      0.02909874     0.00666667    F
 

--------
Geometry
--------
Formula: C2H6ClN2
Atoms
  Index Symbol   x (angstrom)   y (angstrom)   z (angstrom)
      1      C    -0.68366115     0.14369897     0.08573444
      2      C     0.03458650     0.02528394     1.28082208
      3     Cl     1.00884308    -1.60169550    -1.40826420
      4      H    -0.99015619    -0.76041190    -0.43503083
      5      H     0.11328748     0.89040233     1.94335896
      6      N     0.67933161    -1.10680007     1.59893648
      7      H     1.15984123    -1.24774649     2.48038929
      8      H     0.91181077    -1.71256143     0.77592917
      9      N    -1.06605978     1.32924958    -0.43611318
     10      H    -1.61740445     1.36368306    -1.28129776
     11      H    -0.73994343     2.22201201    -0.08846105

Total System Charge              0.00000

 *** GO1_GOStep16 ***

 Integrated fractional orbital density (NFOD):         1.000

 Energy gradients wrt nuclear displacements
 ==========================================

     Atom      Cartesian (a.u./angstrom)
                 X         Y         Z
 ----------------------------------------
     1 C    -0.003273  0.012632 -0.009144
     2 C     0.006932 -0.023255  0.003445
     3 Cl   -0.004031  0.004927 -0.000538
     4 H    -0.000680 -0.006242  0.002964
     5 H    -0.001244  0.003446 -0.002359
     6 N    -0.005941  0.024314  0.008332
     7 H     0.002563 -0.007401  0.001927
     8 H    -0.000643 -0.002044 -0.005779
     9 N     0.011156 -0.011755  0.001829
    10 H     0.001349  0.003701  0.001934
    11 H    -0.006188  0.001676 -0.002612
 ----------------------------------------

 dE(predicted):    -0.89150E-03, dE(actual):    -0.14194E-02, Trust radius:    1.000000, all in a.u.
 
----------------------------------------------------------------------
Geometry Convergence after Step  16       (Hartree/Angstrom,Angstrom)
----------------------------------------------------------------------
current energy                               -2.04620588 Hartree
energy change                      -0.00141939     0.00011000    F
constrained gradient max            0.02429696     0.00010000    F
constrained gradient rms            0.00796712     0.00006667    F
gradient max                        0.02429696
gradient rms                        0.00796712
cart. step max                      0.17226713     0.01000000    F
cart. step rms                      0.04675146     0.00666667    F
 

--------
Geometry
--------
Formula: C2H6ClN2
Atoms
  Index Symbol   x (angstrom)   y (angstrom)   z (angstrom)
      1      C    -0.70524365     0.16918677     0.09246206
      2      C     0.02771646     0.03399677     1.27481965
      3     Cl     1.03188619    -1.77396263    -1.35127689
      4      H    -0.90402454    -0.72794411    -0.49997836
      5      H     0.05174123     0.86822815     1.97754868
      6      N     0.68396129    -1.11147632     1.56842987
      7      H     1.18395843    -1.20203851     2.44432258
      8      H     0.92585801    -1.71114288     0.73626501
      9      N    -1.13882913     1.36826359    -0.38137756
     10      H    -1.63517539     1.39437521    -1.26339940
     11      H    -0.71137321     2.23762844    -0.08181224

Total System Charge              0.00000

 *** GO1_GOStep17 ***

 Integrated fractional orbital density (NFOD):         1.000

 Energy gradients wrt nuclear displacements
 ==========================================

     Atom      Cartesian (a.u./angstrom)
                 X         Y         Z
 ----------------------------------------
     1 C    -0.009126  0.008325 -0.001166
     2 C     0.006747 -0.001085  0.004299
     3 Cl   -0.002120  0.003798  0.001238
     4 H     0.003055 -0.007996  0.000184
     5 H    -0.004971  0.003327 -0.003333
     6 N     0.004823 -0.005229  0.003393
     7 H    -0.000705 -0.000288  0.000841
     8 H    -0.000694 -0.002328 -0.003439
     9 N     0.003376  0.001570 -0.001159
    10 H    -0.000968 -0.000369 -0.000507
    11 H     0.000582  0.000274 -0.000351
 ----------------------------------------

 dE(predicted):    -0.19053E-02, dE(actual):    -0.17599E-02, Trust radius:    1.000000, all in a.u.
 
----------------------------------------------------------------------
Geometry Convergence after Step  17       (Hartree/Angstrom,Angstrom)
----------------------------------------------------------------------
current energy                               -2.04796576 Hartree
energy change                      -0.00175988     0.00011000    F
constrained gradient max            0.00911757     0.00010000    F
constrained gradient rms            0.00372512     0.00006667    F
gradient max                        0.00911757
gradient rms                        0.00372512
cart. step max                      0.04438567     0.01000000    F
cart. step rms                      0.01604323     0.00666667    F
 

--------
Geometry
--------
Formula: C2H6ClN2
Atoms
  Index Symbol   x (angstrom)   y (angstrom)   z (angstrom)
      1      C    -0.69876701     0.16013162     0.07882425
      2      C     0.02630936     0.03303143     1.26133883
      3     Cl     1.04583939    -1.80277170    -1.36747955
      4      H    -0.90421035    -0.71144335    -0.53413537
      5      H     0.07005272     0.86465455     1.96528018
      6      N     0.67168016    -1.11331063     1.57278859
      7      H     1.17760931    -1.15765284     2.44747551
      8      H     0.92443867    -1.72569185     0.75834242
      9      N    -1.15138778     1.36813997    -0.36534820
     10      H    -1.63901750     1.40407989    -1.25241470
     11      H    -0.71207131     2.22594739    -0.04866856

Total System Charge              0.00000

 *** GO1_GOStep18 ***

 Integrated fractional orbital density (NFOD):         1.000

 Energy gradients wrt nuclear displacements
 ==========================================

     Atom      Cartesian (a.u./angstrom)
                 X         Y         Z
 ----------------------------------------
     1 C    -0.003262 -0.009896 -0.002032
     2 C     0.003465  0.006089  0.004343
     3 Cl   -0.001320  0.002383 -0.001419
     4 H     0.001885  0.002448  0.001113
     5 H    -0.001499  0.001139 -0.000931
     6 N     0.003623 -0.006577 -0.000071
     7 H    -0.003699  0.004692  0.000263
     8 H    -0.000991 -0.001203 -0.001520
     9 N     0.000877  0.004518 -0.000844
    10 H    -0.001850 -0.002588 -0.000940
    11 H     0.002771 -0.001005  0.002038
 ----------------------------------------
 Rebuilding optimization coordinates

 dE(predicted):    -0.34887E-03, dE(actual):    -0.26757E-03, Trust radius:    1.000000, all in a.u.
 
----------------------------------------------------------------------
Geometry Convergence after Step  18       (Hartree/Angstrom,Angstrom)
----------------------------------------------------------------------
current energy                               -2.04823333 Hartree
energy change                      -0.00026757     0.00011000    F
constrained gradient max            0.00986764     0.00010000    F
constrained gradient rms            0.00324645     0.00006667    F
gradient max                        0.00986764
gradient rms                        0.00324645
cart. step max                      0.10462945     0.01000000    F
cart. step rms                      0.03003963     0.00666667    F
 

--------
Geometry
--------
Formula: C2H6ClN2
Atoms
  Index Symbol   x (angstrom)   y (angstrom)   z (angstrom)
      1      C    -0.71119118     0.17546031     0.08471545
      2      C     0.01521545     0.03852927     1.26301578
      3     Cl     1.05422193    -1.90740115    -1.33048059
      4      H    -0.86185110    -0.69522377    -0.54945520
      5      H     0.05828995     0.86598562     1.97225101
      6      N     0.67477624    -1.10418827     1.55529183
      7      H     1.20692058    -1.15618434     2.41487490
      8      H     0.91255694    -1.71569819     0.72730602
      9      N    -1.19247781     1.38193337    -0.33481703
     10      H    -1.58065499     1.41640495    -1.26880904
     11      H    -0.76533032     2.24549669    -0.01788974

Total System Charge              0.00000

 *** GO1_GOStep19 ***

 Integrated fractional orbital density (NFOD):         1.000

 Energy gradients wrt nuclear displacements
 ==========================================

     Atom      Cartesian (a.u./angstrom)
                 X         Y         Z
 ----------------------------------------
     1 C    -0.008162 -0.005299 -0.004129
     2 C    -0.000275  0.005430 -0.000235
     3 Cl   -0.000433  0.001554 -0.001051
     4 H     0.003825 -0.000475  0.002685
     5 H    -0.001453  0.001712 -0.001904
     6 N     0.003925 -0.006159  0.001114
     7 H    -0.001898  0.002586  0.000222
     8 H    -0.000846 -0.001203 -0.001556
     9 N     0.002071  0.005575  0.005770
    10 H     0.003233 -0.002775  0.001577
    11 H     0.000012 -0.000947 -0.002493
 ----------------------------------------

 dE(predicted):    -0.32748E-03, dE(actual):    -0.24767E-03, Trust radius:    1.000000, all in a.u.
 
----------------------------------------------------------------------
Geometry Convergence after Step  19       (Hartree/Angstrom,Angstrom)
----------------------------------------------------------------------
current energy                               -2.04848100 Hartree
energy change                      -0.00024767     0.00011000    F
constrained gradient max            0.00816688     0.00010000    F
constrained gradient rms            0.00321745     0.00006667    F
gradient max                        0.00816688
gradient rms                        0.00321745
cart. step max                      0.06803070     0.01000000    F
cart. step rms                      0.02366170     0.00666667    F
 

--------
Geometry
--------
Formula: C2H6ClN2
Atoms
  Index Symbol   x (angstrom)   y (angstrom)   z (angstrom)
      1      C    -0.69049715     0.17113738     0.06996700
      2      C     0.02268505     0.02787030     1.26237983
      3     Cl     1.06718390    -1.84173271    -1.31205419
      4      H    -0.90763785    -0.69048509    -0.54529605
      5      H     0.08763447     0.85620431     1.96882693
      6      N     0.66814374    -1.11830525     1.56847545
      7      H     1.19568780    -1.17647424     2.43161855
      8      H     0.92350577    -1.72168283     0.74667112
      9      N    -1.16395888     1.37696290    -0.37219071
     10      H    -1.64868568     1.42169076    -1.26194077
     11      H    -0.74358550     2.23992897    -0.04045377

Total System Charge              0.00000

 *** GO1_GOStep20 ***

 Integrated fractional orbital density (NFOD):         1.000

 Energy gradients wrt nuclear displacements
 ==========================================

     Atom      Cartesian (a.u./angstrom)
                 X         Y         Z
 ----------------------------------------
     1 C     0.002411 -0.013555 -0.003978
     2 C     0.000300  0.000146  0.005949
     3 Cl   -0.001953  0.002923  0.002115
     4 H     0.000738  0.007368  0.002618
     5 H     0.001345  0.000010 -0.000055
     6 N     0.002626 -0.003646 -0.002135
     7 H    -0.000044  0.000322  0.000780
     8 H    -0.000245  0.001455  0.001898
     9 N    -0.005401  0.004674 -0.006620
    10 H    -0.003192  0.000263 -0.002896
    11 H     0.003414  0.000039  0.002324
 ----------------------------------------

 dE(predicted):    -0.32044E-03, dE(actual):     0.51484E-04, Trust radius:    0.095940, all in a.u.
 
----------------------------------------------------------------------
Geometry Convergence after Step  20       (Hartree/Angstrom,Angstrom)
----------------------------------------------------------------------
current energy                               -2.04842952 Hartree
energy change                       0.00005148     0.00011000    T
constrained gradient max            0.01352106     0.00010000    F
constrained gradient rms            0.00382525     0.00006667    F
gradient max                        0.01352106
gradient rms                        0.00382525
cart. step max                      0.01976309     0.01000000    F
cart. step rms                      0.00706328     0.00666667    F
 

--------
Geometry
--------
Formula: C2H6ClN2
Atoms
  Index Symbol   x (angstrom)   y (angstrom)   z (angstrom)
      1      C    -0.69037615     0.17434540     0.07272404
      2      C     0.02341121     0.03234984     1.26029408
      3     Cl     1.06535403    -1.86149580    -1.31837023
      4      H    -0.89515697    -0.69463346    -0.54436039
      5      H     0.08253139     0.86055286     1.96755234
      6      N     0.66691900    -1.11279350     1.56479843
      7      H     1.19571002    -1.17387426     2.42651779
      8      H     0.91757213    -1.71992337     0.74193737
      9      N    -1.16701754     1.37709950    -0.36181891
     10      H    -1.62991033     1.41825521    -1.26156812
     11      H    -0.75856112     2.24523208    -0.03170300

Total System Charge              0.00000

 *** GO1_GOStep21 ***

 Integrated fractional orbital density (NFOD):         1.000

 Energy gradients wrt nuclear displacements
 ==========================================

     Atom      Cartesian (a.u./angstrom)
                 X         Y         Z
 ----------------------------------------
     1 C     0.001495 -0.006269 -0.001670
     2 C    -0.000025 -0.001266  0.001461
     3 Cl   -0.001471  0.002545  0.000998
     4 H     0.000394  0.002035  0.001417
     5 H     0.000515  0.000325 -0.000462
     6 N     0.000288  0.000276 -0.001115
     7 H    -0.000359  0.000355  0.000267
     8 H    -0.000112  0.000475  0.000724
     9 N    -0.001295  0.002267 -0.001230
    10 H    -0.000675 -0.000495 -0.000536
    11 H     0.001245 -0.000248  0.000146
 ----------------------------------------

 dE(predicted):    -0.20435E-03, dE(actual):    -0.22819E-03, Trust radius:    0.191880, all in a.u.
 
----------------------------------------------------------------------
Geometry Convergence after Step  21       (Hartree/Angstrom,Angstrom)
----------------------------------------------------------------------
current energy                               -2.04865771 Hartree
energy change                      -0.00022819     0.00011000    F
constrained gradient max            0.00623989     0.00010000    F
constrained gradient rms            0.00153672     0.00006667    F
gradient max                        0.00623989
gradient rms                        0.00153672
cart. step max                      0.04924502     0.01000000    F
cart. step rms                      0.01285872     0.00666667    F
 

--------
Geometry
--------
Formula: C2H6ClN2
Atoms
  Index Symbol   x (angstrom)   y (angstrom)   z (angstrom)
      1      C    -0.69137549     0.18184480     0.07172768
      2      C     0.02236230     0.03691797     1.25783516
      3     Cl     1.06937540    -1.91074082    -1.30664354
      4      H    -0.87410077    -0.68963810    -0.55313037
      5      H     0.07516208     0.86321759     1.96797848
      6      N     0.66688212    -1.10971580     1.55801772
      7      H     1.20410989    -1.16848583     2.41462129
      8      H     0.91293585    -1.71901535     0.73130573
      9      N    -1.18180727     1.38299159    -0.34872502
     10      H    -1.61163017     1.42533550    -1.26428883
     11      H    -0.78143826     2.25240293    -0.01269491

Total System Charge              0.00000

 *** GO1_GOStep22 ***

 Integrated fractional orbital density (NFOD):         1.000

 Energy gradients wrt nuclear displacements
 ==========================================

     Atom      Cartesian (a.u./angstrom)
                 X         Y         Z
 ----------------------------------------
     1 C    -0.000439 -0.002167 -0.002752
     2 C    -0.000857  0.000407 -0.000060
     3 Cl   -0.001027  0.002136  0.000738
     4 H     0.000735 -0.000922  0.001501
     5 H    -0.000214  0.000815 -0.000910
     6 N     0.000817 -0.001425  0.000005
     7 H    -0.000370  0.000451 -0.000129
     8 H     0.000035 -0.000090  0.000117
     9 N    -0.000161  0.002542  0.002181
    10 H     0.001019 -0.001220  0.000338
    11 H     0.000461 -0.000528 -0.001028
 ----------------------------------------

 dE(predicted):    -0.13468E-03, dE(actual):    -0.12230E-03, Trust radius:    0.383760, all in a.u.
 
----------------------------------------------------------------------
Geometry Convergence after Step  22       (Hartree/Angstrom,Angstrom)
----------------------------------------------------------------------
current energy                               -2.04878001 Hartree
energy change                      -0.00012230     0.00011000    F
constrained gradient max            0.00274412     0.00010000    F
constrained gradient rms            0.00114327     0.00006667    F
gradient max                        0.00274412
gradient rms                        0.00114327
cart. step max                      0.07346628     0.01000000    F
cart. step rms                      0.01853026     0.00666667    F
 

--------
Geometry
--------
Formula: C2H6ClN2
Atoms
  Index Symbol   x (angstrom)   y (angstrom)   z (angstrom)
      1      C    -0.68784024     0.19220465     0.06684640
      2      C     0.02373858     0.04362336     1.25340513
      3     Cl     1.07735204    -1.98420710    -1.28715345
      4      H    -0.84570230    -0.67789746    -0.57029329
      5      H     0.06944934     0.86617502     1.96847359
      6      N     0.66612605    -1.10469026     1.54980688
      7      H     1.21364837    -1.16271309     2.40018746
      8      H     0.90733216    -1.71758520     0.71877547
      9      N    -1.20283461     1.38954439    -0.33435481
     10      H    -1.59460367     1.44118811    -1.26677458
     11      H    -0.81619004     2.25947206     0.01708456

Total System Charge              0.00000

 *** GO1_GOStep23 ***

 Integrated fractional orbital density (NFOD):         1.000

 Energy gradients wrt nuclear displacements
 ==========================================

     Atom      Cartesian (a.u./angstrom)
                 X         Y         Z
 ----------------------------------------
     1 C    -0.001022  0.001001 -0.003557
     2 C    -0.000539  0.001095 -0.000646
     3 Cl   -0.000478  0.001443  0.000137
     4 H     0.000643 -0.002926  0.001178
     5 H    -0.000632  0.000902 -0.001094
     6 N    -0.000159 -0.001327  0.001348
     7 H    -0.000088  0.000165 -0.000420
     8 H     0.000388 -0.000354 -0.000472
     9 N    -0.000682  0.001748  0.005071
    10 H     0.002202 -0.001105  0.000304
    11 H     0.000367 -0.000642 -0.001849
 ----------------------------------------

 dE(predicted):    -0.94441E-04, dE(actual):    -0.88155E-04, Trust radius:    0.383760, all in a.u.
 
----------------------------------------------------------------------
Geometry Convergence after Step  23       (Hartree/Angstrom,Angstrom)
----------------------------------------------------------------------
current energy                               -2.04886817 Hartree
energy change                      -0.00008815     0.00011000    T
constrained gradient max            0.00514343     0.00010000    F
constrained gradient rms            0.00151068     0.00006667    F
gradient max                        0.00514343
gradient rms                        0.00151068
cart. step max                      0.05838599     0.01000000    F
cart. step rms                      0.01527517     0.00666667    F
 

--------
Geometry
--------
Formula: C2H6ClN2
Atoms
  Index Symbol   x (angstrom)   y (angstrom)   z (angstrom)
      1      C    -0.68123375     0.20032031     0.06088610
      2      C     0.02556846     0.04814366     1.25044706
      3     Cl     1.08276387    -2.04259309    -1.26520960
      4      H    -0.82823204    -0.66585104    -0.58489722
      5      H     0.06804857     0.86825910     1.96875346
      6      N     0.66723752    -1.10089355     1.54273399
      7      H     1.22067088    -1.16024085     2.38955984
      8      H     0.90439171    -1.71643166     0.70797987
      9      N    -1.21364570     1.39357322    -0.32975215
     10      H    -1.58428244     1.45661685    -1.27053033
     11      H    -0.85081140     2.26421154     0.04603235

Total System Charge              0.00000

 *** GO1_GOStep24 ***

 Integrated fractional orbital density (NFOD):         1.000

 Energy gradients wrt nuclear displacements
 ==========================================

     Atom      Cartesian (a.u./angstrom)
                 X         Y         Z
 ----------------------------------------
     1 C     0.000409  0.001636 -0.003799
     2 C    -0.000483  0.001099  0.000114
     3 Cl   -0.000324  0.001086  0.000138
     4 H    -0.000266 -0.003047  0.000858
     5 H    -0.000627  0.000959 -0.001055
     6 N    -0.000581 -0.001177  0.001433
     7 H     0.000297 -0.000152 -0.000552
     8 H     0.000622 -0.000160 -0.000619
     9 N    -0.002003  0.000584  0.005264
    10 H     0.002400 -0.000603 -0.000299
    11 H     0.000555 -0.000227 -0.001483
 ----------------------------------------

 dE(predicted):    -0.66325E-04, dE(actual):    -0.85383E-04, Trust radius:    0.383760, all in a.u.
 
----------------------------------------------------------------------
Geometry Convergence after Step  24       (Hartree/Angstrom,Angstrom)
----------------------------------------------------------------------
current energy                               -2.04895355 Hartree
energy change                      -0.00008538     0.00011000    T
constrained gradient max            0.00530193     0.00010000    F
constrained gradient rms            0.00154088     0.00006667    F
gradient max                        0.00530193
gradient rms                        0.00154088
cart. step max                      0.06974684     0.01000000    F
cart. step rms                      0.01923637     0.00666667    F
 

--------
Geometry
--------
Formula: C2H6ClN2
Atoms
  Index Symbol   x (angstrom)   y (angstrom)   z (angstrom)
      1      C    -0.66709956     0.21277114     0.05082568
      2      C     0.03222442     0.05335261     1.24472813
      3     Cl     1.09198385    -2.11233994    -1.23653811
      4      H    -0.80238222    -0.64627701    -0.60721906
      5      H     0.07315243     0.86914168     1.96827371
      6      N     0.66685111    -1.09748158     1.53562139
      7      H     1.22544329    -1.15849393     2.37962241
      8      H     0.89739160    -1.72145081     0.70059829
      9      N    -1.22083288     1.39886469    -0.32998681
     10      H    -1.58851126     1.47725672    -1.27102000
     11      H    -0.89774509     2.26977092     0.08109776

Total System Charge              0.00000

 *** GO1_GOStep25 ***

 Integrated fractional orbital density (NFOD):         1.000

 Energy gradients wrt nuclear displacements
 ==========================================

     Atom      Cartesian (a.u./angstrom)
                 X         Y         Z
 ----------------------------------------
     1 C     0.003208  0.002776 -0.002307
     2 C     0.000765 -0.001529  0.001194
     3 Cl   -0.000172  0.000728 -0.000001
     4 H    -0.001655 -0.002336  0.000140
     5 H    -0.000370  0.000608 -0.000657
     6 N    -0.002345  0.001382  0.000905
     7 H     0.000892 -0.000475 -0.000386
     8 H     0.000754 -0.000104 -0.000323
     9 N    -0.003768 -0.001800  0.002840
    10 H     0.001676  0.000602 -0.000974
    11 H     0.001015  0.000148 -0.000430
 ----------------------------------------

 dE(predicted):    -0.96997E-04, dE(actual):    -0.14193E-03, Trust radius:    0.383760, all in a.u.
 
----------------------------------------------------------------------
Geometry Convergence after Step  25       (Hartree/Angstrom,Angstrom)
----------------------------------------------------------------------
current energy                               -2.04909548 Hartree
energy change                      -0.00014193     0.00011000    F
constrained gradient max            0.00373865     0.00010000    F
constrained gradient rms            0.00154050     0.00006667    F
gradient max                        0.00373865
gradient rms                        0.00154050
cart. step max                      0.07070871     0.01000000    F
cart. step rms                      0.01993624     0.00666667    F
 

--------
Geometry
--------
Formula: C2H6ClN2
Atoms
  Index Symbol   x (angstrom)   y (angstrom)   z (angstrom)
      1      C    -0.65414590     0.22643249     0.04168090
      2      C     0.03783919     0.05864959     1.24009079
      3     Cl     1.09692867    -2.18304864    -1.20100899
      4      H    -0.76854047    -0.62584648    -0.62894957
      5      H     0.07465291     0.87046025     1.96862897
      6      N     0.66927177    -1.09537469     1.52544415
      7      H     1.22809050    -1.15885789     2.36969087
      8      H     0.89259621    -1.72572042     0.68688930
      9      N    -1.22347053     1.40691256    -0.33173551
     10      H    -1.59817919     1.49541905    -1.26879814
     11      H    -0.94456748     2.27608868     0.11407062

Total System Charge              0.00000

 *** GO1_GOStep26 ***

 Integrated fractional orbital density (NFOD):         1.000

 Energy gradients wrt nuclear displacements
 ==========================================

     Atom      Cartesian (a.u./angstrom)
                 X         Y         Z
 ----------------------------------------
     1 C     0.003933  0.002842 -0.002011
     2 C     0.000965 -0.001691  0.002415
     3 Cl   -0.000312  0.000770  0.000709
     4 H    -0.001871 -0.001724  0.000358
     5 H    -0.000590  0.000816 -0.000723
     6 N    -0.001469 -0.000541  0.000322
     7 H     0.001006 -0.000334 -0.000100
     8 H     0.000580  0.000180 -0.000379
     9 N    -0.004527 -0.001781 -0.000017
    10 H     0.000990  0.001032 -0.001055
    11 H     0.001294  0.000431  0.000481
 ----------------------------------------

 dE(predicted):    -0.75667E-04, dE(actual):    -0.11588E-03, Trust radius:    0.767520, all in a.u.
 
----------------------------------------------------------------------
Geometry Convergence after Step  26       (Hartree/Angstrom,Angstrom)
----------------------------------------------------------------------
current energy                               -2.04921136 Hartree
energy change                      -0.00011588     0.00011000    F
constrained gradient max            0.00452940     0.00010000    F
constrained gradient rms            0.00155355     0.00006667    F
gradient max                        0.00452940
gradient rms                        0.00155355
cart. step max                      0.12389603     0.01000000    F
cart. step rms                      0.03677384     0.00666667    F
 

--------
Geometry
--------
Formula: C2H6ClN2
Atoms
  Index Symbol   x (angstrom)   y (angstrom)   z (angstrom)
      1      C    -0.62878456     0.25204833     0.02258880
      2      C     0.05098604     0.07159365     1.22602553
      3     Cl     1.10504805    -2.30694467    -1.15043747
      4      H    -0.69229317    -0.58768621    -0.67099591
      5      H     0.09007104     0.87571290     1.96331747
      6      N     0.66768161    -1.08935174     1.50967473
      7      H     1.22422881    -1.15555422     2.35589954
      8      H     0.87599075    -1.74166331     0.67416935
      9      N    -1.22554280     1.42166095    -0.33153238
     10      H    -1.62018018     1.52450411    -1.25791477
     11      H    -1.03672992     2.28079470     0.17520848

Total System Charge              0.00000

 *** GO1_GOStep27 ***

 Integrated fractional orbital density (NFOD):         1.000

 Energy gradients wrt nuclear displacements
 ==========================================

     Atom      Cartesian (a.u./angstrom)
                 X         Y         Z
 ----------------------------------------
     1 C     0.002210  0.003642 -0.002780
     2 C     0.001098 -0.002786  0.001529
     3 Cl    0.000057  0.000072 -0.000236
     4 H    -0.000649 -0.001688  0.001307
     5 H     0.000120  0.000427 -0.000186
     6 N    -0.002246  0.001178  0.001091
     7 H     0.000698  0.000022  0.000492
     8 H     0.000676 -0.000626 -0.000752
     9 N    -0.003056 -0.001624 -0.000518
    10 H     0.000323  0.001197 -0.000318
    11 H     0.000770  0.000187  0.000372
 ----------------------------------------

 dE(predicted):    -0.12159E-03, dE(actual):    -0.13008E-03, Trust radius:    0.767520, all in a.u.
 
----------------------------------------------------------------------
Geometry Convergence after Step  27       (Hartree/Angstrom,Angstrom)
----------------------------------------------------------------------
current energy                               -2.04934145 Hartree
energy change                      -0.00013008     0.00011000    F
constrained gradient max            0.00364215     0.00010000    F
constrained gradient rms            0.00142322     0.00006667    F
gradient max                        0.00364215
gradient rms                        0.00142322
cart. step max                      0.06407381     0.01000000    F
cart. step rms                      0.01992732     0.00666667    F
 

--------
Geometry
--------
Formula: C2H6ClN2
Atoms
  Index Symbol   x (angstrom)   y (angstrom)   z (angstrom)
      1      C    -0.61516643     0.26573245     0.01833129
      2      C     0.05603231     0.08010579     1.22478378
      3     Cl     1.09990077    -2.37101848    -1.11895233
      4      H    -0.65424527    -0.56097316    -0.69116667
      5      H     0.09195255     0.87963124     1.96733800
      6      N     0.67301087    -1.08449538     1.49712136
      7      H     1.22396036    -1.15977168     2.34609426
      8      H     0.86956312    -1.74543927     0.65859096
      9      N    -1.21588778     1.43061687    -0.33552332
     10      H    -1.62568561     1.53018235    -1.25485011
     11      H    -1.09295921     2.28054377     0.20423616

Total System Charge              0.00000

 *** GO1_GOStep28 ***

 Integrated fractional orbital density (NFOD):         1.000

 Energy gradients wrt nuclear displacements
 ==========================================

     Atom      Cartesian (a.u./angstrom)
                 X         Y         Z
 ----------------------------------------
     1 C     0.001646  0.001491 -0.002006
     2 C    -0.000495  0.000607  0.001589
     3 Cl    0.000112 -0.000124 -0.000069
     4 H    -0.000830  0.000370  0.001241
     5 H     0.000064  0.000777 -0.000268
     6 N    -0.000403 -0.000946  0.000484
     7 H     0.000208  0.000197  0.000241
     8 H     0.000595 -0.000814 -0.001167
     9 N    -0.001356 -0.002150 -0.000242
    10 H     0.000483  0.000691  0.000217
    11 H    -0.000025 -0.000100 -0.000020
 ----------------------------------------

 dE(predicted):    -0.60356E-04, dE(actual):    -0.60432E-04, Trust radius:    0.767520, all in a.u.
 
----------------------------------------------------------------------
Geometry Convergence after Step  28       (Hartree/Angstrom,Angstrom)
----------------------------------------------------------------------
current energy                               -2.04940188 Hartree
energy change                      -0.00006043     0.00011000    T
constrained gradient max            0.00211703     0.00010000    F
constrained gradient rms            0.00089188     0.00006667    F
gradient max                        0.00211703
gradient rms                        0.00089188
cart. step max                      0.01018491     0.01000000    F
cart. step rms                      0.00458578     0.00666667    T
 

--------
Geometry
--------
Formula: C2H6ClN2
Atoms
  Index Symbol   x (angstrom)   y (angstrom)   z (angstrom)
      1      C    -0.61390445     0.26531272     0.02104353
      2      C     0.05672496     0.07861961     1.22582255
      3     Cl     1.09676607    -2.36165026    -1.12620212
      4      H    -0.65326531    -0.55604991    -0.69555547
      5      H     0.09428232     0.87500902     1.97120480
      6      N     0.67363720    -1.08438329     1.49945087
      7      H     1.22226870    -1.15981307     2.34960697
      8      H     0.86751371    -1.74734206     0.66556657
      9      N    -1.20759399     1.43183570    -0.34015784
     10      H    -1.63578964     1.51999744    -1.25224373
     11      H    -1.09016389     2.28357860     0.19746726

Total System Charge              0.00000

 *** GO1_GOStep29 ***

 Integrated fractional orbital density (NFOD):         1.000

 Energy gradients wrt nuclear displacements
 ==========================================

     Atom      Cartesian (a.u./angstrom)
                 X         Y         Z
 ----------------------------------------
     1 C     0.002882  0.000477  0.002603
     2 C    -0.000577 -0.000670 -0.000072
     3 Cl    0.000185 -0.000033 -0.000165
     4 H    -0.001203  0.001268 -0.000710
     5 H     0.000600 -0.000016  0.000066
     6 N    -0.001078  0.001267 -0.000113
     7 H     0.000141  0.000343  0.000090
     8 H     0.000285 -0.000769 -0.000356
     9 N    -0.001484 -0.001764 -0.001323
    10 H     0.000151  0.000192  0.000014
    11 H     0.000098 -0.000296 -0.000033
 ----------------------------------------

 dE(predicted):    -0.22275E-04, dE(actual):    -0.21271E-04, Trust radius:    0.767520, all in a.u.
 
----------------------------------------------------------------------
Geometry Convergence after Step  29       (Hartree/Angstrom,Angstrom)
----------------------------------------------------------------------
current energy                               -2.04942315 Hartree
energy change                      -0.00002127     0.00011000    T
constrained gradient max            0.00290004     0.00010000    F
constrained gradient rms            0.00096872     0.00006667    F
gradient max                        0.00290004
gradient rms                        0.00096872
cart. step max                      0.02357493     0.01000000    F
cart. step rms                      0.00751654     0.00666667    F
 

--------
Geometry
--------
Formula: C2H6ClN2
Atoms
  Index Symbol   x (angstrom)   y (angstrom)   z (angstrom)
      1      C    -0.61012834     0.26924036     0.01795912
      2      C     0.05788279     0.07990828     1.22403854
      3     Cl     1.09011495    -2.38323296    -1.11795126
      4      H    -0.62969038    -0.55165227    -0.70312371
      5      H     0.08065004     0.87551691     1.97041160
      6      N     0.67782943    -1.08189884     1.49594792
      7      H     1.22365444    -1.16073178     2.34743809
      8      H     0.86758090    -1.74735194     0.66210655
      9      N    -1.20303738     1.43806116    -0.34056503
     10      H    -1.64843439     1.52107254    -1.24506933
     11      H    -1.09594638     2.28618301     0.20481089

Total System Charge              0.00000

 *** GO1_GOStep30 ***

 Integrated fractional orbital density (NFOD):         1.000

 Energy gradients wrt nuclear displacements
 ==========================================

     Atom      Cartesian (a.u./angstrom)
                 X         Y         Z
 ----------------------------------------
     1 C     0.000918  0.001026  0.003321
     2 C     0.000936 -0.001126  0.000229
     3 Cl    0.000305 -0.000196 -0.000099
     4 H     0.000574 -0.000796 -0.000924
     5 H    -0.000697  0.000427 -0.001180
     6 N    -0.000538  0.000124  0.000234
     7 H     0.000205  0.000195 -0.000204
     8 H     0.000043 -0.000581 -0.000431
     9 N    -0.001930  0.001606 -0.000756
    10 H    -0.000259 -0.000603 -0.000318
    11 H     0.000444 -0.000077  0.000127
 ----------------------------------------
 
----------------------------------------------------------------------
Geometry Convergence after Step  30       (Hartree/Angstrom,Angstrom)
----------------------------------------------------------------------
current energy                               -2.04942264 Hartree
energy change                       0.00000051     0.00011000    T
constrained gradient max            0.00331206     0.00010000    F
constrained gradient rms            0.00091540     0.00006667    F
gradient max                        0.00331206
gradient rms                        0.00091540
cart. step max                      0.01499942     0.01000000    F
cart. step rms                      0.00468875     0.00666667    T
 

--------
Geometry
--------
Formula: C2H6ClN2
Atoms
  Index Symbol   x (angstrom)   y (angstrom)   z (angstrom)
      1      C    -0.61297359     0.26440244     0.01802200
      2      C     0.05559312     0.07810400     1.22488366
      3     Cl     1.08775415    -2.36823353    -1.12526259
      4      H    -0.64254774    -0.55789765    -0.70050672
      5      H     0.08270194     0.87472606     1.97035221
      6      N     0.67928749    -1.08156955     1.49858573
      7      H     1.22181816    -1.15990538     2.35215883
      8      H     0.87136434    -1.74355534     0.66478242
      9      N    -1.20014116     1.43540201    -0.34176495
     10      H    -1.64393137     1.51943025    -1.24688363
     11      H    -1.08844965     2.28421119     0.20163644

Total System Charge              0.00000

 *** GO1_GOStep31 ***

 Integrated fractional orbital density (NFOD):         1.000

 Energy gradients wrt nuclear displacements
 ==========================================

     Atom      Cartesian (a.u./angstrom)
                 X         Y         Z
 ----------------------------------------
     1 C     0.001160  0.000268  0.001818
     2 C    -0.000230 -0.000264  0.000237
     3 Cl    0.000251 -0.000130  0.000021
     4 H    -0.000181 -0.000421 -0.001135
     5 H     0.000082  0.000288 -0.000526
     6 N     0.000130 -0.000397  0.000239
     7 H     0.000158  0.000197 -0.000038
     8 H    -0.000163  0.000127 -0.000236
     9 N    -0.001377  0.001002 -0.000294
    10 H    -0.000014 -0.000615 -0.000280
    11 H     0.000184 -0.000055  0.000193
 ----------------------------------------

 dE(predicted):    -0.13361E-04, dE(actual):    -0.18279E-04, Trust radius:    0.767520, all in a.u.
 
----------------------------------------------------------------------
Geometry Convergence after Step  31       (Hartree/Angstrom,Angstrom)
----------------------------------------------------------------------
current energy                               -2.04944092 Hartree
energy change                      -0.00001828     0.00011000    T
constrained gradient max            0.00180939     0.00010000    F
constrained gradient rms            0.00056820     0.00006667    F
gradient max                        0.00180939
gradient rms                        0.00056820
cart. step max                      0.01793199     0.01000000    F
cart. step rms                      0.00583744     0.00666667    T
 

--------
Geometry
--------
Formula: C2H6ClN2
Atoms
  Index Symbol   x (angstrom)   y (angstrom)   z (angstrom)
      1      C    -0.61571063     0.25913078     0.01863290
[...]
                                   29.63%     2 S               2.394  0.00     7 H
                                  -19.72%     2 P:y             4.589  0.00     1 C
                                   11.79%     1 S              -6.532  1.00     7 H
                                  -11.08%     3 S              10.158  0.00     1 C
                                   10.55%     1 S              -6.532  1.00     8 H
                                   -8.80%     4 S               5.292  0.00     3 Cl
                                   -7.54%     2 S               2.394  0.00     8 H
                                   -6.34%     2 P:z             7.649  0.00    11 N
                                   -6.22%     2 P:z             7.649  0.00    10 N
                                   -6.12%     2 S               2.394  0.00     6 H
                                    5.80%     2 P:z             4.589  0.00     2 C
                                    3.58%     2 S               2.394  0.00     5 H
                                    2.71%     3 S              40.869  0.00     8 H
                                   -2.23%     2 P:x             7.649  0.00    11 N
                                    2.18%     1 P:z            -5.239  0.67     2 C
                                    1.85%     1 S              -6.532  1.00     6 H
                                    1.75%     2 P:y             4.589  0.00     2 C
                                    1.68%     1 P:y            -5.239  0.67     1 C
                                   -1.66%     2 P:y             7.649  0.00    10 N
                                   -1.42%     2 P:z             4.589  0.00     1 C
                                    1.37%     3 S              40.869  0.00     6 H
                                    1.36%     1 P:x            -5.239  0.67     2 C
                                    1.34%     2 P:x             4.589  0.00     2 C
                                    1.21%     1 S              -6.532  1.00     9 H
                                   -1.14%     3 S              40.869  0.00     7 H
                                    1.13%     2 P:x             4.589  0.00     1 C
                                    1.09%     2 S               2.394  0.00     9 H
                                   -1.07%     3 P:x             6.147  0.00     3 Cl
                                    1.03%     1 P:y            11.051  0.00     8 H
                                   -1.01%     3 S              40.869  0.00     4 H
       2.716  0.00    32 A         38.96%     1 S              -6.532  1.00     7 H
                                   22.51%     2 S               2.394  0.00     7 H
                                  -17.95%     2 S               2.394  0.00     6 H
                                  -11.92%     2 P:z             7.649  0.00    10 N
                                   11.48%     1 S              -6.532  1.00     6 H
                                    8.19%     1 S              -6.532  1.00     4 H
                                    7.52%     2 S             -13.620  2.00     1 C
                                    6.17%     2 P:z             4.589  0.00     1 C
                                    6.01%     1 P:z            -7.062  1.00    10 N
                                   -5.43%     3 S              10.158  0.00     1 C
                                    5.03%     1 P:y            -5.239  0.67     2 C
                                    4.56%     1 P:x            -5.239  0.67     2 C
                                   -4.51%     2 S               2.394  0.00     4 H
                                    4.33%     2 S               2.394  0.00     5 H
                                   -4.04%     3 P:z             6.147  0.00     3 Cl
                                   -4.03%     4 S               5.292  0.00     3 Cl
                                    3.63%     2 P:y             4.589  0.00     2 C
                                   -3.54%     3 S              10.158  0.00     2 C
                                    3.29%     2 S               2.394  0.00     8 H
                                    3.02%     1 P:z            -5.239  0.67     1 C
                                    2.99%     2 P:x             4.589  0.00     1 C
                                   -2.80%     3 S              14.073  0.00    10 N
                                    2.71%     1 S              -6.532  1.00     9 H
                                    2.41%     1 P:y            11.051  0.00     8 H
                                    2.20%     2 P:z            -8.439  1.67     3 Cl
                                    1.91%     1 P:z            -5.239  0.67     2 C
                                    1.79%     1 P:y            -7.062  1.00    11 N
                                    1.44%     1 S              -6.532  1.00     5 H
                                    1.43%     2 P:x             4.589  0.00     2 C
                                    1.26%     1 P:z            11.051  0.00     9 H
                                    1.22%     3 S              40.869  0.00     6 H
                                    1.11%     2 P:y             7.649  0.00    11 N
       3.393  0.00    33 A         30.84%     2 P:y             4.589  0.00     2 C
                                   20.07%     2 P:z             4.589  0.00     1 C
                                   11.11%     2 P:z             4.589  0.00     2 C
                                   10.28%     2 S               2.394  0.00     7 H
                                    7.96%     2 P:x             7.649  0.00    11 N
                                   -7.90%     2 P:y             4.589  0.00     1 C
                                    7.84%     2 S               2.394  0.00     4 H
                                    5.67%     1 S              -6.532  1.00     8 H
                                    5.36%     2 P:x             4.589  0.00     1 C
                                    4.23%     2 S               2.394  0.00     9 H
                                    4.22%     1 S              -6.532  1.00     7 H
                                   -4.10%     2 P:x             7.649  0.00    10 N
                                   -4.07%     2 P:z             7.649  0.00    11 N
                                    3.80%     1 P:y            -5.239  0.67     2 C
                                   -3.18%     2 P:x             4.589  0.00     2 C
                                    3.06%     1 P:z            -5.239  0.67     1 C
                                   -2.74%     1 P:y            -5.239  0.67     1 C
                                    2.39%     1 P:z            -5.239  0.67     2 C
                                    1.59%     1 P:z            -7.062  1.00    11 N
                                   -1.58%     1 P:x            -5.239  0.67     1 C
                                    1.48%     1 P:x            11.051  0.00     9 H
                                    1.46%     1 S              -6.532  1.00     4 H
                                   -1.39%     3 S              14.073  0.00    10 N
                                   -1.37%     1 P:x            -7.062  1.00    10 N
                                   -1.36%     1 P:x            -5.239  0.67     2 C
                                   -1.32%     2 P:z             7.649  0.00    10 N
                                    1.22%     1 P:y            11.051  0.00     5 H
       3.797  0.00    34 A         43.15%     2 P:x             4.589  0.00     2 C
                                  -23.29%     2 P:z             4.589  0.00     1 C
                                   18.05%     2 S               2.394  0.00     4 H
                                   17.07%     2 P:x             4.589  0.00     1 C
                                   14.88%     1 S              -6.532  1.00     4 H
                                  -12.52%     2 P:z             4.589  0.00     2 C
                                    9.77%     2 S               2.394  0.00     7 H
                                    8.18%     2 S               2.394  0.00     9 H
                                    7.69%     1 S              -6.532  1.00     8 H
                                    6.57%     2 P:z             7.649  0.00    11 N
                                   -6.11%     2 P:y             7.649  0.00    10 N
                                    4.56%     1 P:x            -5.239  0.67     2 C
                                    3.64%     1 P:x            -5.239  0.67     1 C
                                   -3.38%     2 P:y             4.589  0.00     2 C
                                    2.96%     2 S             -18.450  2.00    11 N
                                   -2.33%     1 P:z            -5.239  0.67     1 C
                                    2.17%     1 P:z            11.051  0.00     9 H
                                    2.15%     1 P:y            -5.239  0.67     2 C
                                    2.11%     2 S               2.394  0.00     6 H
                                    1.99%     1 P:y            11.051  0.00     6 H
                                   -1.87%     3 S              14.073  0.00    11 N
                                    1.69%     1 P:z            -7.062  1.00    11 N
                                   -1.56%     3 S              14.073  0.00    10 N
                                    1.56%     1 P:z            -5.239  0.67     2 C
                                   -1.54%     2 S               2.394  0.00     5 H
                                    1.50%     3 S              10.158  0.00     1 C
                                   -1.49%     1 S              -6.532  1.00     9 H
                                   -1.44%     1 P:y            -7.062  1.00    10 N
                                    1.40%     3 S              40.869  0.00     7 H
                                    1.34%     3 S              40.869  0.00     4 H
                                   -1.28%     2 S             -13.620  2.00     2 C
                                    1.03%     2 S             -18.450  2.00    10 N
                                   -1.02%     3 P:x             6.147  0.00     3 Cl

 Energy gradients wrt nuclear displacements
 ==========================================

     Atom      Cartesian (a.u./angstrom)
                 X         Y         Z
 ----------------------------------------
     1 C    -0.000062 -0.000047  0.000011
     2 C     0.000052  0.000101 -0.000089
     3 Cl    0.000057  0.000015 -0.000005
     4 H    -0.000050 -0.000075  0.000033
     5 H     0.000031 -0.000020  0.000038
     6 N     0.000103  0.000115  0.000058
     7 H     0.000145  0.000117 -0.000032
     8 H     0.000088 -0.000002 -0.000086
     9 N    -0.000095 -0.000018  0.000034
    10 H    -0.000147 -0.000126  0.000040
    11 H    -0.000121 -0.000059 -0.000002
 ----------------------------------------



 =======================================================================
 Electrostatic potential at the Nuclei due to electrons and other nuclei
 =======================================================================
  
         Atom                  Potential
         ----                  ---------
     1)   C                  14.71326892
     2)   C                  14.71065894
     3)   Cl                 64.98473411
     4)   H                   1.06377157
     5)   H                   1.04948056
     6)   N                  18.36890890
     7)   H                   0.99407023
     8)   H                   1.01015134
     9)   N                  18.33435055
    10)   H                   0.96947209
    11)   H                   0.96700145
 Mulliken charges used for AMS results%charges...


    =====================
     CALCULATION RESULTS
    =====================

Energy (hartree)            -2.04947051

Gradients (hartree/bohr)
  Index   Atom            d/dx            d/dy            d/dz
      1      C   -0.0000328320   -0.0000248334    0.0000059547
      2      C    0.0000276805    0.0000532948   -0.0000473426
      3     Cl    0.0000299260    0.0000080495   -0.0000026190
      4      H   -0.0000266064   -0.0000397911    0.0000174469
      5      H    0.0000164310   -0.0000106964    0.0000200526
      6      N    0.0000545310    0.0000607163    0.0000306904
      7      H    0.0000765396    0.0000617432   -0.0000171892
      8      H    0.0000465706   -0.0000009544   -0.0000452818
      9      N   -0.0000502764   -0.0000095589    0.0000177366
     10      H   -0.0000777617   -0.0000668466    0.0000213820
     11      H   -0.0000642022   -0.0000311230   -0.0000008306


--------------
Atomic charges
--------------
  Index   Atom    Charge
      1      C    0.3960
      2      C    0.3588
      3     Cl   -0.6008
      4      H   -0.1093
      5      H   -0.1692
      6      N    0.1478
      7      H   -0.0772
      8      H    0.0084
      9      N    0.1671
     10      H   -0.0543
     11      H   -0.0674


Dipole moment vector    (Debye):    -3.36027302    7.54513578    4.55948876
              magnitude (Debye):     9.43448178


-----------------------
Molecular orbitals info
-----------------------
n orbitals:              204
n spin:                    1

Note: only printing virtual orbitals with
      energy smaller than HOMO + 100. eV

Note: fractional orbital occupations. HOMO and LUMO labels are not well defined!

HOMO (eV):              -4.8906
LUMO (eV):              -4.6761
HOMO-LUMO gap (eV):      0.2146

   Index   Energy (eV)    Occupation
     140       94.7426         0.000       
     139       93.6489         0.000       
     138       93.3147         0.000       
     137       92.3266         0.000       
     136       91.3859         0.000       
     135       90.5062         0.000       
     134       89.3792         0.000       
     133       87.4336         0.000       
     132       85.8671         0.000       
     131       84.5347         0.000       
     130       83.4185         0.000       
     129       82.0317         0.000       
     128       80.7314         0.000       
     127       79.0984         0.000       
     126       78.0370         0.000       
     125       76.6773         0.000       
     124       75.8542         0.000       
     123       75.6809         0.000       
     122       74.9684         0.000       
     121       74.2615         0.000       
     120       73.1432         0.000       
     119       71.9983         0.000       
     118       70.9278         0.000       
     117       69.9658         0.000       
     116       69.2313         0.000       
     115       67.4278         0.000       
     114       66.8127         0.000       
     113       66.5646         0.000       
     112       64.8595         0.000       
     111       63.7518         0.000       
     110       62.8210         0.000       
     109       61.3422         0.000       
     108       60.4711         0.000       
     107       59.6215         0.000       
     106       57.4169         0.000       
     105       57.2218         0.000       
     104       55.1756         0.000       
     103       54.0270         0.000       
     102       53.5159         0.000       
     101       50.5769         0.000       
     100       50.0605         0.000       
      99       48.9648         0.000       
      98       48.6087         0.000       
      97       46.9929         0.000       
      96       44.9137         0.000       
      95       43.7488         0.000       
      94       42.5253         0.000       
      93       40.9736         0.000       
      92       39.9384         0.000       
      91       39.0878         0.000       
      90       38.9823         0.000       
      89       38.4760         0.000       
      88       38.1757         0.000       
      87       37.2258         0.000       
      86       36.8278         0.000       
      85       36.6015         0.000       
      84       35.8501         0.000       
      83       35.4480         0.000       
      82       34.7344         0.000       
      81       34.0544         0.000       
      80       33.2784         0.000       
      79       33.1518         0.000       
      78       31.4495         0.000       
      77       30.0893         0.000       
      76       29.6369         0.000       
      75       29.0449         0.000       
      74       28.3910         0.000       
      73       27.8856         0.000       
      72       27.0105         0.000       
      71       26.2127         0.000       
      70       24.4150         0.000       
      69       23.1921         0.000       
      68       22.5850         0.000       
      67       21.9123         0.000       
      66       20.8076         0.000       
      65       20.0306         0.000       
      64       18.7620         0.000       
      63       18.2872         0.000       
      62       17.6933         0.000       
      61       15.7687         0.000       
      60       15.4270         0.000       
      59       15.1217         0.000       
      58       14.5166         0.000       
      57       14.0543         0.000       
      56       13.8285         0.000       
      55       13.0725         0.000       
      54       12.2547         0.000       
      53       12.0482         0.000       
      52       11.6309         0.000       
      51       10.8251         0.000       
      50       10.4700         0.000       
      49       10.2183         0.000       
      48       10.0164         0.000       
      47        9.6236         0.000       
      46        9.2160         0.000       
      45        8.5426         0.000       
      44        7.9742         0.000       
      43        7.6076         0.000       
      42        7.4972         0.000       
      41        6.2753         0.000       
      40        6.0329         0.000       
      39        5.7262         0.000       
      38        5.5538         0.000       
      37        4.6332         0.000       
      36        4.4237         0.000       
      35        4.2423         0.000       
      34        3.7970         0.000       
      33        3.3926         0.000       
      32        2.7160         0.000       
      31        1.5752         0.000       
      30        0.9175         0.000       
      29       -0.0485         0.000       
      28       -0.7368         0.000       
      27       -0.9358         0.000       
      26       -1.3197         0.000       
      25       -4.6761         1.000 < LUMO
      24       -4.8906         2.000 < HOMO
      23       -5.0761         2.000       
      22       -5.2144         2.000       
      21       -8.5795         2.000       
      20      -10.1086         2.000       
      19      -10.3958         2.000       
      18      -11.9471         2.000       
      17      -12.4722         2.000       
      16      -14.1811         2.000       
      15      -14.6407         2.000       
      14      -15.8014         2.000       
      13      -16.9453         2.000       
      12      -18.6991         2.000       
      11      -23.4981         2.000       
      10      -24.3356         2.000       
       9     -186.9946         2.000       
       8     -187.0267         2.000       
       7     -187.0643         2.000       
       6     -247.9762         2.000       
       5     -272.0697         2.000       
       4     -272.1186         2.000       
       3     -382.8199         2.000       
       2     -383.6421         2.000       
       1    -2747.2328         2.000       

AMS application finished. Exiting.
NORMAL TERMINATION
     Total cpu time:    1013.98
  Total system time:       6.21
 Total elapsed time:    1023.29
NORMAL TERMINATION with warnings
