
 *******************************************************************************
 *                                                                             *
 *  --------------------------------                                           *
 *   Amsterdam Modeling Suite (AMS)              2026.103                      *
 *  --------------------------------                                           *
 *                                               r260501 2026-05-01 873454b5   *
 *                                                                             *
 *                                                                             *
 *                              =================                              *
 *                              |               |                              *
 *                              |     A M S     |                              *
 *                              |               |                              *
 *                              =================                              *
 *                                                                             *
 *                                                                             *
 *   Online information and documentation:  https://www.scm.com/support/       *
 *   E-mail:  support@scm.com   info@scm.com                                   *
 *                                                                             *
 *   Scientific publications using AMS results must be properly referenced     *
 *   See the User Manuals (or the web site) for recommended citations          *
 *   The terms and conditions of the End User License Agreement apply to       *
 *   the use of AMS, https://www.scm.com/license-terms/                        *
 *                                                                             *
 **********************  x86_64_linux_intel / intelmpi  ************************
 
 Licensed to: Jong-June Jeon / University of Seoul 2026-05-13 16:10:32
 SCM User ID: u30731
  
 AMS 2026.103  RunTime: May23-2026 13:31:50  ShM Nodes: 1  Procs: 1

 AMS jobname: full
 AMS jobid  : 400850542

 Start   directory: /gpfs/tmp_cpu2/yeseo1ee_plams/ac_batch/plams_ac/ac_eda/full/
 Results directory: /gpfs/tmp_cpu2/yeseo1ee_plams/ac_batch/plams_ac/ac_eda/full/
 Scratch directory: /tmp/amstmp_full_kid0.400850542/

 RNG seed: 1347054861 -1398111355 -463485330 1513149952 -761616511 1023099497 -1844628573 983675396



                      ************************************************************************
                      *  ADF 2026.103  RunTime: May23-2026 13:31:50  ShM Nodes: 1  Procs: 1  *
                      ************************************************************************
  

       ****************************
       * SINGLE POINT CALCULATION *
       ****************************

--------
Geometry
--------
Formula: C7H10O2
Atoms
  Index Symbol   x (angstrom)   y (angstrom)   z (angstrom)
      1      C     0.23474017    -1.59022701    -0.68115552 adf.f=subsystem1
      2      C    -0.66732360    -0.72295895    -0.11869783 adf.f=subsystem1
      3      C    -1.41309225     0.23135982    -1.02765884 adf.f=subsystem1
      4      C    -2.17148432     1.33413565    -0.35981069 adf.f=subsystem1
      5      O    -1.38698872     0.09063750    -2.22615650 adf.f=subsystem1
      6      O    -0.74316147    -0.51681352     1.13804223 adf.f=subsystem1
      7      H     0.25989731    -1.69428590    -1.75614434 adf.f=subsystem1
      8      H     0.61389605    -2.40126674    -0.08078476 adf.f=subsystem1
      9      H    -1.49111124     1.95234722     0.22392565 adf.f=subsystem1
     10      H    -2.67589326     1.93280344    -1.11118829 adf.f=subsystem1
     11      H    -2.88733131     0.91688737     0.34559881 adf.f=subsystem1
     12      C     0.88829086     0.13327589     1.88498590 adf.f=subsystem2
     13      C     1.57373812     0.55824738     0.75917866 adf.f=subsystem2
     14      C     2.05135728    -0.39001519    -0.11541517 adf.f=subsystem2
     15      H     0.43408176     0.84908567     2.55360478 adf.f=subsystem2
     16      H     1.14058804    -0.81861016     2.32901965 adf.f=subsystem2
     17      H     1.38591141     1.56008113     0.39157980 adf.f=subsystem2
     18      H     2.41950102    -0.10238040    -1.09098609 adf.f=subsystem2
     19      H     2.43438215    -1.32230319     0.27167356 adf.f=subsystem2

Total System Charge              0.00000


----------------
ADF Engine Input
----------------
 
   basis
     core None
     type TZ2P
   End
   fragments
     subsystem1 /gpfs/tmp_cpu2/yeseo1ee_plams/ac_batch/plams_ac/ac_eda/frag1/adf.rkf
     subsystem2 /gpfs/tmp_cpu2/yeseo1ee_plams/ac_batch/plams_ac/ac_eda/frag2/adf.rkf
   End
   numericalquality Good
   relativity
     level Scalar
   End
   scf
     mixing 0.05
   End
   spinpolarization 0
   symmetry NOSYM
   unrestricted yes
   unrestrictedfragments yes
   xc
     dispersion Grimme3 BJDAMP
     gga BLYP
   End
 

 Title: *** (NO TITLE) ***

 *** adf ***



 ===========================
 A T T A C H E D   F I L E S
 ===========================
  



 ===============================
 M O D E L   P A R A M E T E R S
 ===============================
  
 DENSITY FUNCTIONAL POTENTIAL (scf)
    LDA:                               Exchange only                           == Not Default ==
    Gradient Corrections:              Becke88 LYP                             == Not Default ==

 SPIN  (restricted / unrestr.)
    Molecule:                          UNrestricted                            == Not Default ==
    Fragments:                         UNrestricted                            == Not Default ==

 OTHER ASPECTS
    Relativistic Corrections:          scalar (ZORA,MAPA)                       

    Nuclear Charge Density Model:      Point Charge Nuclei                      
    Core Treatment:                    Frozen Orbital(s)                        

    Hyperfine or Zeeman Interaction:   ---                                      

 Settings for Grimme D3 dispersion correction

      damping                        BJ
      s6                          1.000
      s8                          2.700
      a1                          0.430
      a2                          4.236

 Other (technical) parameters

      alpha                      14.000
      version                         4
 


 Fragment File(s)
 ----------------
 subsystem1:
         file : /gpfs/tmp_cpu2/yeseo1ee_plams/ac_batch/plams_ac/ac_eda/frag1/adf.rkf
         jobid: 156789267
         title: *** adf ***
 subsystem2:
         file : /gpfs/tmp_cpu2/yeseo1ee_plams/ac_batch/plams_ac/ac_eda/frag2/adf.rkf
         jobid: 1770237515
         title: *** adf ***



 ===============
 G E O M E T R Y  ***  3D  Molecule  ***
 ===============
  

 ATOMS
 =====                            X Y Z                    CHARGE
                                (Angstrom)             Nucl     +Core       At.Mass
                       --------------------------    ----------------       -------
    1  C               0.2347   -1.5902   -0.6812      6.00      6.00       12.0000
    2  C              -0.6673   -0.7230   -0.1187      6.00      6.00       12.0000
    3  C              -1.4131    0.2314   -1.0277      6.00      6.00       12.0000
    4  C              -2.1715    1.3341   -0.3598      6.00      6.00       12.0000
    5  O              -1.3870    0.0906   -2.2262      8.00      8.00       15.9949
    6  O              -0.7432   -0.5168    1.1380      8.00      8.00       15.9949
    7  H               0.2599   -1.6943   -1.7561      1.00      1.00        1.0078
    8  H               0.6139   -2.4013   -0.0808      1.00      1.00        1.0078
    9  H              -1.4911    1.9523    0.2239      1.00      1.00        1.0078
   10  H              -2.6759    1.9328   -1.1112      1.00      1.00        1.0078
   11  H              -2.8873    0.9169    0.3456      1.00      1.00        1.0078
   12  C               0.8883    0.1333    1.8850      6.00      6.00       12.0000
   13  C               1.5737    0.5582    0.7592      6.00      6.00       12.0000
   14  C               2.0514   -0.3900   -0.1154      6.00      6.00       12.0000
   15  H               0.4341    0.8491    2.5536      1.00      1.00        1.0078
   16  H               1.1406   -0.8186    2.3290      1.00      1.00        1.0078
   17  H               1.3859    1.5601    0.3916      1.00      1.00        1.0078
   18  H               2.4195   -0.1024   -1.0910      1.00      1.00        1.0078
   19  H               2.4344   -1.3223    0.2717      1.00      1.00        1.0078


 FRAGMENTS
 =========                                     Atoms in this Fragment     Cart. coord.s (Angstrom)
                                               -------------------------------------------------------
    1  subsystem1                                        1  C            0.2347   -1.5902   -0.6812
                                                         2  C           -0.6673   -0.7230   -0.1187
                                                         3  C           -1.4131    0.2314   -1.0277
                                                         4  C           -2.1715    1.3341   -0.3598
                                                         5  O           -1.3870    0.0906   -2.2262
                                                         6  O           -0.7432   -0.5168    1.1380
                                                         7  H            0.2599   -1.6943   -1.7561
                                                         8  H            0.6139   -2.4013   -0.0808
                                                         9  H           -1.4911    1.9523    0.2239
                                                        10  H           -2.6759    1.9328   -1.1112
                                                        11  H           -2.8873    0.9169    0.3456
    2  subsystem2                                       12  C            0.8883    0.1333    1.8850
                                                        13  C            1.5737    0.5582    0.7592
                                                        14  C            2.0514   -0.3900   -0.1154
                                                        15  H            0.4341    0.8491    2.5536
                                                        16  H            1.1406   -0.8186    2.3290
                                                        17  H            1.3859    1.5601    0.3916
                                                        18  H            2.4195   -0.1024   -1.0910
                                                        19  H            2.4344   -1.3223    0.2717


 Interatomic Distance Matrix (Angstrom)
 --------------------------------------

   1)     0.000
   2)     1.372   0.000
   3)     2.481   1.514   0.000
   4)     3.801   2.560   1.496   0.000
   5)     2.800   2.371   1.207   2.376   0.000
   6)     2.328   1.276   2.387   2.777   3.479   0.000
   7)     1.080   2.118   2.653   4.127   2.474   3.282   0.000
   8)     1.078   2.112   3.455   4.668   3.849   2.623   1.853   0.000
   9)     4.043   2.820   2.129   1.089   3.079   2.737   4.504   4.845   0.000
  10)     4.590   3.475   2.121   1.085   2.510   3.846   4.711   5.538   1.785   0.000
  11)     4.134   2.799   2.128   1.088   3.090   2.698   4.598   4.843   1.743   1.789
          0.000
  12)     3.160   2.677   3.713   3.980   4.699   1.908   4.122   3.219   3.425   4.992
          4.152   0.000
  13)     2.913   2.727   3.496   3.985   4.230   2.582   3.623   3.223   3.409   4.842
          4.495   1.385   0.000
  14)     2.250   2.739   3.636   4.568   4.063   3.065   2.757   2.472   4.260   5.360
          5.129   2.372   1.376   0.000
  15)     4.056   3.290   4.077   3.939   5.171   2.292   5.007   4.188   3.217   4.927
          3.989   1.080   2.146   3.358   0.000
  16)     3.237   3.045   4.346   4.778   5.288   2.249   4.270   2.931   4.363   5.828
          4.814   1.080   2.133   2.644   1.825   0.000
  17)     3.521   3.113   3.408   3.643   4.087   3.067   4.059   4.063   2.908   4.347
          4.322   2.125   1.084   2.122   2.467   3.078   0.000
  18)     2.675   3.295   3.848   4.866   3.977   3.891   2.764   3.093   4.609   5.487
          5.592   3.355   2.139   1.082   4.258   3.721   2.456   0.000
  19)     2.412   3.183   4.348   5.354   4.779   3.391   2.996   2.145   5.112   6.215
          5.774   2.667   2.125   1.080   3.731   2.482   3.069   1.829   0.000

 Min. Distance =    1.0780
 Max. Distance =    6.2147



 =====================================
 S Y M M E T R Y ,   E L E C T R O N S
 =====================================
  
 Symmetry: NOSYM

 Irreducible Representations, including subspecies
 -------------------------------------------------
 A


 Configuration of Valence Electrons
 ==================================
 ( determined in the SCF procedure )

 Total:   34 (Spin-A)  + 34 (Spin-B)

 Net Charge: 0 (Nuclei minus Electrons)
 Spin polar: 0 (Spin_A minus Spin_B electrons)

 Aufbau principle for MO occupations will be applied through SCF cycle no.     150
 Thereafter, the program will assign electrons to MOs that are spatially
 similar to the occupied MOs in a "reference" cycle ("KeepOrbitals").
 The reference cycle is always the PREVIOUS cycle: it will evolve with
 the SCF procedure.
 ***************************************************************************************************



                                      ****************************************
                                      *  B U I L D : (Fragments, Functions)  *
                                      ****************************************
  

 The individual fragments are copies of the corresponding 'Master' fragments defined on the fragment files.
 However, they may have been rotated (and translated) with respect to the Master. The local coordinate axes
 of each fragment (which define for instance the spatial orientation in the current molecule of a fragment
 P:x orbital) are not necessarily those of the molecule.
 The local frame (if different from the molecular one) is printed to enable an interpretation of the expan-
 sion of an MO in Fragment Orbitals.



                                          ********************************
                                          *  Fragment Type : subsystem1  *
                                          ********************************
  

 Fragment no.    1   (in the list of all fragments)
 -----------------
 The local coordinate frame is identical to the molecular frame.

 Check Atomic Coordinates:

                  Master (on file)          After Computed Tranformation               As specified on Input
           ----------------------------     ----------------------------     ---------------------------------
     1)     0.23474  -1.59023  -0.68116      0.23474  -1.59023  -0.68116       1   0.23474  -1.59023  -0.68116
     2)    -0.66732  -0.72296  -0.11870     -0.66732  -0.72296  -0.11870       2  -0.66732  -0.72296  -0.11870
     3)    -1.41309   0.23136  -1.02766     -1.41309   0.23136  -1.02766       3  -1.41309   0.23136  -1.02766
     4)    -2.17148   1.33414  -0.35981     -2.17148   1.33414  -0.35981       4  -2.17148   1.33414  -0.35981
     5)    -1.38699   0.09064  -2.22616     -1.38699   0.09064  -2.22616       5  -1.38699   0.09064  -2.22616
     6)    -0.74316  -0.51681   1.13804     -0.74316  -0.51681   1.13804       6  -0.74316  -0.51681   1.13804
     7)     0.25990  -1.69429  -1.75614      0.25990  -1.69429  -1.75614       7   0.25990  -1.69429  -1.75614
     8)     0.61390  -2.40127  -0.08078      0.61390  -2.40127  -0.08078       8   0.61390  -2.40127  -0.08078
     9)    -1.49111   1.95235   0.22393     -1.49111   1.95235   0.22393       9  -1.49111   1.95235   0.22393
    10)    -2.67589   1.93280  -1.11119     -2.67589   1.93280  -1.11119      10  -2.67589   1.93280  -1.11119
    11)    -2.88733   0.91689   0.34560     -2.88733   0.91689   0.34560      11  -2.88733   0.91689   0.34560



                                          ********************************
                                          *  Fragment Type : subsystem2  *
                                          ********************************
  

 Fragment no.    2   (in the list of all fragments)
 -----------------
 The local coordinate frame is identical to the molecular frame.

 Check Atomic Coordinates:

                  Master (on file)          After Computed Tranformation               As specified on Input
           ----------------------------     ----------------------------     ---------------------------------
     1)     0.88829   0.13328   1.88499      0.88829   0.13328   1.88499      12   0.88829   0.13328   1.88499
     2)     1.57374   0.55825   0.75918      1.57374   0.55825   0.75918      13   1.57374   0.55825   0.75918
     3)     2.05136  -0.39002  -0.11542      2.05136  -0.39002  -0.11542      14   2.05136  -0.39002  -0.11542
     4)     0.43408   0.84909   2.55360      0.43408   0.84909   2.55360      15   0.43408   0.84909   2.55360
     5)     1.14059  -0.81861   2.32902      1.14059  -0.81861   2.32902      16   1.14059  -0.81861   2.32902
     6)     1.38591   1.56008   0.39158      1.38591   1.56008   0.39158      17   1.38591   1.56008   0.39158
     7)     2.41950  -0.10238  -1.09099      2.41950  -0.10238  -1.09099      18   2.41950  -0.10238  -1.09099
     8)     2.43438  -1.32230   0.27167      2.43438  -1.32230   0.27167      19   2.43438  -1.32230   0.27167



 =======
 S F O s  ***  (Symmetrized Fragment Orbitals)  ***
 =======
  
 SFOs are linear combinations of (valence) Fragment Orbitals (FOs), such that the SFOs transform as the
 irreducible representations of the (molecular) symmetry group. Each SFO is therefore characterized by
 an irrep of the molecule and by a few (or only one) generating FOs.
 The SFOs constitute a symmetry-adapted basis for the Fock matrix. The MO eigenvector coefficients in
 this basis provide a direct interpretation of the MOs in terms of Frontier Orbital Theory.

 The SFOs are combined with auxiliary Core Functions (CFs) to ensure orthogonalization on the (frozen)
 Core Orbitals (COs). The Core-orthogonalized SFOs (CSFOs) constitute the true Fock basis.

 The FOs, and hence also the (C)SFOs are combinations of the elementary basis functions (BAS). The basis
 functions that participate in the description of the SFOs depend on the irrep. The indices of the
 involved functions are printed below for each irrep.
 (The complete list of primitive basis functions is printed in another section)

 Total nr. of (C)SFOs (summation over all irreps) :   344

 NOTE: a (C)SFO that is defined as a combination of more than one FO is usually NOT normalized.



                                       === A ===
 Nr. of SFOs :  344
 Cartesian basis functions that participate in this irrep (total number =   390) :
      1     2     3     4     5     6     9    12     7    10
     13     8    11    14    15    16    17    18    19    20
     21    22    23    24    25    26    27    28    29    30
     31    32    33    34    35    36    39    42    37    40
     43    38    41    44    45    46    47    48    49    50
     51    52    53    54    55    56    57    58    59    60
     61    62    63    64    65    66    69    72    67    70
     73    68    71    74    75    76    77    78    79    80
     81    82    83    84    85    86    87    88    89    90
     91    92    93    94    95    96    99   102    97   100
    103    98   101   104   105   106   107   108   109   110
    111   112   113   114   115   116   117   118   119   120
    121   122   123   124   125   126   129   132   127   130
    133   128   131   134   135   136   137   138   139   140
    141   142   143   144   145   146   147   148   149   150
    151   152   153   154   155   156   159   162   157   160
    163   158   161   164   165   166   167   168   169   170
    171   172   173   174   175   176   177   178   179   180
    181   182   183   184   185   186   187   188   189   190
    191   192   193   194   195   196   197   198   199   200
    201   202   203   204   205   206   207   208   209   210
    211   212   213   214   215   216   217   218   219   220
    221   222   223   224   225   226   227   228   229   230
    231   232   233   234   235   236   237   238   239   240
    241   242   243   244   245   246   249   252   247   250
    253   248   251   254   255   256   257   258   259   260
    261   262   263   264   265   266   267   268   269   270
    271   272   273   274   275   276   279   282   277   280
    283   278   281   284   285   286   287   288   289   290
    291   292   293   294   295   296   297   298   299   300
    301   302   303   304   305   306   309   312   307   310
    313   308   311   314   315   316   317   318   319   320
    321   322   323   324   325   326   327   328   329   330
    331   332   333   334   335   336   337   338   339   340
    341   342   343   344   345   346   347   348   349   350
    351   352   353   354   355   356   357   358   359   360
    361   362   363   364   365   366   367   368   369   370
    371   372   373   374   375   376   377   378   379   380
    381   382   383   384   385   386   387   388   389   390

  SPIN  SFO   (index    Fragment               GeneratinExpansion in Fragment Orbitals
       indx  incl.CFs)   Occup   Orb.Energy   FragmentType  Coeff.   Orbital     on Fragment
 -------------------------------------------------------------------------------------------
   A     1       1       1.000     -18.811 au  subsystem1    1.00      1 A               1
                             (    -511.871 eV)
   B                     1.000     -18.801 au
                             (    -511.614 eV)
   A     2       2       1.000     -18.801 au  subsystem1    1.00      2 A               1
                             (    -511.589 eV)
   B                     1.000     -18.800 au
                             (    -511.581 eV)
   A     3       3       1.000     -10.015 au  subsystem1    1.00      3 A               1
                             (    -272.513 eV)
   B                     1.000     -10.015 au
                             (    -272.514 eV)
   A     4       4       1.000     -10.005 au  subsystem1    1.00      4 A               1
                             (    -272.262 eV)
   B                     1.000     -10.007 au
                             (    -272.291 eV)
   A     5       5       1.000      -9.968 au  subsystem1    1.00      5 A               1
                             (    -271.244 eV)
   B                     1.000      -9.959 au
                             (    -271.000 eV)
   A     6       6       1.000      -9.921 au  subsystem1    1.00      6 A               1
                             (    -269.953 eV)
   B                     1.000      -9.921 au
                             (    -269.954 eV)
   A     7       7       1.000      -0.980 au  subsystem1    1.00      7 A               1
                             (     -26.665 eV)
   B                     1.000      -0.978 au
                             (     -26.626 eV)
   A     8       8       1.000      -0.955 au  subsystem1    1.00      8 A               1
                             (     -25.976 eV)
   B                     1.000      -0.940 au
                             (     -25.580 eV)
   A     9       9       1.000      -0.717 au  subsystem1    1.00      9 A               1
                             (     -19.502 eV)
   B                     1.000      -0.700 au
                             (     -19.059 eV)
   A    10      10       1.000      -0.687 au  subsystem1    1.00     10 A               1
                             (     -18.706 eV)
   B                     1.000      -0.686 au
                             (     -18.655 eV)
   A    11      11       1.000      -0.576 au  subsystem1    1.00     11 A               1
                             (     -15.683 eV)
   B                     1.000      -0.572 au
                             (     -15.560 eV)
   A    12      12       1.000      -0.474 au  subsystem1    1.00     12 A               1
                             (     -12.901 eV)
   B                     1.000      -0.468 au
                             (     -12.734 eV)
   A    13      13       1.000      -0.452 au  subsystem1    1.00     13 A               1
                             (     -12.288 eV)
   B                     1.000      -0.449 au
                             (     -12.218 eV)
   A    14      14       1.000      -0.426 au  subsystem1    1.00     14 A               1
                             (     -11.605 eV)
   B                     1.000      -0.421 au
                             (     -11.465 eV)
   A    15      15       1.000      -0.419 au  subsystem1    1.00     15 A               1
                             (     -11.397 eV)
   B                     1.000      -0.415 au
                             (     -11.283 eV)
   A    16      16       1.000      -0.391 au  subsystem1    1.00     16 A               1
                             (     -10.642 eV)
   B                     1.000      -0.389 au
                             (     -10.575 eV)
   A    17      17       1.000      -0.381 au  subsystem1    1.00     17 A               1
                             (     -10.355 eV)
   B                     1.000      -0.376 au
                             (     -10.225 eV)
   A    18      18       1.000      -0.369 au  subsystem1    1.00     18 A               1
                             (     -10.042 eV)
   B                     1.000      -0.354 au
                             (      -9.633 eV)
   A    19      19       1.000      -0.350 au  subsystem1    1.00     19 A               1
                             (      -9.513 eV)
   B                     1.000      -0.347 au
                             (      -9.434 eV)
   A    20      20       1.000      -0.335 au  subsystem1    1.00     20 A               1
                             (      -9.122 eV)
   B                     1.000      -0.328 au
                             (      -8.933 eV)
   A    21      21       1.000      -0.268 au  subsystem1    1.00     21 A               1
                             (      -7.291 eV)
   B                     1.000      -0.262 au
                             (      -7.137 eV)
   A    22      22       1.000      -0.249 au  subsystem1    1.00     22 A               1
                             (      -6.767 eV)
   B                     1.000      -0.207 au
                             (      -5.644 eV)
   A    23      23       1.000      -0.212 au  subsystem1    1.00     23 A               1
                             (      -5.761 eV)
   B                      --        -0.195 au
                             (      -5.308 eV)
   A    24      24        --        -0.114 au  subsystem1    1.00     24 A               1
                             (      -3.110 eV)
   B                      --        -0.100 au
                             (      -2.721 eV)
   A    25      25        --        -0.004 au  subsystem1    1.00     25 A               1
                             (      -0.104 eV)
   B                      --        -0.002 au
                             (      -0.067 eV)
   A    26      26        --         0.008 au  subsystem1    1.00     26 A               1
                             (       0.211 eV)
   B                      --         0.014 au
                             (       0.390 eV)
   A    27      27        --         0.013 au  subsystem1    1.00     27 A               1
                             (       0.347 eV)
   B                      --         0.018 au
                             (       0.477 eV)
   A    28      28        --         0.048 au  subsystem1    1.00     28 A               1
                             (       1.314 eV)
   B                      --         0.049 au
                             (       1.346 eV)
   A    29      29        --         0.056 au  subsystem1    1.00     29 A               1
                             (       1.523 eV)
   B                      --         0.056 au
                             (       1.532 eV)
   A    30      30        --         0.059 au  subsystem1    1.00     30 A               1
                             (       1.597 eV)
   B                      --         0.059 au
                             (       1.606 eV)
   A    31      31        --         0.089 au  subsystem1    1.00     31 A               1
                             (       2.413 eV)
   B                      --         0.089 au
                             (       2.418 eV)
   A    32      32        --         0.105 au  subsystem1    1.00     32 A               1
                             (       2.856 eV)
   B                      --         0.107 au
                             (       2.913 eV)
   A    33      33        --         0.137 au  subsystem1    1.00     33 A               1
                             (       3.725 eV)
   B                      --         0.139 au
                             (       3.791 eV)
   A    34      34        --         0.145 au  subsystem1    1.00     34 A               1
                             (       3.936 eV)
   B                      --         0.155 au
                             (       4.214 eV)
   A    35      35        --         0.159 au  subsystem1    1.00     35 A               1
                             (       4.319 eV)
   B                      --         0.164 au
                             (       4.459 eV)
   A    36      36        --         0.186 au  subsystem1    1.00     36 A               1
                             (       5.066 eV)
   B                      --         0.192 au
                             (       5.221 eV)
   A    37      37        --         0.209 au  subsystem1    1.00     37 A               1
                             (       5.687 eV)
   B                      --         0.214 au
                             (       5.827 eV)
   A    38      38        --         0.219 au  subsystem1    1.00     38 A               1
                             (       5.972 eV)
   B                      --         0.221 au
                             (       6.020 eV)
   A    39      39        --         0.238 au  subsystem1    1.00     39 A               1
                             (       6.474 eV)
   B                      --         0.239 au
                             (       6.516 eV)
   A    40      40        --         0.250 au  subsystem1    1.00     40 A               1
                             (       6.794 eV)
   B                      --         0.257 au
                             (       6.992 eV)
   A    41      41        --         0.272 au  subsystem1    1.00     41 A               1
                             (       7.400 eV)
   B                      --         0.280 au
                             (       7.621 eV)
   A    42      42        --         0.287 au  subsystem1    1.00     42 A               1
                             (       7.813 eV)
   B                      --         0.288 au
                             (       7.846 eV)
   A    43      43        --         0.302 au  subsystem1    1.00     43 A               1
                             (       8.226 eV)
   B                      --         0.307 au
                             (       8.352 eV)
   A    44      44        --         0.334 au  subsystem1    1.00     44 A               1
                             (       9.086 eV)
   B                      --         0.338 au
                             (       9.208 eV)
   A    45      45        --         0.343 au  subsystem1    1.00     45 A               1
                             (       9.342 eV)
   B                      --         0.346 au
                             (       9.409 eV)
   A    46      46        --         0.367 au  subsystem1    1.00     46 A               1
                             (       9.981 eV)
   B                      --         0.370 au
                             (      10.055 eV)
   A    47      47        --         0.388 au  subsystem1    1.00     47 A               1
                             (      10.564 eV)
   B                      --         0.390 au
                             (      10.613 eV)
   A    48      48        --         0.394 au  subsystem1    1.00     48 A               1
                             (      10.726 eV)
   B                      --         0.397 au
                             (      10.807 eV)
   A    49      49        --         0.407 au  subsystem1    1.00     49 A               1
                             (      11.088 eV)
   B                      --         0.409 au
                             (      11.122 eV)
   A    50      50        --         0.424 au  subsystem1    1.00     50 A               1
                             (      11.532 eV)
   B                      --         0.428 au
                             (      11.655 eV)
   A    51      51        --         0.448 au  subsystem1    1.00     51 A               1
                             (      12.203 eV)
   B                      --         0.451 au
                             (      12.265 eV)
   A    52      52        --         0.463 au  subsystem1    1.00     52 A               1
                             (      12.598 eV)
   B                      --         0.465 au
                             (      12.654 eV)
   A    53      53        --         0.516 au  subsystem1    1.00     53 A               1
                             (      14.050 eV)
   B                      --         0.520 au
                             (      14.156 eV)
   A    54      54        --         0.534 au  subsystem1    1.00     54 A               1
                             (      14.536 eV)
   B                      --         0.536 au
                             (      14.581 eV)
   A    55      55        --         0.541 au  subsystem1    1.00     55 A               1
                             (      14.733 eV)
   B                      --         0.554 au
                             (      15.078 eV)
   A    56      56        --         0.578 au  subsystem1    1.00     56 A               1
                             (      15.726 eV)
   B                      --         0.583 au
                             (      15.852 eV)
   A    57      57        --         0.616 au  subsystem1    1.00     57 A               1
                             (      16.772 eV)
   B                      --         0.619 au
                             (      16.833 eV)
   A    58      58        --         0.653 au  subsystem1    1.00     58 A               1
                             (      17.762 eV)
   B                      --         0.655 au
                             (      17.832 eV)
   A    59      59        --         0.665 au  subsystem1    1.00     59 A               1
                             (      18.095 eV)
   B                      --         0.669 au
                             (      18.210 eV)
   A    60      60        --         0.718 au  subsystem1    1.00     60 A               1
                             (      19.530 eV)
   B                      --         0.724 au
                             (      19.694 eV)
   A    61      61        --         0.754 au  subsystem1    1.00     61 A               1
                             (      20.521 eV)
   B                      --         0.759 au
                             (      20.641 eV)
   A    62      62        --         0.767 au  subsystem1    1.00     62 A               1
                             (      20.879 eV)
   B                      --         0.772 au
                             (      21.008 eV)
   A    63      63        --         0.816 au  subsystem1    1.00     63 A               1
                             (      22.218 eV)
   B                      --         0.819 au
                             (      22.277 eV)
   A    64      64        --         0.838 au  subsystem1    1.00     64 A               1
                             (      22.795 eV)
   B                      --         0.842 au
                             (      22.915 eV)
   A    65      65        --         0.879 au  subsystem1    1.00     65 A               1
                             (      23.911 eV)
   B                      --         0.882 au
                             (      24.005 eV)
   A    66      66        --         0.905 au  subsystem1    1.00     66 A               1
                             (      24.632 eV)
   B                      --         0.908 au
                             (      24.709 eV)
   A    67      67        --         0.915 au  subsystem1    1.00     67 A               1
                             (      24.908 eV)
   B                      --         0.918 au
                             (      24.979 eV)
   A    68      68        --         0.936 au  subsystem1    1.00     68 A               1
                             (      25.470 eV)
   B                      --         0.938 au
                             (      25.524 eV)
   A    69      69        --         0.986 au  subsystem1    1.00     69 A               1
                             (      26.828 eV)
   B                      --         0.995 au
                             (      27.066 eV)
   A    70      70        --         1.000 au  subsystem1    1.00     70 A               1
                             (      27.198 eV)
   B                      --         1.004 au
                             (      27.310 eV)
   A    71      71        --         1.055 au  subsystem1    1.00     71 A               1
                             (      28.713 eV)
   B                      --         1.061 au
                             (      28.867 eV)
   A    72      72        --         1.065 au  subsystem1    1.00     72 A               1
                             (      28.985 eV)
   B                      --         1.073 au
                             (      29.186 eV)
   A    73      73        --         1.089 au  subsystem1    1.00     73 A               1
                             (      29.644 eV)
   B                      --         1.092 au
                             (      29.723 eV)
   A    74      74        --         1.120 au  subsystem1    1.00     74 A               1
                             (      30.472 eV)
   B                      --         1.124 au
                             (      30.594 eV)
   A    75      75        --         1.131 au  subsystem1    1.00     75 A               1
                             (      30.781 eV)
   B                      --         1.137 au
                             (      30.938 eV)
   A    76      76        --         1.157 au  subsystem1    1.00     76 A               1
                             (      31.486 eV)
   B                      --         1.158 au
                             (      31.521 eV)
   A    77      77        --         1.173 au  subsystem1    1.00     77 A               1
                             (      31.919 eV)
   B                      --         1.179 au
                             (      32.088 eV)
   A    78      78        --         1.203 au  subsystem1    1.00     78 A               1
                             (      32.743 eV)
   B                      --         1.211 au
                             (      32.949 eV)
   A    79      79        --         1.249 au  subsystem1    1.00     79 A               1
                             (      33.975 eV)
   B                      --         1.255 au
                             (      34.150 eV)
   A    80      80        --         1.257 au  subsystem1    1.00     80 A               1
                             (      34.198 eV)
   B                      --         1.260 au
                             (      34.289 eV)
   A    81      81        --         1.331 au  subsystem1    1.00     81 A               1
                             (      36.209 eV)
   B                      --         1.338 au
                             (      36.403 eV)
   A    82      82        --         1.335 au  subsystem1    1.00     82 A               1
                             (      36.314 eV)
   B                      --         1.343 au
                             (      36.556 eV)
   A    83      83        --         1.379 au  subsystem1    1.00     83 A               1
                             (      37.519 eV)
   B                      --         1.385 au
                             (      37.675 eV)
   A    84      84        --         1.422 au  subsystem1    1.00     84 A               1
                             (      38.684 eV)
   B                      --         1.424 au
                             (      38.751 eV)
   A    85      85        --         1.435 au  subsystem1    1.00     85 A               1
                             (      39.056 eV)
   B                      --         1.442 au
                             (      39.241 eV)
   A    86      86        --         1.523 au  subsystem1    1.00     86 A               1
                             (      41.448 eV)
   B                      --         1.530 au
                             (      41.629 eV)
   A    87      87        --         1.570 au  subsystem1    1.00     87 A               1
                             (      42.725 eV)
   B                      --         1.582 au
                             (      43.037 eV)
   A    88      88        --         1.581 au  subsystem1    1.00     88 A               1
                             (      43.027 eV)
   B                      --         1.603 au
                             (      43.623 eV)
   A    89      89        --         1.614 au  subsystem1    1.00     89 A               1
                             (      43.920 eV)
   B                      --         1.625 au
                             (      44.220 eV)
   A    90      90        --         1.668 au  subsystem1    1.00     90 A               1
                             (      45.392 eV)
   B                      --         1.670 au
                             (      45.454 eV)
   A    91      91        --         1.700 au  subsystem1    1.00     91 A               1
                             (      46.251 eV)
   B                      --         1.703 au
                             (      46.355 eV)
   A    92      92        --         1.725 au  subsystem1    1.00     92 A               1
                             (      46.935 eV)
   B                      --         1.729 au
                             (      47.053 eV)
   A    93      93        --         1.768 au  subsystem1    1.00     93 A               1
                             (      48.104 eV)
   B                      --         1.772 au
                             (      48.228 eV)
   A    94      94        --         1.817 au  subsystem1    1.00     94 A               1
                             (      49.441 eV)
   B                      --         1.823 au
                             (      49.613 eV)
   A    95      95        --         1.851 au  subsystem1    1.00     95 A               1
                             (      50.371 eV)
   B                      --         1.854 au
                             (      50.438 eV)
   A    96      96        --         1.881 au  subsystem1    1.00     96 A               1
                             (      51.192 eV)
   B                      --         1.890 au
                             (      51.418 eV)
   A    97      97        --         1.915 au  subsystem1    1.00     97 A               1
                             (      52.123 eV)
   B                      --         1.917 au
                             (      52.152 eV)
   A    98      98        --         1.936 au  subsystem1    1.00     98 A               1
                             (      52.679 eV)
   B                      --         1.947 au
                             (      52.983 eV)
   A    99      99        --         1.963 au  subsystem1    1.00     99 A               1
                             (      53.410 eV)
   B                      --         1.973 au
                             (      53.680 eV)
   A   100     100        --         2.029 au  subsystem1    1.00    100 A               1
                             (      55.202 eV)
   B                      --         2.034 au
                             (      55.350 eV)
   A   101     101        --         2.066 au  subsystem1    1.00    101 A               1
                             (      56.231 eV)
   B                      --         2.069 au
                             (      56.313 eV)
   A   102     102        --         2.153 au  subsystem1    1.00    102 A               1
                             (      58.600 eV)
   B                      --         2.165 au
                             (      58.911 eV)
   A   103     103        --         2.166 au  subsystem1    1.00    103 A               1
                             (      58.950 eV)
   B                      --         2.172 au
                             (      59.107 eV)
   A   104     104        --         2.210 au  subsystem1    1.00    104 A               1
                             (      60.146 eV)
   B                      --         2.221 au
                             (      60.449 eV)
   A   105     105        --         2.249 au  subsystem1    1.00    105 A               1
                             (      61.187 eV)
   B                      --         2.255 au
                             (      61.363 eV)
   A   106     106        --         2.269 au  subsystem1    1.00    106 A               1
                             (      61.737 eV)
   B                      --         2.273 au
                             (      61.844 eV)
   A   107     107        --         2.316 au  subsystem1    1.00    107 A               1
                             (      63.013 eV)
   B                      --         2.318 au
                             (      63.064 eV)
   A   108     108        --         2.359 au  subsystem1    1.00    108 A               1
                             (      64.202 eV)
   B                      --         2.364 au
                             (      64.334 eV)
   A   109     109        --         2.389 au  subsystem1    1.00    109 A               1
                             (      64.998 eV)
   B                      --         2.390 au
                             (      65.028 eV)
   A   110     110        --         2.417 au  subsystem1    1.00    110 A               1
                             (      65.776 eV)
   B                      --         2.421 au
                             (      65.866 eV)
   A   111     111        --         2.450 au  subsystem1    1.00    111 A               1
                             (      66.680 eV)
   B                      --         2.457 au
                             (      66.861 eV)
   A   112     112        --         2.490 au  subsystem1    1.00    112 A               1
                             (      67.755 eV)
   B                      --         2.496 au
                             (      67.923 eV)
   A   113     113        --         2.589 au  subsystem1    1.00    113 A               1
                             (      70.457 eV)
   B                      --         2.592 au
                             (      70.540 eV)
   A   114     114        --         2.661 au  subsystem1    1.00    114 A               1
                             (      72.413 eV)
   B                      --         2.664 au
                             (      72.489 eV)
   A   115     115        --         2.692 au  subsystem1    1.00    115 A               1
                             (      73.243 eV)
   B                      --         2.693 au
                             (      73.288 eV)
   A   116     116        --         2.746 au  subsystem1    1.00    116 A               1
                             (      74.725 eV)
   B                      --         2.750 au
                             (      74.818 eV)
   A   117     117        --         2.775 au  subsystem1    1.00    117 A               1
                             (      75.511 eV)
   B                      --         2.777 au
                             (      75.578 eV)
   A   118     118        --         2.805 au  subsystem1    1.00    118 A               1
                             (      76.315 eV)
   B                      --         2.805 au
                             (      76.323 eV)
   A   119     119        --         2.829 au  subsystem1    1.00    119 A               1
                             (      76.984 eV)
   B                      --         2.830 au
                             (      76.999 eV)
   A   120     120        --         2.862 au  subsystem1    1.00    120 A               1
                             (      77.884 eV)
   B                      --         2.867 au
                             (      78.003 eV)
   A   121     121        --         2.879 au  subsystem1    1.00    121 A               1
                             (      78.342 eV)
   B                      --         2.881 au
                             (      78.401 eV)
   A   122     122        --         2.894 au  subsystem1    1.00    122 A               1
                             (      78.736 eV)
   B                      --         2.896 au
                             (      78.809 eV)
   A   123     123        --         2.942 au  subsystem1    1.00    123 A               1
                             (      80.044 eV)
   B                      --         2.946 au
                             (      80.166 eV)
   A   124     124        --         2.949 au  subsystem1    1.00    124 A               1
                             (      80.256 eV)
   B                      --         2.954 au
                             (      80.380 eV)
   A   125     125        --         2.995 au  subsystem1    1.00    125 A               1
                             (      81.501 eV)
   B                      --         2.996 au
                             (      81.516 eV)
   A   126     126        --         3.037 au  subsystem1    1.00    126 A               1
                             (      82.652 eV)
   B                      --         3.043 au
                             (      82.807 eV)
   A   127     127        --         3.091 au  subsystem1    1.00    127 A               1
                             (      84.102 eV)
   B                      --         3.095 au
                             (      84.229 eV)
   A   128     128        --         3.175 au  subsystem1    1.00    128 A               1
                             (      86.407 eV)
   B                      --         3.186 au
                             (      86.701 eV)
   A   129     129        --         3.239 au  subsystem1    1.00    129 A               1
                             (      88.147 eV)
   B                      --         3.255 au
                             (      88.572 eV)
   A   130     130        --         3.278 au  subsystem1    1.00    130 A               1
                             (      89.208 eV)
   B                      --         3.285 au
                             (      89.388 eV)
   A   131     131        --         3.325 au  subsystem1    1.00    131 A               1
                             (      90.491 eV)
   B                      --         3.328 au
                             (      90.554 eV)
   A   132     132        --         3.334 au  subsystem1    1.00    132 A               1
                             (      90.713 eV)
   B                      --         3.337 au
                             (      90.791 eV)
   A   133     133        --         3.374 au  subsystem1    1.00    133 A               1
                             (      91.816 eV)
   B                      --         3.376 au
                             (      91.875 eV)
   A   134     134        --         3.416 au  subsystem1    1.00    134 A               1
                             (      92.957 eV)
   B                      --         3.434 au
                             (      93.452 eV)
   A   135     135        --         3.428 au  subsystem1    1.00    135 A               1
                             (      93.285 eV)
   B                      --         3.440 au
                             (      93.621 eV)
   A   136     136        --         3.448 au  subsystem1    1.00    136 A               1
                             (      93.829 eV)
   B                      --         3.459 au
                             (      94.129 eV)
   A   137     137        --         3.466 au  subsystem1    1.00    137 A               1
                             (      94.325 eV)
   B                      --         3.470 au
                             (      94.411 eV)
   A   138     138        --         3.476 au  subsystem1    1.00    138 A               1
                             (      94.590 eV)
   B                      --         3.481 au
                             (      94.732 eV)
   A   139     139        --         3.489 au  subsystem1    1.00    139 A               1
                             (      94.951 eV)
   B                      --         3.490 au
                             (      94.960 eV)
   A   140     140        --         3.532 au  subsystem1    1.00    140 A               1
                             (      96.114 eV)
   B                      --         3.549 au
                             (      96.567 eV)
   A   141     141        --         3.568 au  subsystem1    1.00    141 A               1
                             (      97.092 eV)
   B                      --         3.576 au
                             (      97.297 eV)
   A   142     142        --         3.600 au  subsystem1    1.00    142 A               1
                             (      97.971 eV)
   B                      --         3.620 au
                             (      98.501 eV)
   A   143     143        --         3.639 au  subsystem1    1.00    143 A               1
                             (      99.035 eV)
   B                      --         3.647 au
                             (      99.250 eV)
   A   144     144        --         3.700 au  subsystem1    1.00    144 A               1
                             (     100.689 eV)
   B                      --         3.706 au
                             (     100.854 eV)
   A   145     145        --         3.781 au  subsystem1    1.00    145 A               1
                             (     102.875 eV)
   B                      --         3.799 au
                             (     103.375 eV)
   A   146     146        --         3.837 au  subsystem1    1.00    146 A               1
                             (     104.419 eV)
   B                      --         3.843 au
                             (     104.573 eV)
   A   147     147        --         3.866 au  subsystem1    1.00    147 A               1
                             (     105.208 eV)
   B                      --         3.871 au
                             (     105.327 eV)
   A   148     148        --         3.881 au  subsystem1    1.00    148 A               1
                             (     105.598 eV)
   B                      --         3.885 au
                             (     105.723 eV)
   A   149     149        --         3.939 au  subsystem1    1.00    149 A               1
                             (     107.176 eV)
   B                      --         3.945 au
                             (     107.352 eV)
   A   150     150        --         4.018 au  subsystem1    1.00    150 A               1
                             (     109.339 eV)
   B                      --         4.021 au
                             (     109.413 eV)
   A   151     151        --         4.038 au  subsystem1    1.00    151 A               1
                             (     109.873 eV)
   B                      --         4.048 au
                             (     110.147 eV)
   A   152     152        --         4.143 au  subsystem1    1.00    152 A               1
                             (     112.730 eV)
   B                      --         4.151 au
                             (     112.949 eV)
   A   153     153        --         4.149 au  subsystem1    1.00    153 A               1
                             (     112.903 eV)
   B                      --         4.157 au
                             (     113.105 eV)
   A   154     154        --         4.237 au  subsystem1    1.00    154 A               1
                             (     115.292 eV)
   B                      --         4.244 au
                             (     115.472 eV)
   A   155     155        --         4.248 au  subsystem1    1.00    155 A               1
                             (     115.592 eV)
   B                      --         4.267 au
                             (     116.107 eV)
   A   156     156        --         4.296 au  subsystem1    1.00    156 A               1
                             (     116.898 eV)
   B                      --         4.303 au
                             (     117.078 eV)
   A   157     157        --         4.322 au  subsystem1    1.00    157 A               1
                             (     117.616 eV)
   B                      --         4.336 au
                             (     117.989 eV)
   A   158     158        --         4.388 au  subsystem1    1.00    158 A               1
                             (     119.391 eV)
   B                      --         4.401 au
                             (     119.757 eV)
   A   159     159        --         4.439 au  subsystem1    1.00    159 A               1
                             (     120.795 eV)
   B                      --         4.447 au
                             (     121.017 eV)
   A   160     160        --         4.495 au  subsystem1    1.00    160 A               1
                             (     122.310 eV)
   B                      --         4.501 au
                             (     122.468 eV)
   A   161     161        --         4.544 au  subsystem1    1.00    161 A               1
                             (     123.635 eV)
   B                      --         4.548 au
                             (     123.745 eV)
   A   162     162        --         4.573 au  subsystem1    1.00    162 A               1
                             (     124.445 eV)
   B                      --         4.582 au
                             (     124.676 eV)
   A   163     163        --         4.630 au  subsystem1    1.00    163 A               1
                             (     126.001 eV)
   B                      --         4.633 au
                             (     126.082 eV)
   A   164     164        --         4.651 au  subsystem1    1.00    164 A               1
                             (     126.548 eV)
   B                      --         4.653 au
                             (     126.605 eV)
   A   165     165        --         4.683 au  subsystem1    1.00    165 A               1
                             (     127.430 eV)
   B                      --         4.695 au
                             (     127.747 eV)
   A   166     166        --         4.750 au  subsystem1    1.00    166 A               1
                             (     129.248 eV)
   B                      --         4.751 au
                             (     129.271 eV)
   A   167     167        --         4.839 au  subsystem1    1.00    167 A               1
                             (     131.683 eV)
   B                      --         4.847 au
                             (     131.885 eV)
   A   168     168        --         4.862 au  subsystem1    1.00    168 A               1
                             (     132.313 eV)
   B                      --         4.867 au
                             (     132.446 eV)
   A   169     169        --         4.950 au  subsystem1    1.00    169 A               1
                             (     134.693 eV)
   B                      --         4.954 au
                             (     134.815 eV)
   A   170     170        --         5.024 au  subsystem1    1.00    170 A               1
                             (     136.706 eV)
   B                      --         5.033 au
                             (     136.963 eV)
   A   171     171        --         5.080 au  subsystem1    1.00    171 A               1
                             (     138.246 eV)
   B                      --         5.085 au
                             (     138.372 eV)
   A   172     172        --         5.126 au  subsystem1    1.00    172 A               1
                             (     139.472 eV)
   B                      --         5.131 au
                             (     139.624 eV)
   A   173     173        --         5.237 au  subsystem1    1.00    173 A               1
                             (     142.497 eV)
   B                      --         5.248 au
                             (     142.808 eV)
   A   174     174        --         5.328 au  subsystem1    1.00    174 A               1
                             (     144.980 eV)
   B                      --         5.332 au
                             (     145.080 eV)
   A   175     175        --         5.512 au  subsystem1    1.00    175 A               1
                             (     149.980 eV)
   B                      --         5.514 au
                             (     150.040 eV)
   A   176     176        --         5.554 au  subsystem1    1.00    176 A               1
                             (     151.137 eV)
   B                      --         5.556 au
                             (     151.186 eV)
   A   177     177        --         5.611 au  subsystem1    1.00    177 A               1
                             (     152.696 eV)
   B                      --         5.614 au
                             (     152.766 eV)
   A   178     178        --         5.758 au  subsystem1    1.00    178 A               1
                             (     156.671 eV)
   B                      --         5.771 au
                             (     157.042 eV)
   A   179     179        --         5.865 au  subsystem1    1.00    179 A               1
                             (     159.586 eV)
   B                      --         5.872 au
                             (     159.782 eV)
   A   180     180        --         5.911 au  subsystem1    1.00    180 A               1
                             (     160.845 eV)
   B                      --         5.926 au
                             (     161.267 eV)
   A   181     181        --         6.107 au  subsystem1    1.00    181 A               1
                             (     166.185 eV)
   B                      --         6.120 au
                             (     166.535 eV)
   A   182     182        --         6.119 au  subsystem1    1.00    182 A               1
                             (     166.509 eV)
   B                      --         6.134 au
                             (     166.928 eV)
   A   183     183        --         6.221 au  subsystem1    1.00    183 A               1
                             (     169.279 eV)
   B                      --         6.226 au
                             (     169.420 eV)
   A   184     184        --         6.264 au  subsystem1    1.00    184 A               1
                             (     170.447 eV)
   B                      --         6.277 au
                             (     170.809 eV)
   A   185     185        --         6.338 au  subsystem1    1.00    185 A               1
                             (     172.458 eV)
   B                      --         6.352 au
                             (     172.833 eV)
   A   186     186        --         6.366 au  subsystem1    1.00    186 A               1
                             (     173.217 eV)
   B                      --         6.372 au
                             (     173.397 eV)
   A   187     187        --         6.452 au  subsystem1    1.00    187 A               1
                             (     175.558 eV)
   B                      --         6.452 au
                             (     175.575 eV)
   A   188     188        --         6.493 au  subsystem1    1.00    188 A               1
                             (     176.674 eV)
   B                      --         6.495 au
                             (     176.750 eV)
   A   189     189        --         6.582 au  subsystem1    1.00    189 A               1
                             (     179.114 eV)
   B                      --         6.583 au
                             (     179.122 eV)
   A   190     190        --         6.644 au  subsystem1    1.00    190 A               1
                             (     180.783 eV)
   B                      --         6.648 au
                             (     180.903 eV)
   A   191     191        --         6.763 au  subsystem1    1.00    191 A               1
                             (     184.042 eV)
   B                      --         6.764 au
                             (     184.066 eV)
   A   192     192        --         6.964 au  subsystem1    1.00    192 A               1
                             (     189.492 eV)
   B                      --         6.968 au
                             (     189.598 eV)
   A   193     193        --         7.075 au  subsystem1    1.00    193 A               1
                             (     192.526 eV)
   B                      --         7.076 au
                             (     192.560 eV)
   A   194     194        --         7.233 au  subsystem1    1.00    194 A               1
                             (     196.831 eV)
   B                      --         7.235 au
                             (     196.887 eV)
   A   195     195        --         7.345 au  subsystem1    1.00    195 A               1
                             (     199.871 eV)
   B                      --         7.346 au
                             (     199.904 eV)
   A   196     196        --         7.377 au  subsystem1    1.00    196 A               1
                             (     200.732 eV)
   B                      --         7.377 au
                             (     200.748 eV)
   A   197     197        --         7.450 au  subsystem1    1.00    197 A               1
                             (     202.726 eV)
   B                      --         7.454 au
                             (     202.827 eV)
   A   198     198        --         7.591 au  subsystem1    1.00    198 A               1
                             (     206.554 eV)
   B                      --         7.594 au
                             (     206.630 eV)
   A   199     199        --         7.685 au  subsystem1    1.00    199 A               1
                             (     209.117 eV)
   B                      --         7.692 au
                             (     209.305 eV)
   A   200     200        --         8.475 au  subsystem1    1.00    200 A               1
                             (     230.626 eV)
   B                      --         8.482 au
                             (     230.801 eV)
   A   201     201        --         8.911 au  subsystem1    1.00    201 A               1
                             (     242.476 eV)
   B                      --         8.919 au
                             (     242.703 eV)
   A   202     202        --         9.593 au  subsystem1    1.00    202 A               1
                             (     261.035 eV)
   B                      --         9.600 au
                             (     261.223 eV)
   A   203     203        --         9.922 au  subsystem1    1.00    203 A               1
                             (     270.002 eV)
   B                      --         9.923 au
                             (     270.031 eV)
   A   204     204        --        15.557 au  subsystem1    1.00    204 A               1
                             (     423.326 eV)
   B                      --        15.578 au
                             (     423.898 eV)
   A   205     205        --        15.751 au  subsystem1    1.00    205 A               1
                             (     428.605 eV)
   B                      --        15.752 au
                             (     428.630 eV)
   A   206     206        --        53.636 au  subsystem1    1.00    206 A               1
                             (    1459.511 eV)
   B                      --        53.641 au
                             (    1459.636 eV)
   A   207     207        --        56.552 au  subsystem1    1.00    207 A               1
                             (    1538.866 eV)
   B                      --        56.556 au
                             (    1538.963 eV)
   A   208     208        --        57.497 au  subsystem1    1.00    208 A               1
                             (    1564.565 eV)
   B                      --        57.500 au
                             (    1564.649 eV)
   A   209     209        --        58.750 au  subsystem1    1.00    209 A               1
                             (    1598.670 eV)
   B                      --        58.752 au
                             (    1598.716 eV)
   A   210     210        --       127.613 au  subsystem1    1.00    210 A               1
                             (    3472.522 eV)
   B                      --       127.623 au
                             (    3472.792 eV)
   A   211     211        --       128.120 au  subsystem1    1.00    211 A               1
                             (    3486.312 eV)
   B                      --       128.120 au
                             (    3486.322 eV)
   A   212     212       1.000      -9.923 au  subsystem2    1.00      1 A               2
                             (    -270.028 eV)
   B                     1.000      -9.921 au
                             (    -269.974 eV)
   A   213     213       1.000      -9.911 au  subsystem2    1.00      2 A               2
                             (    -269.679 eV)
   B                     1.000      -9.918 au
                             (    -269.893 eV)
   A   214     214       1.000      -9.910 au  subsystem2    1.00      3 A               2
                             (    -269.668 eV)
   B                     1.000      -9.918 au
                             (    -269.880 eV)
   A   215     215       1.000      -0.715 au  subsystem2    1.00      4 A               2
                             (     -19.469 eV)
   B                     1.000      -0.724 au
                             (     -19.698 eV)
   A   216     216       1.000      -0.592 au  subsystem2    1.00      5 A               2
                             (     -16.103 eV)
   B                     1.000      -0.609 au
                             (     -16.571 eV)
   A   217     217       1.000      -0.496 au  subsystem2    1.00      6 A               2
                             (     -13.487 eV)
   B                     1.000      -0.501 au
                             (     -13.631 eV)
   A   218     218       1.000      -0.424 au  subsystem2    1.00      7 A               2
                             (     -11.548 eV)
   B                     1.000      -0.429 au
                             (     -11.670 eV)
   A   219     219       1.000      -0.379 au  subsystem2    1.00      8 A               2
                             (     -10.314 eV)
   B                     1.000      -0.384 au
                             (     -10.451 eV)
   A   220     220       1.000      -0.328 au  subsystem2    1.00      9 A               2
                             (      -8.922 eV)
   B                     1.000      -0.333 au
                             (      -9.066 eV)
   A   221     221       1.000      -0.321 au  subsystem2    1.00     10 A               2
                             (      -8.742 eV)
   B                     1.000      -0.325 au
                             (      -8.852 eV)
   A   222     222       1.000      -0.264 au  subsystem2    1.00     11 A               2
                             (      -7.188 eV)
   B                     1.000      -0.283 au
                             (      -7.706 eV)
   A   223     223        --        -0.115 au  subsystem2    1.00     12 A               2
                             (      -3.139 eV)
   B                     1.000      -0.167 au
                             (      -4.547 eV)
   A   224     224        --        -0.006 au  subsystem2    1.00     13 A               2
                             (      -0.173 eV)
   B                      --        -0.021 au
                             (      -0.577 eV)
   A   225     225        --         0.010 au  subsystem2    1.00     14 A               2
                             (       0.267 eV)
   B                      --         0.007 au
                             (       0.192 eV)
   A   226     226        --         0.023 au  subsystem2    1.00     15 A               2
                             (       0.620 eV)
   B                      --         0.022 au
                             (       0.602 eV)
   A   227     227        --         0.032 au  subsystem2    1.00     16 A               2
                             (       0.865 eV)
   B                      --         0.029 au
                             (       0.801 eV)
   A   228     228        --         0.075 au  subsystem2    1.00     17 A               2
                             (       2.052 eV)
   B                      --         0.074 au
                             (       2.023 eV)
   A   229     229        --         0.087 au  subsystem2    1.00     18 A               2
                             (       2.368 eV)
   B                      --         0.086 au
                             (       2.331 eV)
   A   230     230        --         0.146 au  subsystem2    1.00     19 A               2
                             (       3.970 eV)
   B                      --         0.136 au
                             (       3.696 eV)
   A   231     231        --         0.171 au  subsystem2    1.00     20 A               2
                             (       4.643 eV)
   B                      --         0.166 au
                             (       4.528 eV)
   A   232     232        --         0.179 au  subsystem2    1.00     21 A               2
                             (       4.883 eV)
   B                      --         0.177 au
                             (       4.816 eV)
   A   233     233        --         0.199 au  subsystem2    1.00     22 A               2
                             (       5.403 eV)
   B                      --         0.194 au
                             (       5.290 eV)
   A   234     234        --         0.232 au  subsystem2    1.00     23 A               2
                             (       6.315 eV)
   B                      --         0.215 au
                             (       5.842 eV)
   A   235     235        --         0.247 au  subsystem2    1.00     24 A               2
                             (       6.720 eV)
   B                      --         0.238 au
                             (       6.465 eV)
   A   236     236        --         0.252 au  subsystem2    1.00     25 A               2
                             (       6.850 eV)
   B                      --         0.246 au
                             (       6.700 eV)
   A   237     237        --         0.270 au  subsystem2    1.00     26 A               2
                             (       7.357 eV)
   B                      --         0.260 au
                             (       7.086 eV)
   A   238     238        --         0.325 au  subsystem2    1.00     27 A               2
                             (       8.857 eV)
   B                      --         0.314 au
                             (       8.544 eV)
   A   239     239        --         0.334 au  subsystem2    1.00     28 A               2
                             (       9.090 eV)
   B                      --         0.329 au
                             (       8.953 eV)
   A   240     240        --         0.369 au  subsystem2    1.00     29 A               2
                             (      10.051 eV)
   B                      --         0.364 au
                             (       9.901 eV)
   A   241     241        --         0.385 au  subsystem2    1.00     30 A               2
                             (      10.486 eV)
   B                      --         0.382 au
                             (      10.383 eV)
   A   242     242        --         0.392 au  subsystem2    1.00     31 A               2
                             (      10.662 eV)
   B                      --         0.388 au
                             (      10.565 eV)
   A   243     243        --         0.471 au  subsystem2    1.00     32 A               2
                             (      12.809 eV)
   B                      --         0.464 au
                             (      12.633 eV)
   A   244     244        --         0.497 au  subsystem2    1.00     33 A               2
                             (      13.537 eV)
   B                      --         0.494 au
                             (      13.437 eV)
   A   245     245        --         0.513 au  subsystem2    1.00     34 A               2
                             (      13.969 eV)
   B                      --         0.505 au
                             (      13.740 eV)
   A   246     246        --         0.581 au  subsystem2    1.00     35 A               2
                             (      15.796 eV)
   B                      --         0.571 au
                             (      15.537 eV)
   A   247     247        --         0.619 au  subsystem2    1.00     36 A               2
                             (      16.833 eV)
   B                      --         0.616 au
                             (      16.754 eV)
   A   248     248        --         0.670 au  subsystem2    1.00     37 A               2
                             (      18.223 eV)
   B                      --         0.663 au
                             (      18.035 eV)
   A   249     249        --         0.768 au  subsystem2    1.00     38 A               2
                             (      20.897 eV)
   B                      --         0.765 au
                             (      20.812 eV)
   A   250     250        --         0.783 au  subsystem2    1.00     39 A               2
                             (      21.297 eV)
   B                      --         0.776 au
                             (      21.116 eV)
   A   251     251        --         0.845 au  subsystem2    1.00     40 A               2
                             (      22.999 eV)
   B                      --         0.838 au
                             (      22.817 eV)
   A   252     252        --         0.862 au  subsystem2    1.00     41 A               2
                             (      23.450 eV)
   B                      --         0.857 au
                             (      23.320 eV)
[...]
 =======================================================================
  
         Atom                  Potential
         ----                  ---------
     1)   C                  14.78985565
     2)   C                  14.74410290
     3)   C                  14.72356582
     4)   C                  14.79978387
     5)   O                  22.42091581
     6)   O                  22.40784358
     7)   H                   1.10402978
     8)   H                   1.09993265
     9)   H                   1.10224023
    10)   H                   1.11679271
    11)   H                   1.10446079
    12)   C                  14.75923740
    13)   C                  14.78958045
    14)   C                  14.76895242
    15)   H                   1.09797339
    16)   H                   1.09947223
    17)   H                   1.10159007
    18)   H                   1.09431278
    19)   H                   1.09245490
 Mulliken charges used for AMS results%charges...


    =====================
     CALCULATION RESULTS
    =====================

Energy (hartree)            -0.05777608


--------------
Atomic charges
--------------
  Index   Atom    Charge
      1      C    0.3823
      2      C    0.3337
      3      C    0.4373
      4      C    0.6409
      5      O   -0.5083
      6      O   -0.5599
      7      H   -0.1884
      8      H   -0.1852
      9      H   -0.1886
     10      H   -0.2187
     11      H   -0.1862
     12      C    0.6251
     13      C    0.1609
     14      C    0.4291
     15      H   -0.2131
     16      H   -0.1917
     17      H   -0.2015
     18      H   -0.1980
     19      H   -0.1695


Dipole moment vector    (Debye):     1.94653306    0.24981142    1.78543359
              magnitude (Debye):     2.65314338


-----------------------
Molecular orbitals info
-----------------------
n orbitals:              344
n spin:                    2

Note: only printing virtual orbitals with
      energy smaller than HOMO + 100. eV

                     spin-alpha   spin-beta
HOMO (eV):              -5.1260     -5.1260
LUMO (eV):              -2.6433     -2.6433
HOMO-LUMO gap (eV):      2.4827      2.4827

Smallest gap (eV):       2.4827

          |======= spin-alpha =======|       |======= spin-beta ========|

   Index   Energy (eV)    Occupation          Energy (eV)    Occupation
     221       94.4379         0.000              94.4379         0.000       
     220       94.3858         0.000              94.3858         0.000       
     219       94.0027         0.000              94.0027         0.000       
     218       92.9991         0.000              92.9991         0.000       
     217       92.5474         0.000              92.5474         0.000       
     216       92.3983         0.000              92.3983         0.000       
     215       92.2229         0.000              92.2229         0.000       
     214       91.8394         0.000              91.8394         0.000       
     213       91.2772         0.000              91.2772         0.000       
     212       90.6175         0.000              90.6175         0.000       
     211       90.2112         0.000              90.2112         0.000       
     210       89.0994         0.000              89.0994         0.000       
     209       88.4450         0.000              88.4450         0.000       
     208       87.1872         0.000              87.1872         0.000       
     207       86.4116         0.000              86.4116         0.000       
     206       86.2695         0.000              86.2695         0.000       
     205       84.0860         0.000              84.0860         0.000       
     204       83.8189         0.000              83.8189         0.000       
     203       83.1420         0.000              83.1420         0.000       
     202       81.9071         0.000              81.9071         0.000       
     201       81.4545         0.000              81.4545         0.000       
     200       80.9231         0.000              80.9231         0.000       
     199       80.7307         0.000              80.7307         0.000       
     198       79.7244         0.000              79.7244         0.000       
     197       79.3273         0.000              79.3273         0.000       
     196       78.9405         0.000              78.9405         0.000       
     195       78.2856         0.000              78.2856         0.000       
     194       77.9941         0.000              77.9941         0.000       
     193       77.2925         0.000              77.2925         0.000       
     192       77.0781         0.000              77.0781         0.000       
     191       76.6482         0.000              76.6482         0.000       
     190       76.0806         0.000              76.0806         0.000       
     189       75.7272         0.000              75.7272         0.000       
     188       75.3737         0.000              75.3737         0.000       
     187       74.9351         0.000              74.9351         0.000       
     186       73.9248         0.000              73.9248         0.000       
     185       73.6013         0.000              73.6013         0.000       
     184       72.7640         0.000              72.7640         0.000       
     183       72.4746         0.000              72.4746         0.000       
     182       71.8176         0.000              71.8176         0.000       
     181       70.8299         0.000              70.8299         0.000       
     180       70.0563         0.000              70.0563         0.000       
     179       68.9021         0.000              68.9021         0.000       
     178       68.6980         0.000              68.6980         0.000       
     177       67.6787         0.000              67.6787         0.000       
     176       66.7376         0.000              66.7376         0.000       
     175       66.2486         0.000              66.2486         0.000       
     174       65.9144         0.000              65.9144         0.000       
     173       64.9768         0.000              64.9768         0.000       
     172       64.5503         0.000              64.5503         0.000       
     171       64.0447         0.000              64.0447         0.000       
     170       63.0199         0.000              63.0199         0.000       
     169       61.6476         0.000              61.6476         0.000       
     168       61.4088         0.000              61.4088         0.000       
     167       61.0802         0.000              61.0802         0.000       
     166       60.3602         0.000              60.3602         0.000       
     165       59.8801         0.000              59.8801         0.000       
     164       58.8949         0.000              58.8949         0.000       
     163       57.8764         0.000              57.8764         0.000       
     162       57.4330         0.000              57.4330         0.000       
     161       56.4545         0.000              56.4545         0.000       
     160       55.5991         0.000              55.5991         0.000       
     159       54.2393         0.000              54.2393         0.000       
     158       54.1374         0.000              54.1374         0.000       
     157       53.8609         0.000              53.8609         0.000       
     156       53.0905         0.000              53.0905         0.000       
     155       52.0157         0.000              52.0157         0.000       
     154       51.6814         0.000              51.6814         0.000       
     153       51.4713         0.000              51.4713         0.000       
     152       50.7245         0.000              50.7245         0.000       
     151       50.5356         0.000              50.5356         0.000       
     150       49.2979         0.000              49.2979         0.000       
     149       49.0487         0.000              49.0487         0.000       
     148       48.3506         0.000              48.3506         0.000       
     147       47.5264         0.000              47.5264         0.000       
     146       47.1282         0.000              47.1282         0.000       
     145       46.2413         0.000              46.2413         0.000       
     144       45.8667         0.000              45.8667         0.000       
     143       45.2377         0.000              45.2377         0.000       
     142       44.1573         0.000              44.1573         0.000       
     141       43.4100         0.000              43.4100         0.000       
     140       42.7191         0.000              42.7191         0.000       
     139       42.5585         0.000              42.5585         0.000       
     138       42.4721         0.000              42.4721         0.000       
     137       41.8017         0.000              41.8017         0.000       
     136       40.5906         0.000              40.5906         0.000       
     135       40.2492         0.000              40.2492         0.000       
     134       39.7261         0.000              39.7261         0.000       
     133       39.4564         0.000              39.4564         0.000       
     132       38.6410         0.000              38.6410         0.000       
     131       37.9334         0.000              37.9334         0.000       
     130       37.5449         0.000              37.5449         0.000       
     129       36.6341         0.000              36.6341         0.000       
     128       36.0817         0.000              36.0817         0.000       
     127       35.9221         0.000              35.9221         0.000       
     126       35.2882         0.000              35.2882         0.000       
     125       35.0325         0.000              35.0325         0.000       
     124       34.2892         0.000              34.2892         0.000       
     123       33.9528         0.000              33.9528         0.000       
     122       33.7217         0.000              33.7217         0.000       
     121       33.5151         0.000              33.5151         0.000       
     120       32.6061         0.000              32.6061         0.000       
     119       32.2063         0.000              32.2063         0.000       
     118       31.4592         0.000              31.4592         0.000       
     117       31.1701         0.000              31.1701         0.000       
     116       30.4318         0.000              30.4318         0.000       
     115       30.0844         0.000              30.0844         0.000       
     114       29.7945         0.000              29.7945         0.000       
     113       29.4807         0.000              29.4807         0.000       
     112       29.2163         0.000              29.2163         0.000       
     111       28.5987         0.000              28.5987         0.000       
     110       27.7690         0.000              27.7690         0.000       
     109       27.0197         0.000              27.0197         0.000       
     108       26.9722         0.000              26.9722         0.000       
     107       26.7036         0.000              26.7036         0.000       
     106       26.5973         0.000              26.5973         0.000       
     105       26.0768         0.000              26.0768         0.000       
     104       25.7139         0.000              25.7139         0.000       
     103       25.0946         0.000              25.0946         0.000       
     102       24.7843         0.000              24.7843         0.000       
     101       24.4486         0.000              24.4486         0.000       
     100       23.6327         0.000              23.6327         0.000       
      99       23.3495         0.000              23.3495         0.000       
      98       23.1519         0.000              23.1519         0.000       
      97       21.7223         0.000              21.7223         0.000       
      96       21.4890         0.000              21.4890         0.000       
      95       20.9027         0.000              20.9027         0.000       
      94       20.0327         0.000              20.0327         0.000       
      93       19.9113         0.000              19.9113         0.000       
      92       19.1251         0.000              19.1251         0.000       
      91       18.9183         0.000              18.9183         0.000       
      90       17.6076         0.000              17.6076         0.000       
      89       16.7188         0.000              16.7188         0.000       
      88       16.2842         0.000              16.2842         0.000       
      87       15.7305         0.000              15.7305         0.000       
      86       15.3873         0.000              15.3873         0.000       
      85       15.1642         0.000              15.1642         0.000       
      84       14.5037         0.000              14.5037         0.000       
      83       13.8834         0.000              13.8834         0.000       
      82       13.7837         0.000              13.7837         0.000       
      81       13.5595         0.000              13.5595         0.000       
      80       13.0009         0.000              13.0009         0.000       
      79       12.7986         0.000              12.7986         0.000       
      78       12.5024         0.000              12.5024         0.000       
      77       12.1898         0.000              12.1898         0.000       
      76       11.7115         0.000              11.7115         0.000       
      75       11.3784         0.000              11.3784         0.000       
      74       11.1062         0.000              11.1062         0.000       
      73       10.8207         0.000              10.8207         0.000       
      72       10.5107         0.000              10.5107         0.000       
      71       10.1165         0.000              10.1165         0.000       
      70        9.9846         0.000               9.9846         0.000       
      69        9.6790         0.000               9.6790         0.000       
      68        9.5612         0.000               9.5612         0.000       
      67        9.0098         0.000               9.0098         0.000       
      66        8.7905         0.000               8.7905         0.000       
      65        8.4175         0.000               8.4175         0.000       
      64        8.1592         0.000               8.1592         0.000       
      63        7.4183         0.000               7.4183         0.000       
      62        6.9563         0.000               6.9563         0.000       
      61        6.8437         0.000               6.8437         0.000       
      60        6.4679         0.000               6.4679         0.000       
      59        6.1492         0.000               6.1492         0.000       
      58        6.0763         0.000               6.0763         0.000       
      57        5.6325         0.000               5.6325         0.000       
      56        5.4829         0.000               5.4829         0.000       
      55        5.1879         0.000               5.1879         0.000       
      54        4.8366         0.000               4.8366         0.000       
      53        4.3422         0.000               4.3422         0.000       
      52        4.2312         0.000               4.2312         0.000       
      51        3.9208         0.000               3.9208         0.000       
      50        3.5505         0.000               3.5505         0.000       
      49        3.1479         0.000               3.1479         0.000       
      48        2.6588         0.000               2.6588         0.000       
      47        2.4736         0.000               2.4736         0.000       
      46        2.1436         0.000               2.1436         0.000       
      45        1.8519         0.000               1.8519         0.000       
      44        1.7002         0.000               1.7002         0.000       
      43        1.4238         0.000               1.4238         0.000       
      42        1.2132         0.000               1.2132         0.000       
      41        0.8295         0.000               0.8295         0.000       
      40        0.5806         0.000               0.5806         0.000       
      39        0.2101         0.000               0.2101         0.000       
      38       -0.1266         0.000              -0.1266         0.000       
      37       -0.4037         0.000              -0.4037         0.000       
      36       -1.9274         0.000              -1.9274         0.000       
      35       -2.6433         0.000 < LUMO       -2.6433         0.000 < LUMO
      34       -5.1260         1.000 < HOMO       -5.1260         1.000 < HOMO
      33       -6.0019         1.000              -6.0019         1.000       
      32       -6.9043         1.000              -6.9043         1.000       
      31       -7.1326         1.000              -7.1326         1.000       
      30       -8.6429         1.000              -8.6429         1.000       
      29       -8.9519         1.000              -8.9519         1.000       
      28       -9.1804         1.000              -9.1804         1.000       
      27       -9.4574         1.000              -9.4574         1.000       
      26       -9.7219         1.000              -9.7219         1.000       
      25      -10.1441         1.000             -10.1441         1.000       
      24      -10.1946         1.000             -10.1946         1.000       
      23      -10.6361         1.000             -10.6361         1.000       
      22      -11.0963         1.000             -11.0963         1.000       
      21      -11.4907         1.000             -11.4907         1.000       
      20      -11.5593         1.000             -11.5593         1.000       
      19      -12.0469         1.000             -12.0469         1.000       
      18      -12.4940         1.000             -12.4940         1.000       
      17      -14.0032         1.000             -14.0032         1.000       
      16      -15.1776         1.000             -15.1776         1.000       
      15      -16.8727         1.000             -16.8727         1.000       
      14      -18.2611         1.000             -18.2611         1.000       
      13      -18.6561         1.000             -18.6561         1.000       
      12      -20.1576         1.000             -20.1576         1.000       
      11      -25.5398         1.000             -25.5398         1.000       
      10      -26.0625         1.000             -26.0625         1.000       
       9     -269.6424         1.000            -269.6424         1.000       
       8     -270.0040         1.000            -270.0040         1.000       
       7     -270.0424         1.000            -270.0424         1.000       
       6     -270.6155         1.000            -270.6155         1.000       
       5     -270.8911         1.000            -270.8911         1.000       
       4     -271.2706         1.000            -271.2706         1.000       
       3     -271.9044         1.000            -271.9044         1.000       
       2     -510.9337         1.000            -510.9337         1.000       
       1     -511.3031         1.000            -511.3031         1.000       

AMS application finished. Exiting.
NORMAL TERMINATION
     Total cpu time:     572.03
  Total system time:       1.57
 Total elapsed time:     576.02
