
 *******************************************************************************
 *                                                                             *
 *  --------------------------------                                           *
 *   Amsterdam Modeling Suite (AMS)              2026.103                      *
 *  --------------------------------                                           *
 *                                               r260501 2026-05-01 873454b5   *
 *                                                                             *
 *                                                                             *
 *                              =================                              *
 *                              |               |                              *
 *                              |     A M S     |                              *
 *                              |               |                              *
 *                              =================                              *
 *                                                                             *
 *                                                                             *
 *   Online information and documentation:  https://www.scm.com/support/       *
 *   E-mail:  support@scm.com   info@scm.com                                   *
 *                                                                             *
 *   Scientific publications using AMS results must be properly referenced     *
 *   See the User Manuals (or the web site) for recommended citations          *
 *   The terms and conditions of the End User License Agreement apply to       *
 *   the use of AMS, https://www.scm.com/license-terms/                        *
 *                                                                             *
 **********************  x86_64_linux_intel / intelmpi  ************************
 
 Licensed to: Jong-June Jeon / University of Seoul 2026-06-02 13:44:15
 SCM User ID: u30731
  
 AMS 2026.103  RunTime: Jun03-2026 18:33:41  ShM Nodes: 1  Procs: 1

 AMS jobname: c5_fragB_opt
 AMS jobid  : 1410374950

 Start   directory: /gpfs/home1/yeseo1ee/projects/eda-asm-prediction/ADF_800/adf_outputs/batch_004/qmrxn20_e2_C_D_A_E_A_A/
 Results directory: /gpfs/home1/yeseo1ee/projects/eda-asm-prediction/ADF_800/adf_outputs/batch_004/qmrxn20_e2_C_D_A_E_A_A/c5_fragB_opt.results/
 Scratch directory: /tmp/amstmp_c5_fragB_opt_kid0.1410374950/

 RNG seed: -1550028007 -878233335 1929544744 -2063026893 -650912815 1500967574 1768101598 -339951677



                      ************************************************************************
                      *  ADF 2026.103  RunTime: Jun03-2026 18:33:41  ShM Nodes: 1  Procs: 1  *
                      ************************************************************************
  

       ***************************
       *  GEOMETRY OPTIMIZATION  *
       ***************************

Optimization Method                    Quasi Newton
Optimization Coordinates               Delocalized Coordinates
Optimize lattice                       F
 
 ------------------------------------------------------
 Convergence criteria (Hartree,Angstrom)
 ------------------------------------------------------
 Maximum gradient               0.000100000000
 Maximum rms gradient           0.000066666667
 Maximum step allowed           0.010000000000
 Maximum rms step allowed       0.006666666667
 Maximum energy change allowe   0.000140000000
 Maximum stress energy allowe   0.000500000000
 
Initial model Hessian                  Automatic Hessian
 
------------------------------------
Quasi-Newton Optimizer Parameters
------------------------------------
Hessian Update Method                  BFGS
Maximum number of steps                  200
First GDIIS cycle                          0
Maximum GDIIS vectors                      0
Trust radius (bohr)                        0.200000
Trust radius varies                        T
Constraints converged at all steps         T
Use projector                              T
 
 Rigid motions settings for: old optimizer
 Atomic rotations (x,y,z):     T T T
 Atomic translations (x,y,z):  T T T
 Tolerance:                  1.000000000000000E-006

--------
Geometry
--------
Formula: C4H7FN2
Atoms
  Index Symbol   x (angstrom)   y (angstrom)   z (angstrom)
      1      C    -0.14259144     0.02303290    -0.35059606
      2      C    -0.17308460     0.06044213     1.11155743
      3      F     1.20436508    -0.08802659    -0.93884920
      4      H    -1.50111210     0.01939036     1.44701983
      5      H     0.24518932     1.00240454     1.48595057
      6      C    -0.80832242    -1.19887514    -0.84724933
      7      N    -1.33728712    -2.16896228    -1.24681782
      8      C    -0.76098139     1.25982576    -0.97208031
      9      H    -0.67138177     1.23732834    -2.06067594
     10      H    -1.81473100     1.31709548    -0.68466994
     11      H    -0.23803823     2.13944786    -0.59019987
     12      N     0.32548480    -1.10699164     1.81335623
     13      H     0.98886318    -1.63061900     1.25468643
     14      H    -0.47049286    -1.71303492     2.01378348

Total System Charge              0.00000


----------------
ADF Engine Input
----------------
 
   Basis
     Type TZ2P
     Core None
   End
   XC
     GGA BLYP
     Dispersion GRIMME3 BJDAMP
   End
   Symmetry NOSYM
   NumericalQuality Normal
   Unrestricted No
   SCF
     Iterations 200
     Converge 1.0e-6
   End
   Save TAPE21
 

 Title: *** (NO TITLE) ***

Challenging geometry: could not add a dihedral for atom    7
 Using automatic Hessian for delocalized coordinates.
 *** GO1_GOStep1 ***

 Energy gradients wrt nuclear displacements
 ==========================================

     Atom      Cartesian (a.u./angstrom)
                 X         Y         Z
 ----------------------------------------
     1 C     0.010928  0.010567  0.092080
     2 C     0.120697  0.012098 -0.095417
     3 F     0.004778 -0.005066 -0.032516
     4 H    -0.129597 -0.027838  0.040156
     5 H     0.000980 -0.000278 -0.001997
     6 C     0.029500  0.055603  0.025401
     7 N    -0.023251 -0.046398 -0.020234
     8 C     0.004701 -0.013391  0.005919
     9 H     0.001819  0.001461  0.000145
    10 H     0.002118 -0.003185  0.003113
    11 H    -0.000731 -0.004466 -0.000713
    12 N     0.003722  0.007556 -0.018918
    13 H    -0.011718  0.005383  0.003766
    14 H    -0.013946  0.007955 -0.000785
 ----------------------------------------
 
----------------------------------------------------------------------
Geometry Convergence after Step   1       (Hartree/Angstrom,Angstrom)
----------------------------------------------------------------------
current energy                               -2.84881246 Hartree
energy change                      -2.84881246     0.00014000    F
constrained gradient max            0.12961179     0.00010000    F
constrained gradient rms            0.03832403     0.00006667    F
gradient max                        0.12961153
gradient rms                        0.03832403
cart. step max                      0.06270261     0.01000000    F
cart. step rms                      0.02575958     0.00666667    F
 

--------
Geometry
--------
Formula: C4H7FN2
Atoms
  Index Symbol   x (angstrom)   y (angstrom)   z (angstrom)
      1      C    -0.16713202     0.02316252    -0.35905848
      2      C    -0.18498977     0.04808801     1.13283484
      3      F     1.20020813    -0.09480286    -0.87614659
      4      H    -1.45047951     0.04487373     1.43593975
      5      H     0.23723189     0.98729249     1.51035284
      6      C    -0.83543174    -1.19617052    -0.87303659
      7      N    -1.36623454    -2.14118680    -1.27294349
      8      C    -0.77284614     1.26899025    -0.99787406
      9      H    -0.66096452     1.24095474    -2.08426130
     10      H    -1.83372211     1.33716033    -0.73808583
     11      H    -0.25549468     2.15105638    -0.60897106
     12      N     0.34064911    -1.12273294     1.83635460
     13      H     1.01709601    -1.63450942     1.27312823
     14      H    -0.42201065    -1.75971811     2.05698263

Total System Charge              0.00000

 *** GO1_GOStep2 ***

 Energy gradients wrt nuclear displacements
 ==========================================

     Atom      Cartesian (a.u./angstrom)
                 X         Y         Z
 ----------------------------------------
     1 C    -0.000688  0.011469  0.058892
     2 C     0.125174  0.014191 -0.069275
     3 F     0.007620 -0.005400 -0.020139
     4 H    -0.121057 -0.016736  0.030330
     5 H    -0.001883  0.000366  0.002321
     6 C    -0.009250 -0.014742 -0.006867
     7 N     0.012000  0.018188  0.006487
     8 C    -0.001133 -0.008609 -0.002313
     9 H     0.001162  0.001952  0.000369
    10 H     0.001359 -0.000991  0.002034
    11 H    -0.000390 -0.002183 -0.000135
    12 N    -0.001654 -0.001216 -0.003466
    13 H    -0.006714 -0.000822  0.000666
    14 H    -0.004547  0.004533  0.001097
 ----------------------------------------

 dE(predicted):    -0.12451E-01, dE(actual):    -0.15443E-01, Trust radius:    0.400000, all in a.u.
 
----------------------------------------------------------------------
Geometry Convergence after Step   2       (Hartree/Angstrom,Angstrom)
----------------------------------------------------------------------
current energy                               -2.86425524 Hartree
energy change                      -0.01544278     0.00014000    F
constrained gradient max            0.12520614     0.00010000    F
constrained gradient rms            0.03150796     0.00006667    F
gradient max                        0.12520635
gradient rms                        0.03150796
cart. step max                      0.13633728     0.01000000    F
cart. step rms                      0.03843686     0.00666667    F
 

--------
Geometry
--------
Formula: C4H7FN2
Atoms
  Index Symbol   x (angstrom)   y (angstrom)   z (angstrom)
      1      C    -0.19736770     0.02268850    -0.37114336
      2      C    -0.22110092     0.03782418     1.17174687
      3      F     1.18785728    -0.09879059    -0.77723358
      4      H    -1.31414223     0.07298282     1.42042483
      5      H     0.21014063     0.97223083     1.54999034
      6      C    -0.86756936    -1.19692756    -0.89973688
      7      N    -1.42116932    -2.13726718    -1.29954321
      8      C    -0.78440490     1.28285822    -1.03016602
      9      H    -0.63646600     1.24605284    -2.11217528
     10      H    -1.85556645     1.36082639    -0.81389082
     11      H    -0.27903888     2.16927744    -0.62737782
     12      N     0.34938331    -1.13944371     1.85842205
     13      H     1.04235588    -1.61876066     1.27466419
     14      H    -0.36703188    -1.82109372     2.09123419

Total System Charge              0.00000

 *** GO1_GOStep3 ***

 Energy gradients wrt nuclear displacements
 ==========================================

     Atom      Cartesian (a.u./angstrom)
                 X         Y         Z
 ----------------------------------------
     1 C    -0.009147  0.007011  0.010439
     2 C     0.048696  0.017828 -0.012178
     3 F     0.004411 -0.004276 -0.000657
     4 H    -0.022864 -0.004687 -0.001376
     5 H    -0.009221 -0.000140  0.008130
     6 C    -0.000325 -0.000981 -0.003114
     7 N    -0.001429 -0.003904 -0.002602
     8 C    -0.006864 -0.001212 -0.009340
     9 H     0.000755  0.001211  0.000772
    10 H     0.000146  0.001597  0.000623
    11 H     0.000056  0.001870  0.000756
    12 N    -0.009252 -0.008649  0.011302
    13 H    -0.000037 -0.007504 -0.005509
    14 H     0.005076  0.001836  0.002754
 ----------------------------------------

 dE(predicted):    -0.20797E-01, dE(actual):    -0.18268E-01, Trust radius:    0.800000, all in a.u.
 
----------------------------------------------------------------------
Geometry Convergence after Step   3       (Hartree/Angstrom,Angstrom)
----------------------------------------------------------------------
current energy                               -2.88252290 Hartree
energy change                      -0.01826767     0.00014000    F
constrained gradient max            0.04874823     0.00010000    F
constrained gradient rms            0.01024295     0.00006667    F
gradient max                        0.04874851
gradient rms                        0.01024295
cart. step max                      0.12736384     0.01000000    F
cart. step rms                      0.03871850     0.00666667    F
 

--------
Geometry
--------
Formula: C4H7FN2
Atoms
  Index Symbol   x (angstrom)   y (angstrom)   z (angstrom)
      1      C    -0.21902567    -0.00502498    -0.37130766
      2      C    -0.28923897     0.02620550     1.17762435
      3      F     1.17161844    -0.12712001    -0.73582363
      4      H    -1.33150252     0.08509385     1.44621365
      5      H     0.18343723     0.95964070     1.50730934
      6      C    -0.90538247    -1.21114694    -0.90205231
      7      N    -1.48797277    -2.12960877    -1.29364431
      8      C    -0.76198434     1.27590789    -1.02262238
      9      H    -0.59650236     1.24434927    -2.10266226
     10      H    -1.83586458     1.37241793    -0.82764386
     11      H    -0.24329274     2.14458286    -0.60003044
     12      N     0.34873746    -1.11665271     1.85264841
     13      H     1.12680248    -1.49139681     1.30514241
     14      H    -0.31394974    -1.87478998     2.00206418

Total System Charge              0.00000

 *** GO1_GOStep4 ***

 Energy gradients wrt nuclear displacements
 ==========================================

     Atom      Cartesian (a.u./angstrom)
                 X         Y         Z
 ----------------------------------------
     1 C     0.001973 -0.002002  0.004420
     2 C    -0.025673  0.012277  0.006370
     3 F     0.003983  0.000135 -0.001655
     4 H     0.020667  0.000696 -0.009658
     5 H    -0.003992 -0.002292  0.003751
     6 C    -0.014621 -0.022899 -0.008600
     7 N     0.011084  0.017316  0.005840
     8 C    -0.002513  0.002642 -0.002617
     9 H     0.000980 -0.000601  0.000925
    10 H     0.000209  0.000451  0.000360
    11 H     0.000053  0.002007  0.000658
    12 N     0.006093 -0.004141  0.000506
    13 H     0.000131 -0.005823 -0.002814
    14 H     0.001626  0.002234  0.002516
 ----------------------------------------

 dE(predicted):    -0.24219E-02, dE(actual):    -0.26398E-02, Trust radius:    0.800000, all in a.u.
 
----------------------------------------------------------------------
Geometry Convergence after Step   4       (Hartree/Angstrom,Angstrom)
----------------------------------------------------------------------
current energy                               -2.88516266 Hartree
energy change                      -0.00263976     0.00014000    F
constrained gradient max            0.02563908     0.00010000    F
constrained gradient rms            0.00825031     0.00006667    F
gradient max                        0.02563704
gradient rms                        0.00825031
cart. step max                      0.12214090     0.01000000    F
cart. step rms                      0.03673477     0.00666667    F
 

--------
Geometry
--------
Formula: C4H7FN2
Atoms
  Index Symbol   x (angstrom)   y (angstrom)   z (angstrom)
      1      C    -0.23308637    -0.01873583    -0.37312976
      2      C    -0.31303121     0.01391218     1.17267203
      3      F     1.15818470    -0.15298919    -0.72071319
      4      H    -1.36652498     0.08810822     1.46749839
      5      H     0.18361636     0.94668900     1.47309607
      6      C    -0.92977452    -1.21401863    -0.90010442
      7      N    -1.53979059    -2.12626184    -1.28348429
      8      C    -0.74846554     1.27142107    -1.01859361
      9      H    -0.58686204     1.24351556    -2.09981594
     10      H    -1.82059174     1.38585594    -0.82370579
     11      H    -0.21136002     2.12471911    -0.59139390
     12      N     0.33233628    -1.10868389     1.85797612
     13      H     1.20006095    -1.37600505     1.39499052
     14      H    -0.27883183    -1.92506884     1.87992328

Total System Charge              0.00000

 *** GO1_GOStep5 ***

 Energy gradients wrt nuclear displacements
 ==========================================

     Atom      Cartesian (a.u./angstrom)
                 X         Y         Z
 ----------------------------------------
     1 C     0.003464 -0.000644  0.004942
     2 C    -0.014051  0.001785 -0.003566
     3 F     0.001389  0.001062 -0.000806
     4 H    -0.001074  0.002002 -0.001275
     5 H     0.000268 -0.001218 -0.000318
     6 C     0.001421  0.000283  0.004002
     7 N    -0.002870 -0.002933 -0.002986
     8 C     0.001015  0.002936  0.001382
     9 H     0.000510 -0.000557  0.000449
    10 H     0.000245 -0.000387  0.000060
    11 H    -0.000111  0.000419  0.000286
    12 N     0.013417 -0.001973 -0.004123
    13 H    -0.002186 -0.002223  0.000072
    14 H    -0.001437  0.001450  0.001881
 ----------------------------------------

 dE(predicted):    -0.11100E-02, dE(actual):    -0.14619E-02, Trust radius:    0.800000, all in a.u.
 
----------------------------------------------------------------------
Geometry Convergence after Step   5       (Hartree/Angstrom,Angstrom)
----------------------------------------------------------------------
current energy                               -2.88662453 Hartree
energy change                      -0.00146188     0.00014000    F
constrained gradient max            0.01407621     0.00010000    F
constrained gradient rms            0.00357538     0.00006667    F
gradient max                        0.01407241
gradient rms                        0.00357538
cart. step max                      0.18540226     0.01000000    F
cart. step rms                      0.04678822     0.00666667    F
 

--------
Geometry
--------
Formula: C4H7FN2
Atoms
  Index Symbol   x (angstrom)   y (angstrom)   z (angstrom)
      1      C    -0.23683042    -0.02539089    -0.38450084
      2      C    -0.30822039     0.00348045     1.16645627
      3      F     1.14790557    -0.17361897    -0.73617213
      4      H    -1.35671319     0.10074110     1.47532178
      5      H     0.21426055     0.92736788     1.45714016
      6      C    -0.94761901    -1.20801451    -0.90448672
      7      N    -1.57485355    -2.11592226    -1.27248100
      8      C    -0.74887128     1.26645813    -1.02052004
      9      H    -0.61530623     1.24142382    -2.10619852
     10      H    -1.81545417     1.39320580    -0.80251575
     11      H    -0.19112294     2.10998764    -0.60368097
     12      N     0.28101417    -1.12019301     1.87850653
     13      H     1.24275211    -1.26728916     1.58039278
     14      H    -0.24506176    -1.97977820     1.70795395

Total System Charge              0.00000

 *** GO1_GOStep6 ***

 Energy gradients wrt nuclear displacements
 ==========================================

     Atom      Cartesian (a.u./angstrom)
                 X         Y         Z
 ----------------------------------------
     1 C     0.000969  0.002177  0.000896
     2 C    -0.003698 -0.007085 -0.007625
     3 F    -0.001564  0.000520  0.000488
     4 H     0.000841 -0.002243  0.003860
     5 H     0.001622  0.002003 -0.002169
     6 C     0.006505  0.007588  0.006233
     7 N    -0.005003 -0.005227 -0.003490
     8 C     0.002583  0.000706  0.002286
     9 H    -0.000383  0.000143 -0.000349
    10 H    -0.000177 -0.000790 -0.000356
    11 H    -0.000171 -0.001729  0.000082
    12 N     0.005152  0.000791 -0.000398
    13 H    -0.003982  0.002969  0.000897
    14 H    -0.002694  0.000178 -0.000356
 ----------------------------------------

 dE(predicted):    -0.86796E-03, dE(actual):    -0.87197E-03, Trust radius:    0.800000, all in a.u.
 
----------------------------------------------------------------------
Geometry Convergence after Step   6       (Hartree/Angstrom,Angstrom)
----------------------------------------------------------------------
current energy                               -2.88749651 Hartree
energy change                      -0.00087197     0.00014000    F
constrained gradient max            0.00762835     0.00010000    F
constrained gradient rms            0.00324831     0.00006667    F
gradient max                        0.00762858
gradient rms                        0.00324832
cart. step max                      0.02993021     0.01000000    F
cart. step rms                      0.01222303     0.00666667    F
 

--------
Geometry
--------
Formula: C4H7FN2
Atoms
  Index Symbol   x (angstrom)   y (angstrom)   z (angstrom)
      1      C    -0.23056841    -0.01946403    -0.38269783
      2      C    -0.29559045     0.01242184     1.17028483
      3      F     1.15266733    -0.16402306    -0.74532572
      4      H    -1.34801145     0.12798273     1.46417796
      5      H     0.23590324     0.92618793     1.47266655
      6      C    -0.93734202    -1.20783152    -0.89932647
      7      N    -1.54569711    -2.12811472    -1.26444595
      8      C    -0.75733290     1.26670293    -1.02088469
      9      H    -0.63271334     1.23655778    -2.10729864
     10      H    -1.82244413     1.38905480    -0.79327148
     11      H    -0.20264373     2.11833266    -0.61478951
     12      N     0.26872222    -1.12932005     1.87636955
     13      H     1.23061750    -1.29721937     1.58291320
     14      H    -0.26968730    -1.97881012     1.69684372

Total System Charge              0.00000

 *** GO1_GOStep7 ***

 Energy gradients wrt nuclear displacements
 ==========================================

     Atom      Cartesian (a.u./angstrom)
                 X         Y         Z
 ----------------------------------------
     1 C     0.000395  0.000428  0.001111
     2 C     0.000101 -0.002541 -0.003891
     3 F    -0.000520 -0.000070  0.000034
     4 H    -0.000969 -0.000993  0.001461
     5 H     0.000351  0.001690 -0.000468
     6 C     0.002271  0.003891  0.003071
     7 N    -0.001718 -0.002134 -0.001781
     8 C     0.000967 -0.000010  0.001298
     9 H    -0.000240  0.000100 -0.000110
    10 H    -0.000173 -0.000305 -0.000154
    11 H    -0.000169 -0.000921  0.000074
    12 N     0.002280 -0.000149 -0.000799
    13 H    -0.001334  0.000972  0.000311
    14 H    -0.001242  0.000041 -0.000157
 ----------------------------------------

 dE(predicted):    -0.14962E-03, dE(actual):    -0.19571E-03, Trust radius:    0.800000, all in a.u.
 
----------------------------------------------------------------------
Geometry Convergence after Step   7       (Hartree/Angstrom,Angstrom)
----------------------------------------------------------------------
current energy                               -2.88769222 Hartree
energy change                      -0.00019571     0.00014000    F
constrained gradient max            0.00389426     0.00010000    F
constrained gradient rms            0.00142153     0.00006667    F
gradient max                        0.00389438
gradient rms                        0.00142153
cart. step max                      0.02538631     0.01000000    F
cart. step rms                      0.01007397     0.00666667    F
 

--------
Geometry
--------
Formula: C4H7FN2
Atoms
  Index Symbol   x (angstrom)   y (angstrom)   z (angstrom)
      1      C    -0.22720076    -0.01580950    -0.38372746
      2      C    -0.28785201     0.01658640     1.17238609
      3      F     1.15524691    -0.15362415    -0.75225031
      4      H    -1.33845911     0.15336904     1.45917292
      5      H     0.25984278     0.91758588     1.47952107
      6      C    -0.92808148    -1.21026670    -0.89817636
      7      N    -1.52758146    -2.13810087    -1.25675895
      8      C    -0.76434326     1.26741505    -1.02188509
      9      H    -0.64686645     1.23509985    -2.10890404
     10      H    -1.82812815     1.38646234    -0.78644009
     11      H    -0.21187772     2.12468855    -0.62287978
     12      N     0.25402489    -1.13716270     1.87699191
     13      H     1.22101299    -1.31145379     1.59997335
     14      H    -0.28385772    -1.98233158     1.67819224

Total System Charge              0.00000

 *** GO1_GOStep8 ***

 Energy gradients wrt nuclear displacements
 ==========================================

     Atom      Cartesian (a.u./angstrom)
                 X         Y         Z
 ----------------------------------------
     1 C    -0.000299 -0.000404  0.000447
     2 C     0.000242 -0.000119 -0.000340
     3 F    -0.000365 -0.000078 -0.000071
     4 H     0.000270 -0.000381 -0.000234
     5 H    -0.000125  0.000496  0.000332
     6 C     0.000507  0.000753  0.000830
     7 N    -0.000295 -0.000276 -0.000577
     8 C     0.000300 -0.000149  0.000361
     9 H    -0.000191  0.000162  0.000023
    10 H    -0.000098 -0.000015  0.000065
    11 H    -0.000170  0.000019  0.000026
    12 N    -0.000001  0.000070 -0.000615
    13 H     0.000246 -0.000082 -0.000030
    14 H    -0.000021  0.000003 -0.000217
 ----------------------------------------

 dE(predicted):    -0.47290E-04, dE(actual):    -0.47190E-04, Trust radius:    0.800000, all in a.u.
 
----------------------------------------------------------------------
Geometry Convergence after Step   8       (Hartree/Angstrom,Angstrom)
----------------------------------------------------------------------
current energy                               -2.88773941 Hartree
energy change                      -0.00004719     0.00014000    T
constrained gradient max            0.00087530     0.00010000    F
constrained gradient rms            0.00031103     0.00006667    F
gradient max                        0.00087578
gradient rms                        0.00031103
cart. step max                      0.00976068     0.01000000    T
cart. step rms                      0.00367716     0.00666667    T
 

--------
Geometry
--------
Formula: C4H7FN2
Atoms
  Index Symbol   x (angstrom)   y (angstrom)   z (angstrom)
      1      C    -0.22582695    -0.01461311    -0.38493445
      2      C    -0.28547370     0.01737519     1.17211652
      3      F     1.15693454    -0.14822000    -0.75462987
      4      H    -1.33484407     0.16259635     1.45981813
      5      H     0.26960346     0.91371251     1.47800201
      6      C    -0.92399847    -1.21128661    -0.89927358
      7      N    -1.51993541    -2.14196129    -1.25569678
      8      C    -0.76717353     1.26772848    -1.02196221
      9      H    -0.65083442     1.23602271    -2.10907268
     10      H    -1.83081455     1.38437821    -0.78467599
     11      H    -0.21612448     2.12625440    -0.62330201
     12      N     0.24965249    -1.13905158     1.87797702
     13      H     1.21604220    -1.31826472     1.60162937
     14      H    -0.29132766    -1.98221274     1.67922003

Total System Charge              0.00000

 *** GO1_GOStep9 ***

 Energy gradients wrt nuclear displacements
 ==========================================

     Atom      Cartesian (a.u./angstrom)
                 X         Y         Z
 ----------------------------------------
     1 C    -0.000024 -0.000179  0.000163
     2 C     0.000279  0.000280  0.000051
     3 F    -0.000020  0.000048 -0.000168
     4 H     0.000092 -0.000151 -0.000155
     5 H    -0.000163 -0.000090  0.000235
     6 C    -0.000345 -0.000361  0.000155
     7 N     0.000227  0.000410 -0.000171
     8 C     0.000011 -0.000082  0.000066
     9 H    -0.000160  0.000133  0.000063
    10 H    -0.000104  0.000050  0.000143
    11 H    -0.000119  0.000147  0.000078
    12 N    -0.000167  0.000046 -0.000188
    13 H     0.000267 -0.000169 -0.000144
    14 H     0.000227 -0.000083 -0.000127
 ----------------------------------------

 dE(predicted):    -0.49258E-05, dE(actual):     0.16071E-05, Trust radius:    0.020000, all in a.u.
 
----------------------------------------------------------------------
Geometry Convergence after Step   9       (Hartree/Angstrom,Angstrom)
----------------------------------------------------------------------
current energy                               -2.88773780 Hartree
energy change                       0.00000161     0.00014000    T
constrained gradient max            0.00039735     0.00010000    F
constrained gradient rms            0.00016125     0.00006667    F
gradient max                        0.00039734
gradient rms                        0.00016125
cart. step max                      0.00542401     0.01000000    T
cart. step rms                      0.00202686     0.00666667    T
 

--------
Geometry
--------
Formula: C4H7FN2
Atoms
  Index Symbol   x (angstrom)   y (angstrom)   z (angstrom)
      1      C    -0.22552607    -0.01390114    -0.38557739
      2      C    -0.28450748     0.01767617     1.17185889
      3      F     1.15758525    -0.14523828    -0.75477030
      4      H    -1.33275963     0.16735057     1.46132427
      5      H     0.27502747     0.91178429     1.47596661
      6      C    -0.92144496    -1.21199674    -0.89986761
      7      N    -1.51600316    -2.14434905    -1.25448574
      8      C    -0.76868802     1.26800456    -1.02200824
      9      H    -0.65172600     1.23705667    -2.10905246
     10      H    -1.83252446     1.38297076    -0.78489260
     11      H    -0.21876064     2.12683084    -0.62244930
     12      N     0.24771118    -1.14000759     1.87803778
     13      H     1.21329155    -1.32191495     1.60085830
     14      H    -0.29579558    -1.98180830     1.68027331

Total System Charge              0.00000

 *** GO1_GOStep10 ***

 Energy gradients wrt nuclear displacements
 ==========================================

     Atom      Cartesian (a.u./angstrom)
                 X         Y         Z
 ----------------------------------------
     1 C     0.000088  0.000102 -0.000086
     2 C     0.000083  0.000180  0.000068
     3 F    -0.000045  0.000072 -0.000053
     4 H     0.000087 -0.000081 -0.000014
     5 H    -0.000054 -0.000223  0.000072
     6 C    -0.000103 -0.000241  0.000097
     7 N     0.000025  0.000118 -0.000170
     8 C    -0.000113  0.000064 -0.000021
     9 H    -0.000138  0.000103  0.000084
    10 H    -0.000096  0.000046  0.000163
    11 H    -0.000080  0.000103  0.000112
    12 N    -0.000011 -0.000024  0.000012
    13 H     0.000149 -0.000089 -0.000165
    14 H     0.000210 -0.000130 -0.000100
 ----------------------------------------
 
----------------------------------------------------------------------
Geometry Convergence after Step  10       (Hartree/Angstrom,Angstrom)
----------------------------------------------------------------------
current energy                               -2.88773686 Hartree
energy change                       0.00000095     0.00014000    T
constrained gradient max            0.00027646     0.00010000    F
constrained gradient rms            0.00008638     0.00006667    F
gradient max                        0.00027644
gradient rms                        0.00008638
cart. step max                      0.00124871     0.01000000    T
cart. step rms                      0.00051836     0.00666667    T
 

--------
Geometry
--------
Formula: C4H7FN2
Atoms
  Index Symbol   x (angstrom)   y (angstrom)   z (angstrom)
      1      C    -0.22551148    -0.01380821    -0.38566276
      2      C    -0.28427036     0.01774452     1.17175985
      3      F     1.15769641    -0.14456547    -0.75478999
      4      H    -1.33230692     0.16814245     1.46190425
      5      H     0.27609420     0.91168552     1.47519374
      6      C    -0.92098855    -1.21201216    -0.90001434
      7      N    -1.51527927    -2.14477214    -1.25395670
      8      C    -0.76894185     1.26796799    -1.02191971
      9      H    -0.65125698     1.23743859    -2.10890007
     10      H    -1.83297145     1.38221769    -0.78543393
     11      H    -0.21960292     2.12680934    -0.62168245
     12      N     0.24752868    -1.14013918     1.87786604
     13      H     1.21273422    -1.32284258     1.60009514
     14      H    -0.29704429    -1.98140859     1.68075642

Total System Charge              0.00000

 *** GO1_GOStep11 ***

 Energy gradients wrt nuclear displacements
 ==========================================

     Atom      Cartesian (a.u./angstrom)
                 X         Y         Z
 ----------------------------------------
     1 C     0.000084  0.000093 -0.000077
     2 C     0.000057  0.000034 -0.000011
     3 F    -0.000057  0.000106 -0.000044
     4 H     0.000009 -0.000079  0.000073
     5 H     0.000014 -0.000127  0.000019
     6 C    -0.000102 -0.000200  0.000024
     7 N     0.000057  0.000158 -0.000102
     8 C    -0.000103  0.000067  0.000018
     9 H    -0.000131  0.000097  0.000083
    10 H    -0.000080  0.000016  0.000155
    11 H    -0.000072  0.000048  0.000114
    12 N     0.000087 -0.000068 -0.000000
    13 H     0.000092 -0.000034 -0.000148
    14 H     0.000144 -0.000109 -0.000104
 ----------------------------------------
 
----------------------------------------------------------------------
Geometry Convergence after Step  11       (Hartree/Angstrom,Angstrom)
----------------------------------------------------------------------
current energy                               -2.88773723 Hartree
energy change                      -0.00000037     0.00014000    T
constrained gradient max            0.00023519     0.00010000    F
constrained gradient rms            0.00005786     0.00006667    T
gradient max                        0.00023518
gradient rms                        0.00005786
cart. step max                      0.00071596     0.01000000    T
cart. step rms                      0.00033738     0.00666667    T
 

--------
Geometry
--------
Formula: C4H7FN2
Atoms
  Index Symbol   x (angstrom)   y (angstrom)   z (angstrom)
      1      C    -0.22552173    -0.01370368    -0.38568087
      2      C    -0.28406558     0.01777667     1.17171655
      3      F     1.15771700    -0.14437643    -0.75486325
      4      H    -1.33198918     0.16837354     1.46206349
      5      H     0.27651746     0.91175978     1.47491063
      6      C    -0.92083607    -1.21189580    -0.89999615
      7      N    -1.51501022    -2.14501927    -1.25330533
      8      C    -0.76905220     1.26799975    -1.02187809
      9      H    -0.65063428     1.23779123    -2.10879361
     10      H    -1.83328641     1.38169928    -0.78612251
     11      H    -0.22031888     2.12694312    -0.62109335
     12      N     0.24755085    -1.14024629     1.87766742
     13      H     1.21253802    -1.32349210     1.59957434
     14      H    -0.29772933    -1.98115201     1.68101623

Total System Charge              0.00000

 *** GO1_GOStep12 ***

 Energy gradients wrt nuclear displacements
 ==========================================

     Atom      Cartesian (a.u./angstrom)
                 X         Y         Z
 ----------------------------------------
     1 C     0.000026  0.000078 -0.000048
     2 C     0.000006 -0.000061 -0.000029
     3 F    -0.000061  0.000094 -0.000039
     4 H     0.000036 -0.000088  0.000069
     5 H     0.000044 -0.000039  0.000007
     6 C     0.000027  0.000031  0.000033
     7 N    -0.000024  0.000015 -0.000109
     8 C    -0.000101  0.000056  0.000056
     9 H    -0.000127  0.000099  0.000080
    10 H    -0.000069  0.000002  0.000139
    11 H    -0.000076  0.000022  0.000106
    12 N     0.000134 -0.000108 -0.000032
    13 H     0.000081 -0.000018 -0.000130
    14 H     0.000104 -0.000082 -0.000103
 ----------------------------------------
 
---------------------------------------------------------
Geometry Convergence after Step  12       ** CONVERGED **
---------------------------------------------------------
current energy                               -2.88773756 Hartree
energy change                      -0.00000033     0.00014000    T
constrained gradient max            0.00006912     0.00010000    T
constrained gradient rms            0.00002600     0.00006667    T
gradient max                        0.00006917
gradient rms                        0.00002600
cart. step max                      0.00044870     0.01000000    T
cart. step rms                      0.00015445     0.00666667    T
 
Geometry optimization converged

Optimized geometry:

--------
Geometry
--------
Formula: C4H7FN2
Atoms
  Index Symbol   x (angstrom)   y (angstrom)   z (angstrom)
      1      C    -0.22552173    -0.01370368    -0.38568087
      2      C    -0.28406558     0.01777667     1.17171655
      3      F     1.15771700    -0.14437643    -0.75486325
      4      H    -1.33198918     0.16837354     1.46206349
      5      H     0.27651746     0.91175978     1.47491063
      6      C    -0.92083607    -1.21189580    -0.89999615
      7      N    -1.51501022    -2.14501927    -1.25330533
      8      C    -0.76905220     1.26799975    -1.02187809
      9      H    -0.65063428     1.23779123    -2.10879361
     10      H    -1.83328641     1.38169928    -0.78612251
     11      H    -0.22031888     2.12694312    -0.62109335
     12      N     0.24755085    -1.14024629     1.87766742
     13      H     1.21253802    -1.32349210     1.59957434
     14      H    -0.29772933    -1.98115201     1.68101623

Total System Charge              0.00000

Performing a single point calculation on the final geometry ...

 *** adf ***



 ===========================
 A T T A C H E D   F I L E S
 ===========================
  
 Restart/tmp/amstmp_c5_fragB_opt_kid0.1410374950/GO1_GOStep12.rkf*** GO1_GOStep12 ***



 ===============================
 M O D E L   P A R A M E T E R S
 ===============================
  
 DENSITY FUNCTIONAL POTENTIAL (scf)
    LDA:                               Exchange only                           == Not Default ==
    Gradient Corrections:              Becke88 LYP                             == Not Default ==

 SPIN  (restricted / unrestr.)
    Molecule:                          Restricted                               
    Fragments:                         Restricted                               

 OTHER ASPECTS
    Relativistic Corrections:          scalar (ZORA,MAPA)                       

    Nuclear Charge Density Model:      Point Charge Nuclei                      
    Core Treatment:                    Frozen Orbital(s)                        

    Hyperfine or Zeeman Interaction:   ---                                      

 Settings for Grimme D3 dispersion correction

      damping                        BJ
      s6                          1.000
      s8                          2.700
      a1                          0.430
      a2                          4.236

 Other (technical) parameters

      alpha                      14.000
      version                         4
 



 ===============
 G E O M E T R Y  ***  3D  Molecule  ***
 ===============
  

 ATOMS
 =====                            X Y Z                    CHARGE
                                (Angstrom)             Nucl     +Core       At.Mass
                       --------------------------    ----------------       -------
    1  C              -0.2255   -0.0137   -0.3857      6.00      6.00       12.0000
    2  C              -0.2841    0.0178    1.1717      6.00      6.00       12.0000
    3  F               1.1577   -0.1444   -0.7549      9.00      9.00       18.9984
    4  H              -1.3320    0.1684    1.4621      1.00      1.00        1.0078
    5  H               0.2765    0.9118    1.4749      1.00      1.00        1.0078
    6  C              -0.9208   -1.2119   -0.9000      6.00      6.00       12.0000
    7  N              -1.5150   -2.1450   -1.2533      7.00      7.00       14.0031
    8  C              -0.7691    1.2680   -1.0219      6.00      6.00       12.0000
    9  H              -0.6506    1.2378   -2.1088      1.00      1.00        1.0078
   10  H              -1.8333    1.3817   -0.7861      1.00      1.00        1.0078
   11  H              -0.2203    2.1269   -0.6211      1.00      1.00        1.0078
   12  N               0.2476   -1.1402    1.8777      7.00      7.00       14.0031
   13  H               1.2125   -1.3235    1.5996      1.00      1.00        1.0078
   14  H              -0.2977   -1.9812    1.6810      1.00      1.00        1.0078


 FRAGMENTS
 =========                                     Atoms in this Fragment     Cart. coord.s (Angstrom)
                                               -------------------------------------------------------
    1  C                                                 1  C           -0.2255   -0.0137   -0.3857
    2  C                                                 2  C           -0.2841    0.0178    1.1717
    3  C                                                 6  C           -0.9208   -1.2119   -0.9000
    4  C                                                 8  C           -0.7691    1.2680   -1.0219
    5  F                                                 3  F            1.1577   -0.1444   -0.7549
    6  H                                                 4  H           -1.3320    0.1684    1.4621
    7  H                                                 5  H            0.2765    0.9118    1.4749
    8  H                                                 9  H           -0.6506    1.2378   -2.1088
    9  H                                                10  H           -1.8333    1.3817   -0.7861
   10  H                                                11  H           -0.2203    2.1269   -0.6211
   11  H                                                13  H            1.2125   -1.3235    1.5996
   12  H                                                14  H           -0.2977   -1.9812    1.6810
   13  N                                                 7  N           -1.5150   -2.1450   -1.2533
   14  N                                                12  N            0.2476   -1.1402    1.8777


 Interatomic Distance Matrix (Angstrom)
 --------------------------------------

   1)     0.000
   2)     1.559   0.000
   3)     1.438   2.412   0.000
   4)     2.161   1.098   3.348   0.000
   5)     2.138   1.098   2.620   1.772   0.000
   6)     1.478   2.492   2.341   2.766   3.403   0.000
   7)     2.638   3.475   3.376   3.572   4.472   1.161   0.000
   8)     1.531   2.571   2.404   2.774   2.730   2.488   3.501   0.000
   9)     2.172   3.519   2.648   3.789   3.716   2.745   3.595   1.094   0.000
  10)     2.166   2.845   3.358   2.603   3.128   2.752   3.572   1.096   1.780   0.000
  11)     2.154   2.769   2.660   3.068   2.473   3.423   4.508   1.095   1.786   1.784
          0.000
  12)     2.572   1.457   2.958   2.093   2.091   3.014   3.731   3.904   4.728   4.217
          4.140   0.000
  13)     2.779   2.055   2.634   2.953   2.427   3.288   4.032   4.185   4.877   4.721
          4.346   1.021   0.000
  14)     2.854   2.063   3.380   2.395   2.957   2.764   3.181   4.253   4.985   4.444
          4.710   1.021   1.649   0.000

 Min. Distance =    1.0208
 Max. Distance =    4.9849



 =====================================
 S Y M M E T R Y ,   E L E C T R O N S
 =====================================
  
 Symmetry: NOSYM

 Irreducible Representations, including subspecies
 -------------------------------------------------
 A


 Configuration of Valence Electrons
 ==================================
 ( determined in the SCF procedure )

 Total:   54

 Net Charge: 0 (Nuclei minus Electrons)

 Aufbau principle for MO occupations will be applied through SCF cycle no.     100
 Thereafter, the program will assign electrons to MOs that are spatially
 similar to the occupied MOs in a "reference" cycle ("KeepOrbitals").
 The reference cycle is always the PREVIOUS cycle: it will evolve with
 the SCF procedure.
 ***************************************************************************************************



                                      ****************************************
                                      *  B U I L D : (Fragments, Functions)  *
                                      ****************************************
  



 =======
 S F O s  ***  (Symmetrized Fragment Orbitals)  ***
 =======
  
 SFOs are linear combinations of (valence) Fragment Orbitals (FOs), such that the SFOs transform as the
 irreducible representations of the (molecular) symmetry group. Each SFO is therefore characterized by
 an irrep of the molecule and by a few (or only one) generating FOs.
 The SFOs constitute a symmetry-adapted basis for the Fock matrix. The MO eigenvector coefficients in
 this basis provide a direct interpretation of the MOs in terms of Frontier Orbital Theory.

 The SFOs are combined with auxiliary Core Functions (CFs) to ensure orthogonalization on the (frozen)
 Core Orbitals (COs). The Core-orthogonalized SFOs (CSFOs) constitute the true Fock basis.

 The FOs, and hence also the (C)SFOs are combinations of the elementary basis functions (BAS). The basis
 functions that participate in the description of the SFOs depend on the irrep. The indices of the
 involved functions are printed below for each irrep.
 (The complete list of primitive basis functions is printed in another section)

 Total nr. of (C)SFOs (summation over all irreps) :   259

 NOTE: a (C)SFO that is defined as a combination of more than one FO is usually NOT normalized.



                                       === A ===
 Nr. of SFOs :  259
 Cartesian basis functions that participate in this irrep (total number =   294) :
      1     2     3     4     5     6     9    12     7    10
     13     8    11    14    15    16    17    18    19    20
     21    22    23    24    25    26    27    28    29    30
     31    32    33    34    35    36    39    42    37    40
     43    38    41    44    45    46    47    48    49    50
     51    52    53    54    55    56    57    58    59    60
     61    62    63    64    65    66    69    72    67    70
     73    68    71    74    75    76    77    78    79    80
     81    82    83    84    85    86    87    88    89    90
     91    92    93    94    95    96    99   102    97   100
    103    98   101   104   105   106   107   108   109   110
    111   112   113   114   115   116   117   118   119   120
    121   122   123   124   125   126   129   132   127   130
    133   128   131   134   135   136   137   138   139   140
    141   142   143   144   145   146   147   148   149   150
    151   152   153   154   155   156   157   158   159   160
    161   162   163   164   165   166   167   168   169   170
    171   172   173   174   175   176   177   178   179   180
    181   182   183   184   185   186   187   188   189   190
    191   192   193   194   195   196   197   198   199   200
    201   202   203   204   205   206   207   208   209   210
    211   212   213   214   215   216   217   218   219   220
    221   222   223   224   225   226   227   228   229   230
    231   232   233   234   235   236   237   238   239   240
    243   246   241   244   247   242   245   248   249   250
    251   252   253   254   255   256   257   258   259   260
    261   262   263   264   265   266   267   268   269   270
    273   276   271   274   277   272   275   278   279   280
    281   282   283   284   285   286   287   288   289   290
    291   292   293   294

    SFO  (index         Fragment          Generating    Expansion in Fragment Orbitals
  indx  incl.CFs)   Occup   Orb.Energy   FragmentType  Coeff.   Orbital     on Fragment
 --------------------------------------------------------------------------------------
     1       1      2.000     -10.066 au  C             1.00      1 S               1
                        (    -273.921 eV)
     2       2      2.000      -0.501 au  C             1.00      2 S               1
                        (     -13.620 eV)
     3       3       --         0.373 au  C             1.00      3 S               1
                        (      10.158 eV)
     4       4       --         5.405 au  C             1.00      4 S               1
                        (     147.073 eV)
     5       5       --        49.848 au  C             1.00      5 S               1
                        (    1356.422 eV)
     6       6      0.667      -0.193 au  C             1.00      1 P:x             1
                        (      -5.239 eV)
     7       7       --         0.169 au  C             1.00      2 P:x             1
                        (       4.589 eV)
     8       8       --         2.013 au  C             1.00      3 P:x             1
                        (      54.789 eV)
     9       9      0.667      -0.193 au  C             1.00      1 P:y             1
                        (      -5.239 eV)
    10      10       --         0.169 au  C             1.00      2 P:y             1
                        (       4.589 eV)
    11      11       --         2.013 au  C             1.00      3 P:y             1
                        (      54.789 eV)
    12      12      0.667      -0.193 au  C             1.00      1 P:z             1
                        (      -5.239 eV)
    13      13       --         0.169 au  C             1.00      2 P:z             1
                        (       4.589 eV)
    14      14       --         2.013 au  C             1.00      3 P:z             1
                        (      54.789 eV)
    15      15       --         1.243 au  C             1.00      1 D:z2            1
                        (      33.824 eV)
    16      16       --         1.243 au  C             1.00      1 D:x2-y2         1
                        (      33.824 eV)
    17      17       --         1.243 au  C             1.00      1 D:xy            1
                        (      33.824 eV)
    18      18       --         1.243 au  C             1.00      1 D:xz            1
                        (      33.824 eV)
    19      19       --         1.243 au  C             1.00      1 D:yz            1
                        (      33.824 eV)
    20      20       --         4.016 au  C             1.00      1 F:z3            1
                        (     109.271 eV)
    21      21       --         4.016 au  C             1.00      1 F:z             1
                        (     109.271 eV)
    22      22       --         4.016 au  C             1.00      1 F:xyz           1
                        (     109.271 eV)
    23      23       --         4.016 au  C             1.00      1 F:z2x           1
                        (     109.271 eV)
    24      24       --         4.016 au  C             1.00      1 F:z2y           1
                        (     109.271 eV)
    25      25       --         4.016 au  C             1.00      1 F:x             1
                        (     109.271 eV)
    26      26       --         4.016 au  C             1.00      1 F:y             1
                        (     109.271 eV)
    27      27      2.000     -10.066 au  C             1.00      1 S               2
                        (    -273.921 eV)
    28      28      2.000      -0.501 au  C             1.00      2 S               2
                        (     -13.620 eV)
    29      29       --         0.373 au  C             1.00      3 S               2
                        (      10.158 eV)
    30      30       --         5.405 au  C             1.00      4 S               2
                        (     147.073 eV)
    31      31       --        49.848 au  C             1.00      5 S               2
                        (    1356.422 eV)
    32      32      0.667      -0.193 au  C             1.00      1 P:x             2
                        (      -5.239 eV)
    33      33       --         0.169 au  C             1.00      2 P:x             2
                        (       4.589 eV)
    34      34       --         2.013 au  C             1.00      3 P:x             2
                        (      54.789 eV)
    35      35      0.667      -0.193 au  C             1.00      1 P:y             2
                        (      -5.239 eV)
    36      36       --         0.169 au  C             1.00      2 P:y             2
                        (       4.589 eV)
    37      37       --         2.013 au  C             1.00      3 P:y             2
                        (      54.789 eV)
    38      38      0.667      -0.193 au  C             1.00      1 P:z             2
                        (      -5.239 eV)
    39      39       --         0.169 au  C             1.00      2 P:z             2
                        (       4.589 eV)
    40      40       --         2.013 au  C             1.00      3 P:z             2
                        (      54.789 eV)
    41      41       --         1.243 au  C             1.00      1 D:z2            2
                        (      33.824 eV)
    42      42       --         1.243 au  C             1.00      1 D:x2-y2         2
                        (      33.824 eV)
    43      43       --         1.243 au  C             1.00      1 D:xy            2
                        (      33.824 eV)
    44      44       --         1.243 au  C             1.00      1 D:xz            2
                        (      33.824 eV)
    45      45       --         1.243 au  C             1.00      1 D:yz            2
                        (      33.824 eV)
    46      46       --         4.016 au  C             1.00      1 F:z3            2
                        (     109.271 eV)
    47      47       --         4.016 au  C             1.00      1 F:z             2
                        (     109.271 eV)
    48      48       --         4.016 au  C             1.00      1 F:xyz           2
                        (     109.271 eV)
    49      49       --         4.016 au  C             1.00      1 F:z2x           2
                        (     109.271 eV)
    50      50       --         4.016 au  C             1.00      1 F:z2y           2
                        (     109.271 eV)
    51      51       --         4.016 au  C             1.00      1 F:x             2
                        (     109.271 eV)
    52      52       --         4.016 au  C             1.00      1 F:y             2
                        (     109.271 eV)
    53      53      2.000     -10.066 au  C             1.00      1 S               3
                        (    -273.921 eV)
    54      54      2.000      -0.501 au  C             1.00      2 S               3
                        (     -13.620 eV)
    55      55       --         0.373 au  C             1.00      3 S               3
                        (      10.158 eV)
    56      56       --         5.405 au  C             1.00      4 S               3
                        (     147.073 eV)
    57      57       --        49.848 au  C             1.00      5 S               3
                        (    1356.422 eV)
    58      58      0.667      -0.193 au  C             1.00      1 P:x             3
                        (      -5.239 eV)
    59      59       --         0.169 au  C             1.00      2 P:x             3
                        (       4.589 eV)
    60      60       --         2.013 au  C             1.00      3 P:x             3
                        (      54.789 eV)
    61      61      0.667      -0.193 au  C             1.00      1 P:y             3
                        (      -5.239 eV)
    62      62       --         0.169 au  C             1.00      2 P:y             3
                        (       4.589 eV)
    63      63       --         2.013 au  C             1.00      3 P:y             3
                        (      54.789 eV)
    64      64      0.667      -0.193 au  C             1.00      1 P:z             3
                        (      -5.239 eV)
    65      65       --         0.169 au  C             1.00      2 P:z             3
                        (       4.589 eV)
    66      66       --         2.013 au  C             1.00      3 P:z             3
                        (      54.789 eV)
    67      67       --         1.243 au  C             1.00      1 D:z2            3
                        (      33.824 eV)
    68      68       --         1.243 au  C             1.00      1 D:x2-y2         3
                        (      33.824 eV)
    69      69       --         1.243 au  C             1.00      1 D:xy            3
                        (      33.824 eV)
    70      70       --         1.243 au  C             1.00      1 D:xz            3
                        (      33.824 eV)
    71      71       --         1.243 au  C             1.00      1 D:yz            3
                        (      33.824 eV)
    72      72       --         4.016 au  C             1.00      1 F:z3            3
                        (     109.271 eV)
    73      73       --         4.016 au  C             1.00      1 F:z             3
                        (     109.271 eV)
    74      74       --         4.016 au  C             1.00      1 F:xyz           3
                        (     109.271 eV)
    75      75       --         4.016 au  C             1.00      1 F:z2x           3
                        (     109.271 eV)
    76      76       --         4.016 au  C             1.00      1 F:z2y           3
                        (     109.271 eV)
    77      77       --         4.016 au  C             1.00      1 F:x             3
                        (     109.271 eV)
    78      78       --         4.016 au  C             1.00      1 F:y             3
                        (     109.271 eV)
    79      79      2.000     -10.066 au  C             1.00      1 S               4
                        (    -273.921 eV)
    80      80      2.000      -0.501 au  C             1.00      2 S               4
                        (     -13.620 eV)
    81      81       --         0.373 au  C             1.00      3 S               4
                        (      10.158 eV)
    82      82       --         5.405 au  C             1.00      4 S               4
                        (     147.073 eV)
    83      83       --        49.848 au  C             1.00      5 S               4
                        (    1356.422 eV)
    84      84      0.667      -0.193 au  C             1.00      1 P:x             4
                        (      -5.239 eV)
    85      85       --         0.169 au  C             1.00      2 P:x             4
                        (       4.589 eV)
    86      86       --         2.013 au  C             1.00      3 P:x             4
                        (      54.789 eV)
    87      87      0.667      -0.193 au  C             1.00      1 P:y             4
                        (      -5.239 eV)
    88      88       --         0.169 au  C             1.00      2 P:y             4
                        (       4.589 eV)
    89      89       --         2.013 au  C             1.00      3 P:y             4
                        (      54.789 eV)
    90      90      0.667      -0.193 au  C             1.00      1 P:z             4
                        (      -5.239 eV)
    91      91       --         0.169 au  C             1.00      2 P:z             4
                        (       4.589 eV)
    92      92       --         2.013 au  C             1.00      3 P:z             4
                        (      54.789 eV)
    93      93       --         1.243 au  C             1.00      1 D:z2            4
                        (      33.824 eV)
    94      94       --         1.243 au  C             1.00      1 D:x2-y2         4
                        (      33.824 eV)
    95      95       --         1.243 au  C             1.00      1 D:xy            4
                        (      33.824 eV)
    96      96       --         1.243 au  C             1.00      1 D:xz            4
                        (      33.824 eV)
    97      97       --         1.243 au  C             1.00      1 D:yz            4
                        (      33.824 eV)
    98      98       --         4.016 au  C             1.00      1 F:z3            4
                        (     109.271 eV)
    99      99       --         4.016 au  C             1.00      1 F:z             4
                        (     109.271 eV)
   100     100       --         4.016 au  C             1.00      1 F:xyz           4
                        (     109.271 eV)
   101     101       --         4.016 au  C             1.00      1 F:z2x           4
                        (     109.271 eV)
   102     102       --         4.016 au  C             1.00      1 F:z2y           4
                        (     109.271 eV)
   103     103       --         4.016 au  C             1.00      1 F:x             4
                        (     109.271 eV)
   104     104       --         4.016 au  C             1.00      1 F:y             4
                        (     109.271 eV)
   105     105      2.000     -24.402 au  F             1.00      1 S               5
                        (    -664.014 eV)
   106     106      2.000      -1.095 au  F             1.00      2 S               5
                        (     -29.785 eV)
   107     107       --         0.023 au  F             1.00      3 S               5
                        (       0.624 eV)
   108     108       --         1.576 au  F             1.00      4 S               5
                        (      42.880 eV)
   109     109       --        47.803 au  F             1.00      5 S               5
                        (    1300.785 eV)
   110     110      1.667      -0.409 au  F             1.00      1 P:x             5
                        (     -11.127 eV)
   111     111       --         0.428 au  F             1.00      2 P:x             5
                        (      11.654 eV)
   112     112       --         4.556 au  F             1.00      3 P:x             5
                        (     123.977 eV)
   113     113      1.667      -0.409 au  F             1.00      1 P:y             5
                        (     -11.127 eV)
   114     114       --         0.428 au  F             1.00      2 P:y             5
                        (      11.654 eV)
   115     115       --         4.556 au  F             1.00      3 P:y             5
                        (     123.977 eV)
   116     116      1.667      -0.409 au  F             1.00      1 P:z             5
                        (     -11.127 eV)
   117     117       --         0.428 au  F             1.00      2 P:z             5
                        (      11.654 eV)
   118     118       --         4.556 au  F             1.00      3 P:z             5
                        (     123.977 eV)
   119     119       --         1.117 au  F             1.00      1 D:z2            5
                        (      30.390 eV)
   120     120       --         1.117 au  F             1.00      1 D:x2-y2         5
                        (      30.390 eV)
   121     121       --         1.117 au  F             1.00      1 D:xy            5
                        (      30.390 eV)
   122     122       --         1.117 au  F             1.00      1 D:xz            5
                        (      30.390 eV)
   123     123       --         1.117 au  F             1.00      1 D:yz            5
                        (      30.390 eV)
   124     124       --         3.416 au  F             1.00      1 F:z3            5
                        (      92.949 eV)
   125     125       --         3.416 au  F             1.00      1 F:z             5
                        (      92.949 eV)
   126     126       --         3.416 au  F             1.00      1 F:xyz           5
                        (      92.949 eV)
   127     127       --         3.416 au  F             1.00      1 F:z2x           5
                        (      92.949 eV)
   128     128       --         3.416 au  F             1.00      1 F:z2y           5
                        (      92.949 eV)
   129     129       --         3.416 au  F             1.00      1 F:x             5
                        (      92.949 eV)
   130     130       --         3.416 au  F             1.00      1 F:y             5
                        (      92.949 eV)
   131     131      1.000      -0.240 au  H             1.00      1 S               6
                        (      -6.532 eV)
   132     132       --         0.088 au  H             1.00      2 S               6
                        (       2.394 eV)
   133     133       --         1.502 au  H             1.00      3 S               6
                        (      40.869 eV)
   134     134       --         0.406 au  H             1.00      1 P:x             6
                        (      11.051 eV)
   135     135       --         0.406 au  H             1.00      1 P:y             6
                        (      11.051 eV)
   136     136       --         0.406 au  H             1.00      1 P:z             6
                        (      11.051 eV)
   137     137       --         2.569 au  H             1.00      1 D:z2            6
                        (      69.917 eV)
   138     138       --         2.569 au  H             1.00      1 D:x2-y2         6
                        (      69.917 eV)
   139     139       --         2.569 au  H             1.00      1 D:xy            6
                        (      69.917 eV)
   140     140       --         2.569 au  H             1.00      1 D:xz            6
                        (      69.917 eV)
   141     141       --         2.569 au  H             1.00      1 D:yz            6
                        (      69.917 eV)
   142     142      1.000      -0.240 au  H             1.00      1 S               7
                        (      -6.532 eV)
   143     143       --         0.088 au  H             1.00      2 S               7
                        (       2.394 eV)
   144     144       --         1.502 au  H             1.00      3 S               7
                        (      40.869 eV)
   145     145       --         0.406 au  H             1.00      1 P:x             7
                        (      11.051 eV)
   146     146       --         0.406 au  H             1.00      1 P:y             7
                        (      11.051 eV)
   147     147       --         0.406 au  H             1.00      1 P:z             7
                        (      11.051 eV)
   148     148       --         2.569 au  H             1.00      1 D:z2            7
                        (      69.917 eV)
   149     149       --         2.569 au  H             1.00      1 D:x2-y2         7
                        (      69.917 eV)
   150     150       --         2.569 au  H             1.00      1 D:xy            7
                        (      69.917 eV)
   151     151       --         2.569 au  H             1.00      1 D:xz            7
                        (      69.917 eV)
   152     152       --         2.569 au  H             1.00      1 D:yz            7
                        (      69.917 eV)
   153     153      1.000      -0.240 au  H             1.00      1 S               8
                        (      -6.532 eV)
   154     154       --         0.088 au  H             1.00      2 S               8
                        (       2.394 eV)
   155     155       --         1.502 au  H             1.00      3 S               8
                        (      40.869 eV)
   156     156       --         0.406 au  H             1.00      1 P:x             8
                        (      11.051 eV)
   157     157       --         0.406 au  H             1.00      1 P:y             8
                        (      11.051 eV)
   158     158       --         0.406 au  H             1.00      1 P:z             8
                        (      11.051 eV)
   159     159       --         2.569 au  H             1.00      1 D:z2            8
                        (      69.917 eV)
   160     160       --         2.569 au  H             1.00      1 D:x2-y2         8
                        (      69.917 eV)
   161     161       --         2.569 au  H             1.00      1 D:xy            8
                        (      69.917 eV)
   162     162       --         2.569 au  H             1.00      1 D:xz            8
                        (      69.917 eV)
   163     163       --         2.569 au  H             1.00      1 D:yz            8
                        (      69.917 eV)
   164     164      1.000      -0.240 au  H             1.00      1 S               9
                        (      -6.532 eV)
   165     165       --         0.088 au  H             1.00      2 S               9
                        (       2.394 eV)
   166     166       --         1.502 au  H             1.00      3 S               9
                        (      40.869 eV)
   167     167       --         0.406 au  H             1.00      1 P:x             9
                        (      11.051 eV)
   168     168       --         0.406 au  H             1.00      1 P:y             9
                        (      11.051 eV)
   169     169       --         0.406 au  H             1.00      1 P:z             9
                        (      11.051 eV)
   170     170       --         2.569 au  H             1.00      1 D:z2            9
                        (      69.917 eV)
   171     171       --         2.569 au  H             1.00      1 D:x2-y2         9
                        (      69.917 eV)
   172     172       --         2.569 au  H             1.00      1 D:xy            9
                        (      69.917 eV)
   173     173       --         2.569 au  H             1.00      1 D:xz            9
                        (      69.917 eV)
   174     174       --         2.569 au  H             1.00      1 D:yz            9
                        (      69.917 eV)
   175     175      1.000      -0.240 au  H             1.00      1 S              10
                        (      -6.532 eV)
   176     176       --         0.088 au  H             1.00      2 S              10
                        (       2.394 eV)
   177     177       --         1.502 au  H             1.00      3 S              10
                        (      40.869 eV)
   178     178       --         0.406 au  H             1.00      1 P:x            10
                        (      11.051 eV)
   179     179       --         0.406 au  H             1.00      1 P:y            10
                        (      11.051 eV)
   180     180       --         0.406 au  H             1.00      1 P:z            10
                        (      11.051 eV)
   181     181       --         2.569 au  H             1.00      1 D:z2           10
                        (      69.917 eV)
   182     182       --         2.569 au  H             1.00      1 D:x2-y2        10
                        (      69.917 eV)
   183     183       --         2.569 au  H             1.00      1 D:xy           10
                        (      69.917 eV)
   184     184       --         2.569 au  H             1.00      1 D:xz           10
                        (      69.917 eV)
   185     185       --         2.569 au  H             1.00      1 D:yz           10
                        (      69.917 eV)
   186     186      1.000      -0.240 au  H             1.00      1 S              11
                        (      -6.532 eV)
   187     187       --         0.088 au  H             1.00      2 S              11
                        (       2.394 eV)
   188     188       --         1.502 au  H             1.00      3 S              11
                        (      40.869 eV)
   189     189       --         0.406 au  H             1.00      1 P:x            11
                        (      11.051 eV)
   190     190       --         0.406 au  H             1.00      1 P:y            11
                        (      11.051 eV)
   191     191       --         0.406 au  H             1.00      1 P:z            11
                        (      11.051 eV)
   192     192       --         2.569 au  H             1.00      1 D:z2           11
                        (      69.917 eV)
   193     193       --         2.569 au  H             1.00      1 D:x2-y2        11
                        (      69.917 eV)
   194     194       --         2.569 au  H             1.00      1 D:xy           11
                        (      69.917 eV)
   195     195       --         2.569 au  H             1.00      1 D:xz           11
                        (      69.917 eV)
   196     196       --         2.569 au  H             1.00      1 D:yz           11
                        (      69.917 eV)
   197     197      1.000      -0.240 au  H             1.00      1 S              12
                        (      -6.532 eV)
   198     198       --         0.088 au  H             1.00      2 S              12
                        (       2.394 eV)
   199     199       --         1.502 au  H             1.00      3 S              12
                        (      40.869 eV)
   200     200       --         0.406 au  H             1.00      1 P:x            12
                        (      11.051 eV)
   201     201       --         0.406 au  H             1.00      1 P:y            12
                        (      11.051 eV)
   202     202       --         0.406 au  H             1.00      1 P:z            12
                        (      11.051 eV)
   203     203       --         2.569 au  H             1.00      1 D:z2           12
                        (      69.917 eV)
   204     204       --         2.569 au  H             1.00      1 D:x2-y2        12
                        (      69.917 eV)
   205     205       --         2.569 au  H             1.00      1 D:xy           12
                        (      69.917 eV)
   206     206       --         2.569 au  H             1.00      1 D:xz           12
                        (      69.917 eV)
   207     207       --         2.569 au  H             1.00      1 D:yz           12
                        (      69.917 eV)
   208     208      2.000     -14.160 au  N             1.00      1 S              13
                        (    -385.319 eV)
   209     209      2.000      -0.678 au  N             1.00      2 S              13
                        (     -18.450 eV)
   210     210       --         0.517 au  N             1.00      3 S              13
                        (      14.073 eV)
   211     211       --         6.872 au  N             1.00      4 S              13
                        (     186.990 eV)
   212     212       --        63.432 au  N             1.00      5 S              13
                        (    1726.082 eV)
   213     213      1.000      -0.260 au  N             1.00      1 P:x            13
                        (      -7.062 eV)
   214     214       --         0.281 au  N             1.00      2 P:x            13
                        (       7.649 eV)
   215     215       --         3.275 au  N             1.00      3 P:x            13
                        (      89.105 eV)
   216     216      1.000      -0.260 au  N             1.00      1 P:y            13
                        (      -7.062 eV)
   217     217       --         0.281 au  N             1.00      2 P:y            13
                        (       7.649 eV)
   218     218       --         3.275 au  N             1.00      3 P:y            13
                        (      89.105 eV)
   219     219      1.000      -0.260 au  N             1.00      1 P:z            13
                        (      -7.062 eV)
   220     220       --         0.281 au  N             1.00      2 P:z            13
                        (       7.649 eV)
   221     221       --         3.275 au  N             1.00      3 P:z            13
                        (      89.105 eV)
   222     222       --         1.250 au  N             1.00      1 D:z2           13
                        (      34.005 eV)
   223     223       --         1.250 au  N             1.00      1 D:x2-y2        13
                        (      34.005 eV)
   224     224       --         1.250 au  N             1.00      1 D:xy           13
                        (      34.005 eV)
   225     225       --         1.250 au  N             1.00      1 D:xz           13
                        (      34.005 eV)
   226     226       --         1.250 au  N             1.00      1 D:yz           13
                        (      34.005 eV)
   227     227       --         4.013 au  N             1.00      1 F:z3           13
                        (     109.190 eV)
   228     228       --         4.013 au  N             1.00      1 F:z            13
                        (     109.190 eV)
   229     229       --         4.013 au  N             1.00      1 F:xyz          13
                        (     109.190 eV)
   230     230       --         4.013 au  N             1.00      1 F:z2x          13
                        (     109.190 eV)
   231     231       --         4.013 au  N             1.00      1 F:z2y          13
                        (     109.190 eV)
   232     232       --         4.013 au  N             1.00      1 F:x            13
                        (     109.190 eV)
   233     233       --         4.013 au  N             1.00      1 F:y            13
                        (     109.190 eV)
   234     234      2.000     -14.160 au  N             1.00      1 S              14
                        (    -385.319 eV)
   235     235      2.000      -0.678 au  N             1.00      2 S              14
                        (     -18.450 eV)
   236     236       --         0.517 au  N             1.00      3 S              14
                        (      14.073 eV)
   237     237       --         6.872 au  N             1.00      4 S              14
                        (     186.990 eV)
   238     238       --        63.432 au  N             1.00      5 S              14
                        (    1726.082 eV)
   239     239      1.000      -0.260 au  N             1.00      1 P:x            14
                        (      -7.062 eV)
   240     240       --         0.281 au  N             1.00      2 P:x            14
                        (       7.649 eV)
   241     241       --         3.275 au  N             1.00      3 P:x            14
                        (      89.105 eV)
   242     242      1.000      -0.260 au  N             1.00      1 P:y            14
                        (      -7.062 eV)
   243     243       --         0.281 au  N             1.00      2 P:y            14
                        (       7.649 eV)
   244     244       --         3.275 au  N             1.00      3 P:y            14
                        (      89.105 eV)
   245     245      1.000      -0.260 au  N             1.00      1 P:z            14
                        (      -7.062 eV)
   246     246       --         0.281 au  N             1.00      2 P:z            14
                        (       7.649 eV)
   247     247       --         3.275 au  N             1.00      3 P:z            14
                        (      89.105 eV)
   248     248       --         1.250 au  N             1.00      1 D:z2           14
                        (      34.005 eV)
   249     249       --         1.250 au  N             1.00      1 D:x2-y2        14
                        (      34.005 eV)
   250     250       --         1.250 au  N             1.00      1 D:xy           14
                        (      34.005 eV)
   251     251       --         1.250 au  N             1.00      1 D:xz           14
                        (      34.005 eV)
   252     252       --         1.250 au  N             1.00      1 D:yz           14
                        (      34.005 eV)
   253     253       --         4.013 au  N             1.00      1 F:z3           14
[...]
                                    5.78%     1 P:x            -5.239  0.67     3 C
                                   -4.67%     2 S               2.394  0.00     9 H
                                    3.90%     1 P:z            -5.239  0.67     4 C
                                    3.76%     1 P:z            -5.239  0.67     2 C
                                    3.35%     1 S              -6.532  1.00     8 H
                                    3.35%     2 P:x             4.589  0.00     4 C
                                    2.30%     3 S               0.624  0.00     5 F
                                    2.06%     2 S             -18.450  2.00    13 N
                                    2.02%     2 P:x             4.589  0.00     3 C
                                    1.92%     1 P:z            11.051  0.00     6 H
                                    1.87%     1 P:x           -11.127  1.67     5 F
                                    1.77%     1 P:z            11.051  0.00     9 H
                                   -1.77%     3 S              10.158  0.00     4 C
                                    1.71%     1 P:y            -5.239  0.67     3 C
                                    1.50%     1 P:x            11.051  0.00     8 H
                                    1.35%     2 P:z             7.649  0.00    13 N
                                   -1.35%     2 S               2.394  0.00    10 H
                                   -1.34%     1 P:y            -5.239  0.67     4 C
                                    1.31%     1 P:x            -7.062  1.00    14 N
                                   -1.22%     2 S               2.394  0.00    12 H
                                   -1.15%     2 S               2.394  0.00    11 H
                                    1.10%     1 P:z            -5.239  0.67     1 C
                                    1.05%     3 S              10.158  0.00     3 C
                                    1.01%     1 P:z           -11.127  1.67     5 F
       3.630  0.00    41 A         17.40%     2 P:y             4.589  0.00     2 C
                                   14.07%     1 P:y            -5.239  0.67     2 C
                                  -14.00%     2 P:y             4.589  0.00     1 C
                                   11.94%     1 P:z            -5.239  0.67     2 C
                                   11.47%     1 P:y            -5.239  0.67     1 C
                                    7.69%     1 P:x            -5.239  0.67     1 C
                                   -6.87%     2 P:z             4.589  0.00     1 C
                                    6.85%     1 P:y            -5.239  0.67     4 C
                                    6.05%     2 P:z             4.589  0.00     4 C
                                    5.83%     1 S              -6.532  1.00     6 H
                                    5.10%     2 S               2.394  0.00    12 H
                                   -4.42%     2 S               2.394  0.00     6 H
                                    4.09%     1 P:z            -5.239  0.67     1 C
                                    3.84%     1 P:z            -5.239  0.67     4 C
                                   -3.40%     2 S               2.394  0.00     7 H
                                    3.18%     1 P:x            -5.239  0.67     2 C
                                    3.06%     1 S              -6.532  1.00     7 H
                                    3.03%     2 P:y             4.589  0.00     4 C
                                    2.93%     1 S              -6.532  1.00     9 H
                                    2.87%     1 P:x            -5.239  0.67     3 C
                                   -2.73%     2 P:z             4.589  0.00     2 C
                                    2.70%     1 P:x            -5.239  0.67     4 C
                                    2.69%     2 P:z             4.589  0.00     3 C
                                    2.34%     2 S             -13.620  2.00     3 C
                                    2.34%     1 P:x            -7.062  1.00    13 N
                                    2.21%     1 P:y            11.051  0.00     6 H
                                    2.18%     2 P:y             7.649  0.00    14 N
                                    2.13%     1 P:y            -5.239  0.67     3 C
                                   -1.91%     2 S               2.394  0.00     9 H
                                    1.79%     2 P:x             4.589  0.00     3 C
                                   -1.74%     2 P:z             7.649  0.00    14 N
                                   -1.72%     3 S              14.073  0.00    14 N
                                    1.51%     1 S              -6.532  1.00    11 H
                                   -1.45%     2 P:y             4.589  0.00     3 C
                                   -1.35%     3 S              40.869  0.00     7 H
                                    1.14%     2 P:x             7.649  0.00    13 N
                                    1.10%     1 P:y            11.051  0.00    12 H
                                    1.05%     1 S              -6.532  1.00     8 H
                                    1.04%     1 P:x           -11.127  1.67     5 F
                                   -1.04%     2 P:x             4.589  0.00     1 C
       3.822  0.00    42 A         25.71%     1 P:x            -5.239  0.67     1 C
                                   17.93%     1 P:z            -5.239  0.67     2 C
                                   12.41%     2 P:z             4.589  0.00     2 C
                                   11.93%     1 P:y            -5.239  0.67     1 C
                                  -11.14%     2 P:z             4.589  0.00     1 C
                                    8.58%     1 P:z            -5.239  0.67     3 C
                                   -8.23%     2 P:x             4.589  0.00     1 C
                                    7.61%     2 S             -13.620  2.00     3 C
                                    7.08%     1 P:y            -7.062  1.00    14 N
                                   -7.03%     2 P:y             7.649  0.00    14 N
                                    6.01%     1 S              -6.532  1.00     8 H
                                    5.83%     1 P:y            -5.239  0.67     3 C
                                    5.77%     2 P:z             4.589  0.00     4 C
                                    4.70%     2 S               2.394  0.00     9 H
                                   -4.35%     2 P:x             4.589  0.00     4 C
                                   -4.20%     3 S              10.158  0.00     3 C
                                    4.08%     2 P:z             4.589  0.00     3 C
                                    3.89%     1 P:z            -5.239  0.67     4 C
                                   -3.31%     2 S               2.394  0.00     8 H
                                    2.93%     1 P:y            -5.239  0.67     4 C
                                   -2.57%     3 S              10.158  0.00     1 C
                                    2.50%     1 P:z            -5.239  0.67     1 C
                                    2.49%     1 P:x           -11.127  1.67     5 F
                                   -2.40%     2 P:x             4.589  0.00     2 C
                                    2.15%     2 S               2.394  0.00     6 H
                                    2.03%     1 S              -6.532  1.00    12 H
                                    1.84%     1 P:x            -5.239  0.67     2 C
                                    1.82%     1 P:z            -7.062  1.00    13 N
                                   -1.72%     1 S              -6.532  1.00     9 H
                                    1.68%     1 P:y            -5.239  0.67     2 C
                                   -1.61%     4 S              42.880  0.00     5 F
                                   -1.56%     2 S             -13.620  2.00     1 C
                                    1.54%     1 P:z            11.051  0.00     7 H
                                   -1.52%     2 P:y             4.589  0.00     3 C
                                   -1.47%     3 S              10.158  0.00     4 C
                                    1.28%     3 S               0.624  0.00     5 F
                                   -1.22%     2 P:x            11.654  0.00     5 F
                                    1.17%     1 P:z            11.051  0.00    10 H
                                    1.13%     2 S             -13.620  2.00     4 C
                                    1.13%     1 S              -6.532  1.00    11 H
                                    1.10%     2 S             -29.785  2.00     5 F

 Energy gradients wrt nuclear displacements
 ==========================================

     Atom      Cartesian (a.u./angstrom)
                 X         Y         Z
 ----------------------------------------
     1 C     0.000026  0.000078 -0.000048
     2 C     0.000006 -0.000061 -0.000029
     3 F    -0.000061  0.000094 -0.000039
     4 H     0.000036 -0.000088  0.000069
     5 H     0.000044 -0.000039  0.000007
     6 C     0.000027  0.000031  0.000033
     7 N    -0.000024  0.000015 -0.000109
     8 C    -0.000101  0.000056  0.000056
     9 H    -0.000127  0.000099  0.000080
    10 H    -0.000069  0.000002  0.000139
    11 H    -0.000076  0.000022  0.000106
    12 N     0.000134 -0.000108 -0.000032
    13 H     0.000081 -0.000018 -0.000130
    14 H     0.000104 -0.000082 -0.000103
 ----------------------------------------



 =======================================================================
 Electrostatic potential at the Nuclei due to electrons and other nuclei
 =======================================================================
  
         Atom                  Potential
         ----                  ---------
     1)   C                  14.64714359
     2)   C                  14.72803547
     3)   F                  26.64061665
     4)   H                   1.08489267
     5)   H                   1.08797640
     6)   C                  14.75236731
     7)   N                  18.42103241
     8)   C                  14.75800308
     9)   H                   1.08409068
    10)   H                   1.07745188
    11)   H                   1.08165679
    12)   N                  18.41390792
    13)   H                   1.04479615
    14)   H                   1.04348712
 Mulliken charges used for AMS results%charges...


    =====================
     CALCULATION RESULTS
    =====================

Energy (hartree)            -2.88773756

Gradients (hartree/bohr)
  Index   Atom            d/dx            d/dy            d/dz
      1      C    0.0000139380    0.0000414809   -0.0000254068
      2      C    0.0000029759   -0.0000324547   -0.0000155137
      3      F   -0.0000321899    0.0000495774   -0.0000204606
      4      H    0.0000192796   -0.0000464090    0.0000363368
      5      H    0.0000233632   -0.0000206992    0.0000034808
      6      C    0.0000143131    0.0000163767    0.0000177090
      7      N   -0.0000128725    0.0000078343   -0.0000574489
      8      C   -0.0000532039    0.0000293965    0.0000296521
      9      H   -0.0000674170    0.0000524264    0.0000423734
     10      H   -0.0000366932    0.0000009574    0.0000735718
     11      H   -0.0000402091    0.0000114937    0.0000561984
     12      N    0.0000708804   -0.0000569908   -0.0000170364
     13      H    0.0000430379   -0.0000097813   -0.0000690001
     14      H    0.0000547974   -0.0000432081   -0.0000544560


--------------
Atomic charges
--------------
  Index   Atom    Charge
      1      C    0.3682
      2      C    0.5950
      3      F   -0.4274
      4      H   -0.1794
      5      H   -0.1766
      6      C    0.0921
      7      N   -0.2477
      8      C    0.6982
      9      H   -0.1928
     10      H   -0.1910
     11      H   -0.1966
     12      N   -0.0731
     13      H   -0.0357
     14      H   -0.0331


Dipole moment vector    (Debye):    -0.05704150    2.94899980    0.78088290
              magnitude (Debye):     3.05116891


-----------------------
Molecular orbitals info
-----------------------
n orbitals:              259
n spin:                    1

Note: only printing virtual orbitals with
      energy smaller than HOMO + 100. eV

HOMO (eV):              -6.1180
LUMO (eV):              -1.4741
HOMO-LUMO gap (eV):      4.6439

   Index   Energy (eV)    Occupation
     164       93.7957         0.000       
     163       92.1469         0.000       
     162       92.0043         0.000       
     161       90.9100         0.000       
     160       90.5515         0.000       
     159       89.8325         0.000       
     158       88.0263         0.000       
     157       87.0745         0.000       
     156       86.0932         0.000       
     155       84.8973         0.000       
     154       84.0475         0.000       
     153       83.4272         0.000       
     152       82.0916         0.000       
     151       80.9591         0.000       
     150       80.4622         0.000       
     149       79.8862         0.000       
     148       78.8525         0.000       
     147       78.2486         0.000       
     146       77.9307         0.000       
     145       76.9660         0.000       
     144       76.5730         0.000       
     143       75.2839         0.000       
     142       74.8751         0.000       
     141       73.1465         0.000       
     140       72.5889         0.000       
     139       71.8400         0.000       
     138       70.3167         0.000       
     137       69.3116         0.000       
     136       68.1499         0.000       
     135       67.1652         0.000       
     134       66.0499         0.000       
     133       65.2050         0.000       
     132       64.3855         0.000       
     131       63.3563         0.000       
     130       62.5572         0.000       
     129       62.1718         0.000       
     128       61.6960         0.000       
     127       60.3157         0.000       
     126       57.8936         0.000       
     125       57.1187         0.000       
     124       56.8268         0.000       
     123       56.2472         0.000       
     122       55.2307         0.000       
     121       54.1715         0.000       
     120       53.8830         0.000       
     119       52.9461         0.000       
     118       52.4961         0.000       
     117       50.6852         0.000       
     116       50.1250         0.000       
     115       49.2474         0.000       
     114       48.5543         0.000       
     113       47.7093         0.000       
     112       46.4820         0.000       
     111       45.7806         0.000       
     110       45.2963         0.000       
     109       44.7615         0.000       
     108       43.7493         0.000       
     107       43.4820         0.000       
     106       42.0824         0.000       
     105       41.2852         0.000       
     104       40.4179         0.000       
     103       39.7961         0.000       
     102       39.2219         0.000       
     101       38.3625         0.000       
     100       37.2265         0.000       
      99       36.7228         0.000       
      98       36.2043         0.000       
      97       35.6848         0.000       
      96       34.8511         0.000       
      95       34.0157         0.000       
      94       33.4728         0.000       
      93       32.6973         0.000       
      92       31.8102         0.000       
      91       31.7116         0.000       
      90       31.0375         0.000       
      89       30.8864         0.000       
      88       30.1873         0.000       
      87       30.0785         0.000       
      86       28.9849         0.000       
      85       28.4931         0.000       
      84       27.9072         0.000       
      83       27.5032         0.000       
      82       26.7050         0.000       
      81       26.2219         0.000       
      80       25.9680         0.000       
      79       25.2971         0.000       
      78       23.9704         0.000       
      77       23.5643         0.000       
      76       23.2765         0.000       
      75       22.7098         0.000       
      74       21.9585         0.000       
      73       21.0368         0.000       
      72       20.3201         0.000       
      71       19.9628         0.000       
      70       18.4181         0.000       
      69       17.6338         0.000       
      68       17.1236         0.000       
      67       16.5802         0.000       
      66       15.0668         0.000       
      65       14.4761         0.000       
      64       13.6943         0.000       
      63       13.2361         0.000       
      62       12.1900         0.000       
      61       11.7879         0.000       
      60       11.1354         0.000       
      59       10.6811         0.000       
      58       10.6265         0.000       
      57       10.4077         0.000       
      56        9.8990         0.000       
      55        9.4451         0.000       
      54        9.0330         0.000       
      53        8.4796         0.000       
      52        8.0079         0.000       
      51        7.6183         0.000       
      50        6.8665         0.000       
      49        6.7062         0.000       
      48        6.5148         0.000       
      47        6.0259         0.000       
      46        5.6756         0.000       
      45        5.3446         0.000       
      44        5.0797         0.000       
      43        4.4491         0.000       
      42        3.8216         0.000       
      41        3.6297         0.000       
      40        3.3342         0.000       
      39        3.0170         0.000       
      38        2.5754         0.000       
      37        1.9219         0.000       
      36        1.7444         0.000       
      35        1.4288         0.000       
      34        1.1690         0.000       
      33        0.5938         0.000       
      32        0.3376         0.000       
      31       -0.0187         0.000       
      30       -0.5444         0.000       
      29       -0.7899         0.000       
      28       -1.4741         0.000 < LUMO
      27       -6.1180         2.000 < HOMO
      26       -8.3741         2.000       
      25       -8.5954         2.000       
      24       -8.8135         2.000       
      23       -9.1128         2.000       
      22       -9.4620         2.000       
      21       -9.7992         2.000       
      20      -10.2327         2.000       
      19      -10.5622         2.000       
      18      -10.7377         2.000       
      17      -12.0040         2.000       
      16      -12.5493         2.000       
      15      -12.5941         2.000       
      14      -13.8494         2.000       
      13      -16.4599         2.000       
      12      -17.3757         2.000       
      11      -20.2616         2.000       
      10      -22.4318         2.000       
       9      -22.9474         2.000       
       8      -30.1089         2.000       
       7     -270.7720         2.000       
       6     -271.3803         2.000       
       5     -271.5527         2.000       
       4     -273.7265         2.000       
       3     -381.6015         2.000       
       2     -382.0145         2.000       
       1     -661.6788         2.000       

AMS application finished. Exiting.
NORMAL TERMINATION
     Total cpu time:     472.13
  Total system time:       2.36
 Total elapsed time:     476.11
NORMAL TERMINATION
