
 *******************************************************************************
 *                                                                             *
 *  --------------------------------                                           *
 *   Amsterdam Modeling Suite (AMS)              2026.103                      *
 *  --------------------------------                                           *
 *                                               r260501 2026-05-01 873454b5   *
 *                                                                             *
 *                                                                             *
 *                              =================                              *
 *                              |               |                              *
 *                              |     A M S     |                              *
 *                              |               |                              *
 *                              =================                              *
 *                                                                             *
 *                                                                             *
 *   Online information and documentation:  https://www.scm.com/support/       *
 *   E-mail:  support@scm.com   info@scm.com                                   *
 *                                                                             *
 *   Scientific publications using AMS results must be properly referenced     *
 *   See the User Manuals (or the web site) for recommended citations          *
 *   The terms and conditions of the End User License Agreement apply to       *
 *   the use of AMS, https://www.scm.com/license-terms/                        *
 *                                                                             *
 **********************  x86_64_linux_intel / intelmpi  ************************
 
 Licensed to: Jong-June Jeon / University of Seoul 2026-06-02 13:44:15
 SCM User ID: u30731
  
 AMS 2026.103  RunTime: Jun04-2026 01:43:32  ShM Nodes: 1  Procs: 1

 AMS jobname: c2_fragB_ts
 AMS jobid  : 1601552650

 Start   directory: /gpfs/home1/yeseo1ee/projects/eda-asm-prediction/ADF_800/adf_outputs/batch_007/qmrxn20_sn2_C_E_B_D_B_A/
 Results directory: /gpfs/home1/yeseo1ee/projects/eda-asm-prediction/ADF_800/adf_outputs/batch_007/qmrxn20_sn2_C_E_B_D_B_A/c2_fragB_ts.results/
 Scratch directory: /tmp/amstmp_c2_fragB_ts_kid0.1601552650/

 RNG seed: 1971613447 -42260825 -1911681911 -45816689 -208042892 1917705334 -1678295884 812100615



                      ************************************************************************
                      *  ADF 2026.103  RunTime: Jun04-2026 01:43:32  ShM Nodes: 1  Procs: 1  *
                      ************************************************************************
  

       ****************************
       * SINGLE POINT CALCULATION *
       ****************************

--------
Geometry
--------
Formula: C4H6ClN3O2
Atoms
  Index Symbol   x (angstrom)   y (angstrom)   z (angstrom)
      1      C     0.36898458    -0.09947102     0.08264315
      2      H     1.64576130     1.57177491     0.46918477
      3     Cl    -1.65201202    -0.21228231     0.38269418
      4      C     0.63069160     1.42271553     0.11452371
      5      C     0.49767660    -0.71658017    -1.22367490
      6      N     0.24335364    -1.28966183    -2.23059867
      7      N     0.80840304    -0.83449264     1.24588470
      8      H     1.76283949    -1.11872859     1.06719961
      9      H     0.21522946    -1.64977795     1.34454958
     10      N    -0.19072031     2.11196415     1.18453377
     11      O    -1.10520086     2.86233075     0.84526947
     12      O     0.16328908     1.92753641     2.34692365
     13      C     0.39310035     2.07532219    -1.22729383
     14      H     1.10076392     1.65403120    -1.94120011
     15      H    -0.62361677     1.88189259    -1.56910208
     16      H     0.54147382     3.15441852    -1.15915508

Total System Charge              0.00000


----------------
ADF Engine Input
----------------
 
   Basis
     Type TZ2P
     Core None
   End
   XC
     GGA BLYP
     Dispersion GRIMME3 BJDAMP
   End
   Symmetry NOSYM
   NumericalQuality Normal
   Unrestricted No
   SCF
     Iterations 200
     Converge 1.0e-6
   End
   Save TAPE21
 

 Title: *** (NO TITLE) ***

 *** adf ***



 ===========================
 A T T A C H E D   F I L E S
 ===========================
  



 ===============================
 M O D E L   P A R A M E T E R S
 ===============================
  
 DENSITY FUNCTIONAL POTENTIAL (scf)
    LDA:                               Exchange only                           == Not Default ==
    Gradient Corrections:              Becke88 LYP                             == Not Default ==

 SPIN  (restricted / unrestr.)
    Molecule:                          Restricted                               
    Fragments:                         Restricted                               

 OTHER ASPECTS
    Relativistic Corrections:          scalar (ZORA,MAPA)                       

    Nuclear Charge Density Model:      Point Charge Nuclei                      
    Core Treatment:                    Frozen Orbital(s)                        

    Hyperfine or Zeeman Interaction:   ---                                      

 Settings for Grimme D3 dispersion correction

      damping                        BJ
      s6                          1.000
      s8                          2.700
      a1                          0.430
      a2                          4.236

 Other (technical) parameters

      alpha                      14.000
      version                         4
 


 Fragment File(s)
 ----------------
 C:
         file : /gpfs/home1/yeseo1ee/projects/eda-asm-prediction/ADF_800/adf_outputs/batch_007/qmrxn20_sn2_C_E_B_D_B_A/c2_fragB_ts.results/t21.50BA88D5.C
         jobid: 0
         title: Carbon (TZ2P)
 H:
         file : /gpfs/home1/yeseo1ee/projects/eda-asm-prediction/ADF_800/adf_outputs/batch_007/qmrxn20_sn2_C_E_B_D_B_A/c2_fragB_ts.results/t21.6F35CCAB.H
         jobid: 0
         title: Hydrogen (TZ2P)
 Cl:
         file : /gpfs/home1/yeseo1ee/projects/eda-asm-prediction/ADF_800/adf_outputs/batch_007/qmrxn20_sn2_C_E_B_D_B_A/c2_fragB_ts.results/t21.3FD35465.Cl
         jobid: 0
         title: Chlorine (TZ2P)
 N:
         file : /gpfs/home1/yeseo1ee/projects/eda-asm-prediction/ADF_800/adf_outputs/batch_007/qmrxn20_sn2_C_E_B_D_B_A/c2_fragB_ts.results/t21.44EAA48D.N
         jobid: 0
         title: Nitrogen (TZ2P)
 O:
         file : /gpfs/home1/yeseo1ee/projects/eda-asm-prediction/ADF_800/adf_outputs/batch_007/qmrxn20_sn2_C_E_B_D_B_A/c2_fragB_ts.results/t21.6E90ABAE.O
         jobid: 0
         title: Oxygen (TZ2P)



 ===============
 G E O M E T R Y  ***  3D  Molecule  ***
 ===============
  

 ATOMS
 =====                            X Y Z                    CHARGE
                                (Angstrom)             Nucl     +Core       At.Mass
                       --------------------------    ----------------       -------
    1  C               0.3690   -0.0995    0.0826      6.00      6.00       12.0000
    2  H               1.6458    1.5718    0.4692      1.00      1.00        1.0078
    3  Cl             -1.6520   -0.2123    0.3827     17.00     17.00       34.9689
    4  C               0.6307    1.4227    0.1145      6.00      6.00       12.0000
    5  C               0.4977   -0.7166   -1.2237      6.00      6.00       12.0000
    6  N               0.2434   -1.2897   -2.2306      7.00      7.00       14.0031
    7  N               0.8084   -0.8345    1.2459      7.00      7.00       14.0031
    8  H               1.7628   -1.1187    1.0672      1.00      1.00        1.0078
    9  H               0.2152   -1.6498    1.3445      1.00      1.00        1.0078
   10  N              -0.1907    2.1120    1.1845      7.00      7.00       14.0031
   11  O              -1.1052    2.8623    0.8453      8.00      8.00       15.9949
   12  O               0.1633    1.9275    2.3469      8.00      8.00       15.9949
   13  C               0.3931    2.0753   -1.2273      6.00      6.00       12.0000
   14  H               1.1008    1.6540   -1.9412      1.00      1.00        1.0078
   15  H              -0.6236    1.8819   -1.5691      1.00      1.00        1.0078
   16  H               0.5415    3.1544   -1.1592      1.00      1.00        1.0078


 FRAGMENTS
 =========                                     Atoms in this Fragment     Cart. coord.s (Angstrom)
                                               -------------------------------------------------------
    1  C                                                 1  C            0.3690   -0.0995    0.0826
    2  C                                                 4  C            0.6307    1.4227    0.1145
    3  C                                                 5  C            0.4977   -0.7166   -1.2237
    4  C                                                13  C            0.3931    2.0753   -1.2273
    5  H                                                 2  H            1.6458    1.5718    0.4692
    6  H                                                 8  H            1.7628   -1.1187    1.0672
    7  H                                                 9  H            0.2152   -1.6498    1.3445
    8  H                                                14  H            1.1008    1.6540   -1.9412
    9  H                                                15  H           -0.6236    1.8819   -1.5691
   10  H                                                16  H            0.5415    3.1544   -1.1592
   11  Cl                                                3  Cl          -1.6520   -0.2123    0.3827
   12  N                                                 6  N            0.2434   -1.2897   -2.2306
   13  N                                                 7  N            0.8084   -0.8345    1.2459
   14  N                                                10  N           -0.1907    2.1120    1.1845
   15  O                                                11  O           -1.1052    2.8623    0.8453
   16  O                                                12  O            0.1633    1.9275    2.3469


 Interatomic Distance Matrix (Angstrom)
 --------------------------------------

   1)     0.000
   2)     2.138   0.000
   3)     2.046   3.750   0.000
   4)     1.545   1.086   2.821   0.000
   5)     1.450   3.069   2.731   2.527   0.000
   6)     2.605   4.177   3.403   3.606   1.186   0.000
   7)     1.444   2.664   2.681   2.531   2.492   3.551   0.000
   8)     1.988   2.759   3.599   2.941   2.648   3.635   1.012   0.000
   9)     2.005   3.632   2.545   3.336   2.747   3.593   1.013   1.660   0.000
  10)     2.533   2.044   2.860   1.515   3.778   4.840   3.112   3.777   3.787   0.000
  11)     3.395   3.062   3.157   2.371   4.434   5.340   4.182   4.912   4.728   1.231
          0.000
  12)     3.046   2.419   3.425   2.336   4.456   5.596   3.043   3.671   3.715   1.229
          2.177   0.000
  13)     2.539   2.168   3.465   1.511   2.794   3.515   3.841   4.164   4.530   2.482
          2.676   3.585   0.000
  14)     2.776   2.473   4.057   2.121   2.549   3.080   4.054   4.145   4.743   3.413
          3.754   4.398   1.090   0.000
  15)     2.764   3.066   3.042   2.149   2.851   3.354   4.166   4.653   4.655   2.797
          2.650   3.995   1.090   1.779   0.000
  16)     3.487   2.525   4.304   2.152   3.872   4.581   4.665   4.971   5.427   2.668
          2.610   3.734   1.091   1.782   1.773   0.000

 Min. Distance =    1.0118
 Max. Distance =    5.5956



 =====================================
 S Y M M E T R Y ,   E L E C T R O N S
 =====================================
  
 Symmetry: NOSYM

 Irreducible Representations, including subspecies
 -------------------------------------------------
 A


 Configuration of Valence Electrons
 ==================================
 ( determined in the SCF procedure )

 Total:   84

 Net Charge: 0 (Nuclei minus Electrons)

 Aufbau principle for MO occupations will be applied through SCF cycle no.     100
 Thereafter, the program will assign electrons to MOs that are spatially
 similar to the occupied MOs in a "reference" cycle ("KeepOrbitals").
 The reference cycle is always the PREVIOUS cycle: it will evolve with
 the SCF procedure.
 ***************************************************************************************************



                                      ****************************************
                                      *  B U I L D : (Fragments, Functions)  *
                                      ****************************************
  



 =======
 S F O s  ***  (Symmetrized Fragment Orbitals)  ***
 =======
  
 SFOs are linear combinations of (valence) Fragment Orbitals (FOs), such that the SFOs transform as the
 irreducible representations of the (molecular) symmetry group. Each SFO is therefore characterized by
 an irrep of the molecule and by a few (or only one) generating FOs.
 The SFOs constitute a symmetry-adapted basis for the Fock matrix. The MO eigenvector coefficients in
 this basis provide a direct interpretation of the MOs in terms of Frontier Orbital Theory.

 The SFOs are combined with auxiliary Core Functions (CFs) to ensure orthogonalization on the (frozen)
 Core Orbitals (COs). The Core-orthogonalized SFOs (CSFOs) constitute the true Fock basis.

 The FOs, and hence also the (C)SFOs are combinations of the elementary basis functions (BAS). The basis
 functions that participate in the description of the SFOs depend on the irrep. The indices of the
 involved functions are printed below for each irrep.
 (The complete list of primitive basis functions is printed in another section)

 Total nr. of (C)SFOs (summation over all irreps) :   334

 NOTE: a (C)SFO that is defined as a combination of more than one FO is usually NOT normalized.



                                       === A ===
 Nr. of SFOs :  334
 Cartesian basis functions that participate in this irrep (total number =   380) :
      1     2     3     4     5     6     9    12     7    10
     13     8    11    14    15    16    17    18    19    20
     21    22    23    24    25    26    27    28    29    30
     31    32    33    34    35    36    39    42    37    40
     43    38    41    44    45    46    47    48    49    50
     51    52    53    54    55    56    57    58    59    60
     61    62    63    64    65    66    69    72    67    70
     73    68    71    74    75    76    77    78    79    80
     81    82    83    84    85    86    87    88    89    90
     91    92    93    94    95    96    99   102    97   100
    103    98   101   104   105   106   107   108   109   110
    111   112   113   114   115   116   117   118   119   120
    121   122   123   124   125   126   127   128   129   130
    131   132   133   134   135   136   137   138   139   140
    141   142   143   144   145   146   147   148   149   150
    151   152   153   154   155   156   157   158   159   160
    161   162   163   164   165   166   167   168   169   170
    171   172   173   174   175   176   177   178   179   180
    181   182   183   184   185   186   187   188   189   190
    191   192   193   194   195   196   203   204   205   197
    200   206   209   212   198   201   207   210   213   199
    202   208   211   214   215   216   217   218   219   220
    221   222   223   224   225   226   227   228   229   230
    231   232   233   234   235   236   239   242   237   240
    243   238   241   244   245   246   247   248   249   250
    251   252   253   254   255   256   257   258   259   260
    261   262   263   264   265   266   269   272   267   270
    273   268   271   274   275   276   277   278   279   280
    281   282   283   284   285   286   287   288   289   290
    291   292   293   294   295   296   299   302   297   300
    303   298   301   304   305   306   307   308   309   310
    311   312   313   314   315   316   317   318   319   320
    321   322   323   324   325   326   329   332   327   330
    333   328   331   334   335   336   337   338   339   340
    341   342   343   344   345   346   347   348   349   350
    351   352   353   354   355   356   359   362   357   360
    363   358   361   364   365   366   367   368   369   370
    371   372   373   374   375   376   377   378   379   380

    SFO  (index         Fragment          Generating    Expansion in Fragment Orbitals
  indx  incl.CFs)   Occup   Orb.Energy   FragmentType  Coeff.   Orbital     on Fragment
 --------------------------------------------------------------------------------------
     1       1      2.000     -10.066 au  C             1.00      1 S               1
                        (    -273.921 eV)
     2       2      2.000      -0.501 au  C             1.00      2 S               1
                        (     -13.620 eV)
     3       3       --         0.373 au  C             1.00      3 S               1
                        (      10.158 eV)
     4       4       --         5.405 au  C             1.00      4 S               1
                        (     147.073 eV)
     5       5       --        49.848 au  C             1.00      5 S               1
                        (    1356.422 eV)
     6       6      0.667      -0.193 au  C             1.00      1 P:x             1
                        (      -5.239 eV)
     7       7       --         0.169 au  C             1.00      2 P:x             1
                        (       4.589 eV)
     8       8       --         2.013 au  C             1.00      3 P:x             1
                        (      54.789 eV)
     9       9      0.667      -0.193 au  C             1.00      1 P:y             1
                        (      -5.239 eV)
    10      10       --         0.169 au  C             1.00      2 P:y             1
                        (       4.589 eV)
    11      11       --         2.013 au  C             1.00      3 P:y             1
                        (      54.789 eV)
    12      12      0.667      -0.193 au  C             1.00      1 P:z             1
                        (      -5.239 eV)
    13      13       --         0.169 au  C             1.00      2 P:z             1
                        (       4.589 eV)
    14      14       --         2.013 au  C             1.00      3 P:z             1
                        (      54.789 eV)
    15      15       --         1.243 au  C             1.00      1 D:z2            1
                        (      33.824 eV)
    16      16       --         1.243 au  C             1.00      1 D:x2-y2         1
                        (      33.824 eV)
    17      17       --         1.243 au  C             1.00      1 D:xy            1
                        (      33.824 eV)
    18      18       --         1.243 au  C             1.00      1 D:xz            1
                        (      33.824 eV)
    19      19       --         1.243 au  C             1.00      1 D:yz            1
                        (      33.824 eV)
    20      20       --         4.016 au  C             1.00      1 F:z3            1
                        (     109.271 eV)
    21      21       --         4.016 au  C             1.00      1 F:z             1
                        (     109.271 eV)
    22      22       --         4.016 au  C             1.00      1 F:xyz           1
                        (     109.271 eV)
    23      23       --         4.016 au  C             1.00      1 F:z2x           1
                        (     109.271 eV)
    24      24       --         4.016 au  C             1.00      1 F:z2y           1
                        (     109.271 eV)
    25      25       --         4.016 au  C             1.00      1 F:x             1
                        (     109.271 eV)
    26      26       --         4.016 au  C             1.00      1 F:y             1
                        (     109.271 eV)
    27      27      2.000     -10.066 au  C             1.00      1 S               2
                        (    -273.921 eV)
    28      28      2.000      -0.501 au  C             1.00      2 S               2
                        (     -13.620 eV)
    29      29       --         0.373 au  C             1.00      3 S               2
                        (      10.158 eV)
    30      30       --         5.405 au  C             1.00      4 S               2
                        (     147.073 eV)
    31      31       --        49.848 au  C             1.00      5 S               2
                        (    1356.422 eV)
    32      32      0.667      -0.193 au  C             1.00      1 P:x             2
                        (      -5.239 eV)
    33      33       --         0.169 au  C             1.00      2 P:x             2
                        (       4.589 eV)
    34      34       --         2.013 au  C             1.00      3 P:x             2
                        (      54.789 eV)
    35      35      0.667      -0.193 au  C             1.00      1 P:y             2
                        (      -5.239 eV)
    36      36       --         0.169 au  C             1.00      2 P:y             2
                        (       4.589 eV)
    37      37       --         2.013 au  C             1.00      3 P:y             2
                        (      54.789 eV)
    38      38      0.667      -0.193 au  C             1.00      1 P:z             2
                        (      -5.239 eV)
    39      39       --         0.169 au  C             1.00      2 P:z             2
                        (       4.589 eV)
    40      40       --         2.013 au  C             1.00      3 P:z             2
                        (      54.789 eV)
    41      41       --         1.243 au  C             1.00      1 D:z2            2
                        (      33.824 eV)
    42      42       --         1.243 au  C             1.00      1 D:x2-y2         2
                        (      33.824 eV)
    43      43       --         1.243 au  C             1.00      1 D:xy            2
                        (      33.824 eV)
    44      44       --         1.243 au  C             1.00      1 D:xz            2
                        (      33.824 eV)
    45      45       --         1.243 au  C             1.00      1 D:yz            2
                        (      33.824 eV)
    46      46       --         4.016 au  C             1.00      1 F:z3            2
                        (     109.271 eV)
    47      47       --         4.016 au  C             1.00      1 F:z             2
                        (     109.271 eV)
    48      48       --         4.016 au  C             1.00      1 F:xyz           2
                        (     109.271 eV)
    49      49       --         4.016 au  C             1.00      1 F:z2x           2
                        (     109.271 eV)
    50      50       --         4.016 au  C             1.00      1 F:z2y           2
                        (     109.271 eV)
    51      51       --         4.016 au  C             1.00      1 F:x             2
                        (     109.271 eV)
    52      52       --         4.016 au  C             1.00      1 F:y             2
                        (     109.271 eV)
    53      53      2.000     -10.066 au  C             1.00      1 S               3
                        (    -273.921 eV)
    54      54      2.000      -0.501 au  C             1.00      2 S               3
                        (     -13.620 eV)
    55      55       --         0.373 au  C             1.00      3 S               3
                        (      10.158 eV)
    56      56       --         5.405 au  C             1.00      4 S               3
                        (     147.073 eV)
    57      57       --        49.848 au  C             1.00      5 S               3
                        (    1356.422 eV)
    58      58      0.667      -0.193 au  C             1.00      1 P:x             3
                        (      -5.239 eV)
    59      59       --         0.169 au  C             1.00      2 P:x             3
                        (       4.589 eV)
    60      60       --         2.013 au  C             1.00      3 P:x             3
                        (      54.789 eV)
    61      61      0.667      -0.193 au  C             1.00      1 P:y             3
                        (      -5.239 eV)
    62      62       --         0.169 au  C             1.00      2 P:y             3
                        (       4.589 eV)
    63      63       --         2.013 au  C             1.00      3 P:y             3
                        (      54.789 eV)
    64      64      0.667      -0.193 au  C             1.00      1 P:z             3
                        (      -5.239 eV)
    65      65       --         0.169 au  C             1.00      2 P:z             3
                        (       4.589 eV)
    66      66       --         2.013 au  C             1.00      3 P:z             3
                        (      54.789 eV)
    67      67       --         1.243 au  C             1.00      1 D:z2            3
                        (      33.824 eV)
    68      68       --         1.243 au  C             1.00      1 D:x2-y2         3
                        (      33.824 eV)
    69      69       --         1.243 au  C             1.00      1 D:xy            3
                        (      33.824 eV)
    70      70       --         1.243 au  C             1.00      1 D:xz            3
                        (      33.824 eV)
    71      71       --         1.243 au  C             1.00      1 D:yz            3
                        (      33.824 eV)
    72      72       --         4.016 au  C             1.00      1 F:z3            3
                        (     109.271 eV)
    73      73       --         4.016 au  C             1.00      1 F:z             3
                        (     109.271 eV)
    74      74       --         4.016 au  C             1.00      1 F:xyz           3
                        (     109.271 eV)
    75      75       --         4.016 au  C             1.00      1 F:z2x           3
                        (     109.271 eV)
    76      76       --         4.016 au  C             1.00      1 F:z2y           3
                        (     109.271 eV)
    77      77       --         4.016 au  C             1.00      1 F:x             3
                        (     109.271 eV)
    78      78       --         4.016 au  C             1.00      1 F:y             3
                        (     109.271 eV)
    79      79      2.000     -10.066 au  C             1.00      1 S               4
                        (    -273.921 eV)
    80      80      2.000      -0.501 au  C             1.00      2 S               4
                        (     -13.620 eV)
    81      81       --         0.373 au  C             1.00      3 S               4
                        (      10.158 eV)
    82      82       --         5.405 au  C             1.00      4 S               4
                        (     147.073 eV)
    83      83       --        49.848 au  C             1.00      5 S               4
                        (    1356.422 eV)
    84      84      0.667      -0.193 au  C             1.00      1 P:x             4
                        (      -5.239 eV)
    85      85       --         0.169 au  C             1.00      2 P:x             4
                        (       4.589 eV)
    86      86       --         2.013 au  C             1.00      3 P:x             4
                        (      54.789 eV)
    87      87      0.667      -0.193 au  C             1.00      1 P:y             4
                        (      -5.239 eV)
    88      88       --         0.169 au  C             1.00      2 P:y             4
                        (       4.589 eV)
    89      89       --         2.013 au  C             1.00      3 P:y             4
                        (      54.789 eV)
    90      90      0.667      -0.193 au  C             1.00      1 P:z             4
                        (      -5.239 eV)
    91      91       --         0.169 au  C             1.00      2 P:z             4
                        (       4.589 eV)
    92      92       --         2.013 au  C             1.00      3 P:z             4
                        (      54.789 eV)
    93      93       --         1.243 au  C             1.00      1 D:z2            4
                        (      33.824 eV)
    94      94       --         1.243 au  C             1.00      1 D:x2-y2         4
                        (      33.824 eV)
    95      95       --         1.243 au  C             1.00      1 D:xy            4
                        (      33.824 eV)
    96      96       --         1.243 au  C             1.00      1 D:xz            4
                        (      33.824 eV)
    97      97       --         1.243 au  C             1.00      1 D:yz            4
                        (      33.824 eV)
    98      98       --         4.016 au  C             1.00      1 F:z3            4
                        (     109.271 eV)
    99      99       --         4.016 au  C             1.00      1 F:z             4
                        (     109.271 eV)
   100     100       --         4.016 au  C             1.00      1 F:xyz           4
                        (     109.271 eV)
   101     101       --         4.016 au  C             1.00      1 F:z2x           4
                        (     109.271 eV)
   102     102       --         4.016 au  C             1.00      1 F:z2y           4
                        (     109.271 eV)
   103     103       --         4.016 au  C             1.00      1 F:x             4
                        (     109.271 eV)
   104     104       --         4.016 au  C             1.00      1 F:y             4
                        (     109.271 eV)
   105     105      1.000      -0.240 au  H             1.00      1 S               5
                        (      -6.532 eV)
   106     106       --         0.088 au  H             1.00      2 S               5
                        (       2.394 eV)
   107     107       --         1.502 au  H             1.00      3 S               5
                        (      40.869 eV)
   108     108       --         0.406 au  H             1.00      1 P:x             5
                        (      11.051 eV)
   109     109       --         0.406 au  H             1.00      1 P:y             5
                        (      11.051 eV)
   110     110       --         0.406 au  H             1.00      1 P:z             5
                        (      11.051 eV)
   111     111       --         2.569 au  H             1.00      1 D:z2            5
                        (      69.917 eV)
   112     112       --         2.569 au  H             1.00      1 D:x2-y2         5
                        (      69.917 eV)
   113     113       --         2.569 au  H             1.00      1 D:xy            5
                        (      69.917 eV)
   114     114       --         2.569 au  H             1.00      1 D:xz            5
                        (      69.917 eV)
   115     115       --         2.569 au  H             1.00      1 D:yz            5
                        (      69.917 eV)
   116     116      1.000      -0.240 au  H             1.00      1 S               6
                        (      -6.532 eV)
   117     117       --         0.088 au  H             1.00      2 S               6
                        (       2.394 eV)
   118     118       --         1.502 au  H             1.00      3 S               6
                        (      40.869 eV)
   119     119       --         0.406 au  H             1.00      1 P:x             6
                        (      11.051 eV)
   120     120       --         0.406 au  H             1.00      1 P:y             6
                        (      11.051 eV)
   121     121       --         0.406 au  H             1.00      1 P:z             6
                        (      11.051 eV)
   122     122       --         2.569 au  H             1.00      1 D:z2            6
                        (      69.917 eV)
   123     123       --         2.569 au  H             1.00      1 D:x2-y2         6
                        (      69.917 eV)
   124     124       --         2.569 au  H             1.00      1 D:xy            6
                        (      69.917 eV)
   125     125       --         2.569 au  H             1.00      1 D:xz            6
                        (      69.917 eV)
   126     126       --         2.569 au  H             1.00      1 D:yz            6
                        (      69.917 eV)
   127     127      1.000      -0.240 au  H             1.00      1 S               7
                        (      -6.532 eV)
   128     128       --         0.088 au  H             1.00      2 S               7
                        (       2.394 eV)
   129     129       --         1.502 au  H             1.00      3 S               7
                        (      40.869 eV)
   130     130       --         0.406 au  H             1.00      1 P:x             7
                        (      11.051 eV)
   131     131       --         0.406 au  H             1.00      1 P:y             7
                        (      11.051 eV)
   132     132       --         0.406 au  H             1.00      1 P:z             7
                        (      11.051 eV)
   133     133       --         2.569 au  H             1.00      1 D:z2            7
                        (      69.917 eV)
   134     134       --         2.569 au  H             1.00      1 D:x2-y2         7
                        (      69.917 eV)
   135     135       --         2.569 au  H             1.00      1 D:xy            7
                        (      69.917 eV)
   136     136       --         2.569 au  H             1.00      1 D:xz            7
                        (      69.917 eV)
   137     137       --         2.569 au  H             1.00      1 D:yz            7
                        (      69.917 eV)
   138     138      1.000      -0.240 au  H             1.00      1 S               8
                        (      -6.532 eV)
   139     139       --         0.088 au  H             1.00      2 S               8
                        (       2.394 eV)
   140     140       --         1.502 au  H             1.00      3 S               8
                        (      40.869 eV)
   141     141       --         0.406 au  H             1.00      1 P:x             8
                        (      11.051 eV)
   142     142       --         0.406 au  H             1.00      1 P:y             8
                        (      11.051 eV)
   143     143       --         0.406 au  H             1.00      1 P:z             8
                        (      11.051 eV)
   144     144       --         2.569 au  H             1.00      1 D:z2            8
                        (      69.917 eV)
   145     145       --         2.569 au  H             1.00      1 D:x2-y2         8
                        (      69.917 eV)
   146     146       --         2.569 au  H             1.00      1 D:xy            8
                        (      69.917 eV)
   147     147       --         2.569 au  H             1.00      1 D:xz            8
                        (      69.917 eV)
   148     148       --         2.569 au  H             1.00      1 D:yz            8
                        (      69.917 eV)
   149     149      1.000      -0.240 au  H             1.00      1 S               9
                        (      -6.532 eV)
   150     150       --         0.088 au  H             1.00      2 S               9
                        (       2.394 eV)
   151     151       --         1.502 au  H             1.00      3 S               9
                        (      40.869 eV)
   152     152       --         0.406 au  H             1.00      1 P:x             9
                        (      11.051 eV)
   153     153       --         0.406 au  H             1.00      1 P:y             9
                        (      11.051 eV)
   154     154       --         0.406 au  H             1.00      1 P:z             9
                        (      11.051 eV)
   155     155       --         2.569 au  H             1.00      1 D:z2            9
                        (      69.917 eV)
   156     156       --         2.569 au  H             1.00      1 D:x2-y2         9
                        (      69.917 eV)
   157     157       --         2.569 au  H             1.00      1 D:xy            9
                        (      69.917 eV)
   158     158       --         2.569 au  H             1.00      1 D:xz            9
                        (      69.917 eV)
   159     159       --         2.569 au  H             1.00      1 D:yz            9
                        (      69.917 eV)
   160     160      1.000      -0.240 au  H             1.00      1 S              10
                        (      -6.532 eV)
   161     161       --         0.088 au  H             1.00      2 S              10
                        (       2.394 eV)
   162     162       --         1.502 au  H             1.00      3 S              10
                        (      40.869 eV)
   163     163       --         0.406 au  H             1.00      1 P:x            10
                        (      11.051 eV)
   164     164       --         0.406 au  H             1.00      1 P:y            10
                        (      11.051 eV)
   165     165       --         0.406 au  H             1.00      1 P:z            10
                        (      11.051 eV)
   166     166       --         2.569 au  H             1.00      1 D:z2           10
                        (      69.917 eV)
   167     167       --         2.569 au  H             1.00      1 D:x2-y2        10
                        (      69.917 eV)
   168     168       --         2.569 au  H             1.00      1 D:xy           10
                        (      69.917 eV)
   169     169       --         2.569 au  H             1.00      1 D:xz           10
                        (      69.917 eV)
   170     170       --         2.569 au  H             1.00      1 D:yz           10
                        (      69.917 eV)
   171     171      2.000    -101.116 au  Cl            1.00      1 S              11
                        (   -2751.516 eV)
   172     172      2.000      -9.276 au  Cl            1.00      2 S              11
                        (    -252.419 eV)
   173     173      2.000      -0.754 au  Cl            1.00      3 S              11
                        (     -20.523 eV)
   174     174       --         0.194 au  Cl            1.00      4 S              11
                        (       5.292 eV)
   175     175       --         1.998 au  Cl            1.00      5 S              11
                        (      54.377 eV)
   176     176       --        12.618 au  Cl            1.00      6 S              11
                        (     343.355 eV)
   177     177       --       205.328 au  Cl            1.00      7 S              11
                        (    5587.258 eV)
   178     178      2.000      -7.038 au  Cl            1.00      1 P:x            11
                        (    -191.503 eV)
   179     179      1.667      -0.310 au  Cl            1.00      2 P:x            11
                        (      -8.439 eV)
   180     180       --         0.226 au  Cl            1.00      3 P:x            11
                        (       6.147 eV)
   181     181       --         2.102 au  Cl            1.00      4 P:x            11
                        (      57.194 eV)
   182     182       --        18.665 au  Cl            1.00      5 P:x            11
                        (     507.904 eV)
   183     183      2.000      -7.038 au  Cl            1.00      1 P:y            11
                        (    -191.503 eV)
   184     184      1.667      -0.310 au  Cl            1.00      2 P:y            11
                        (      -8.439 eV)
   185     185       --         0.226 au  Cl            1.00      3 P:y            11
                        (       6.147 eV)
   186     186       --         2.102 au  Cl            1.00      4 P:y            11
                        (      57.194 eV)
   187     187       --        18.665 au  Cl            1.00      5 P:y            11
                        (     507.904 eV)
   188     188      2.000      -7.038 au  Cl            1.00      1 P:z            11
                        (    -191.503 eV)
   189     189      1.667      -0.310 au  Cl            1.00      2 P:z            11
                        (      -8.439 eV)
   190     190       --         0.226 au  Cl            1.00      3 P:z            11
                        (       6.147 eV)
   191     191       --         2.102 au  Cl            1.00      4 P:z            11
                        (      57.194 eV)
   192     192       --        18.665 au  Cl            1.00      5 P:z            11
                        (     507.904 eV)
   193     193       --         0.388 au  Cl            1.00      1 D:z2           11
                        (      10.568 eV)
   194     194       --         0.388 au  Cl            1.00      1 D:x2-y2        11
                        (      10.568 eV)
   195     195       --         0.388 au  Cl            1.00      1 D:xy           11
                        (      10.568 eV)
   196     196       --         0.388 au  Cl            1.00      1 D:xz           11
                        (      10.568 eV)
   197     197       --         0.388 au  Cl            1.00      1 D:yz           11
                        (      10.568 eV)
   198     198       --         1.191 au  Cl            1.00      1 F:z3           11
                        (      32.399 eV)
   199     199       --         1.191 au  Cl            1.00      1 F:z            11
                        (      32.399 eV)
   200     200       --         1.191 au  Cl            1.00      1 F:xyz          11
                        (      32.399 eV)
   201     201       --         1.191 au  Cl            1.00      1 F:z2x          11
                        (      32.399 eV)
   202     202       --         1.191 au  Cl            1.00      1 F:z2y          11
                        (      32.399 eV)
   203     203       --         1.191 au  Cl            1.00      1 F:x            11
                        (      32.399 eV)
   204     204       --         1.191 au  Cl            1.00      1 F:y            11
                        (      32.399 eV)
   205     205      2.000     -14.160 au  N             1.00      1 S              12
                        (    -385.319 eV)
   206     206      2.000      -0.678 au  N             1.00      2 S              12
                        (     -18.450 eV)
   207     207       --         0.517 au  N             1.00      3 S              12
                        (      14.073 eV)
   208     208       --         6.872 au  N             1.00      4 S              12
                        (     186.990 eV)
   209     209       --        63.432 au  N             1.00      5 S              12
                        (    1726.082 eV)
   210     210      1.000      -0.260 au  N             1.00      1 P:x            12
                        (      -7.062 eV)
   211     211       --         0.281 au  N             1.00      2 P:x            12
                        (       7.649 eV)
   212     212       --         3.275 au  N             1.00      3 P:x            12
                        (      89.105 eV)
   213     213      1.000      -0.260 au  N             1.00      1 P:y            12
                        (      -7.062 eV)
   214     214       --         0.281 au  N             1.00      2 P:y            12
                        (       7.649 eV)
   215     215       --         3.275 au  N             1.00      3 P:y            12
                        (      89.105 eV)
   216     216      1.000      -0.260 au  N             1.00      1 P:z            12
                        (      -7.062 eV)
   217     217       --         0.281 au  N             1.00      2 P:z            12
                        (       7.649 eV)
   218     218       --         3.275 au  N             1.00      3 P:z            12
                        (      89.105 eV)
   219     219       --         1.250 au  N             1.00      1 D:z2           12
                        (      34.005 eV)
   220     220       --         1.250 au  N             1.00      1 D:x2-y2        12
                        (      34.005 eV)
   221     221       --         1.250 au  N             1.00      1 D:xy           12
                        (      34.005 eV)
   222     222       --         1.250 au  N             1.00      1 D:xz           12
                        (      34.005 eV)
   223     223       --         1.250 au  N             1.00      1 D:yz           12
                        (      34.005 eV)
   224     224       --         4.013 au  N             1.00      1 F:z3           12
                        (     109.190 eV)
   225     225       --         4.013 au  N             1.00      1 F:z            12
                        (     109.190 eV)
   226     226       --         4.013 au  N             1.00      1 F:xyz          12
                        (     109.190 eV)
   227     227       --         4.013 au  N             1.00      1 F:z2x          12
                        (     109.190 eV)
   228     228       --         4.013 au  N             1.00      1 F:z2y          12
                        (     109.190 eV)
   229     229       --         4.013 au  N             1.00      1 F:x            12
                        (     109.190 eV)
   230     230       --         4.013 au  N             1.00      1 F:y            12
                        (     109.190 eV)
   231     231      2.000     -14.160 au  N             1.00      1 S              13
                        (    -385.319 eV)
   232     232      2.000      -0.678 au  N             1.00      2 S              13
                        (     -18.450 eV)
   233     233       --         0.517 au  N             1.00      3 S              13
                        (      14.073 eV)
   234     234       --         6.872 au  N             1.00      4 S              13
                        (     186.990 eV)
   235     235       --        63.432 au  N             1.00      5 S              13
                        (    1726.082 eV)
   236     236      1.000      -0.260 au  N             1.00      1 P:x            13
                        (      -7.062 eV)
   237     237       --         0.281 au  N             1.00      2 P:x            13
                        (       7.649 eV)
   238     238       --         3.275 au  N             1.00      3 P:x            13
                        (      89.105 eV)
   239     239      1.000      -0.260 au  N             1.00      1 P:y            13
                        (      -7.062 eV)
   240     240       --         0.281 au  N             1.00      2 P:y            13
                        (       7.649 eV)
   241     241       --         3.275 au  N             1.00      3 P:y            13
                        (      89.105 eV)
   242     242      1.000      -0.260 au  N             1.00      1 P:z            13
                        (      -7.062 eV)
   243     243       --         0.281 au  N             1.00      2 P:z            13
                        (       7.649 eV)
   244     244       --         3.275 au  N             1.00      3 P:z            13
                        (      89.105 eV)
   245     245       --         1.250 au  N             1.00      1 D:z2           13
                        (      34.005 eV)
   246     246       --         1.250 au  N             1.00      1 D:x2-y2        13
                        (      34.005 eV)
   247     247       --         1.250 au  N             1.00      1 D:xy           13
                        (      34.005 eV)
   248     248       --         1.250 au  N             1.00      1 D:xz           13
                        (      34.005 eV)
   249     249       --         1.250 au  N             1.00      1 D:yz           13
                        (      34.005 eV)
   250     250       --         4.013 au  N             1.00      1 F:z3           13
                        (     109.190 eV)
   251     251       --         4.013 au  N             1.00      1 F:z            13
                        (     109.190 eV)
   252     252       --         4.013 au  N             1.00      1 F:xyz          13
                        (     109.190 eV)
   253     253       --         4.013 au  N             1.00      1 F:z2x          13
                        (     109.190 eV)
   254     254       --         4.013 au  N             1.00      1 F:z2y          13
                        (     109.190 eV)
   255     255       --         4.013 au  N             1.00      1 F:x            13
                        (     109.190 eV)
   256     256       --         4.013 au  N             1.00      1 F:y            13
                        (     109.190 eV)
   257     257      2.000     -14.160 au  N             1.00      1 S              14
                        (    -385.319 eV)
   258     258      2.000      -0.678 au  N             1.00      2 S              14
                        (     -18.450 eV)
   259     259       --         0.517 au  N             1.00      3 S              14
                        (      14.073 eV)
   260     260       --         6.872 au  N             1.00      4 S              14
                        (     186.990 eV)
   261     261       --        63.432 au  N             1.00      5 S              14
                        (    1726.082 eV)
   262     262      1.000      -0.260 au  N             1.00      1 P:x            14
                        (      -7.062 eV)
   263     263       --         0.281 au  N             1.00      2 P:x            14
                        (       7.649 eV)
   264     264       --         3.275 au  N             1.00      3 P:x            14
                        (      89.105 eV)
   265     265      1.000      -0.260 au  N             1.00      1 P:y            14
                        (      -7.062 eV)
   266     266       --         0.281 au  N             1.00      2 P:y            14
                        (       7.649 eV)
   267     267       --         3.275 au  N             1.00      3 P:y            14
                        (      89.105 eV)
   268     268      1.000      -0.260 au  N             1.00      1 P:z            14
                        (      -7.062 eV)
   269     269       --         0.281 au  N             1.00      2 P:z            14
                        (       7.649 eV)
   270     270       --         3.275 au  N             1.00      3 P:z            14
                        (      89.105 eV)
   271     271       --         1.250 au  N             1.00      1 D:z2           14
                        (      34.005 eV)
   272     272       --         1.250 au  N             1.00      1 D:x2-y2        14
                        (      34.005 eV)
   273     273       --         1.250 au  N             1.00      1 D:xy           14
                        (      34.005 eV)
   274     274       --         1.250 au  N             1.00      1 D:xz           14
                        (      34.005 eV)
   275     275       --         1.250 au  N             1.00      1 D:yz           14
                        (      34.005 eV)
   276     276       --         4.013 au  N             1.00      1 F:z3           14
                        (     109.190 eV)
   277     277       --         4.013 au  N             1.00      1 F:z            14
                        (     109.190 eV)
   278     278       --         4.013 au  N             1.00      1 F:xyz          14
                        (     109.190 eV)
   279     279       --         4.013 au  N             1.00      1 F:z2x          14
                        (     109.190 eV)
   280     280       --         4.013 au  N             1.00      1 F:z2y          14
                        (     109.190 eV)
   281     281       --         4.013 au  N             1.00      1 F:x            14
                        (     109.190 eV)
   282     282       --         4.013 au  N             1.00      1 F:y            14
                        (     109.190 eV)
   283     283      2.000     -18.941 au  O             1.00      1 S              15
                        (    -515.403 eV)
   284     284      2.000      -0.876 au  O             1.00      2 S              15
                        (     -23.838 eV)
   285     285       --         0.791 au  O             1.00      3 S              15
                        (      21.524 eV)
   286     286       --        13.422 au  O             1.00      4 S              15
                        (     365.226 eV)
   287     287       --       121.561 au  O             1.00      5 S              15
                        (    3307.838 eV)
   288     288      1.333      -0.331 au  O             1.00      1 P:x            15
                        (      -9.020 eV)
   289     289       --         0.347 au  O             1.00      2 P:x            15
                        (       9.437 eV)
   290     290       --         3.820 au  O             1.00      3 P:x            15
                        (     103.939 eV)
   291     291      1.333      -0.331 au  O             1.00      1 P:y            15
                        (      -9.020 eV)
   292     292       --         0.347 au  O             1.00      2 P:y            15
                        (       9.437 eV)
   293     293       --         3.820 au  O             1.00      3 P:y            15
                        (     103.939 eV)
   294     294      1.333      -0.331 au  O             1.00      1 P:z            15
                        (      -9.020 eV)
   295     295       --         0.347 au  O             1.00      2 P:z            15
                        (       9.437 eV)
   296     296       --         3.820 au  O             1.00      3 P:z            15
                        (     103.939 eV)
   297     297       --         1.071 au  O             1.00      1 D:z2           15
                        (      29.134 eV)
   298     298       --         1.071 au  O             1.00      1 D:x2-y2        15
                        (      29.134 eV)
   299     299       --         1.071 au  O             1.00      1 D:xy           15
                        (      29.134 eV)
   300     300       --         1.071 au  O             1.00      1 D:xz           15
                        (      29.134 eV)
   301     301       --         1.071 au  O             1.00      1 D:yz           15
                        (      29.134 eV)
   302     302       --         3.359 au  O             1.00      1 F:z3           15
                        (      91.410 eV)
   303     303       --         3.359 au  O             1.00      1 F:z            15
                        (      91.410 eV)
   304     304       --         3.359 au  O             1.00      1 F:xyz          15
                        (      91.410 eV)
   305     305       --         3.359 au  O             1.00      1 F:z2x          15
                        (      91.410 eV)
   306     306       --         3.359 au  O             1.00      1 F:z2y          15
                        (      91.410 eV)
   307     307       --         3.359 au  O             1.00      1 F:x            15
                        (      91.410 eV)
   308     308       --         3.359 au  O             1.00      1 F:y            15
                        (      91.410 eV)
   309     309      2.000     -18.941 au  O             1.00      1 S              16
                        (    -515.403 eV)
   310     310      2.000      -0.876 au  O             1.00      2 S              16
                        (     -23.838 eV)
   311     311       --         0.791 au  O             1.00      3 S              16
                        (      21.524 eV)
   312     312       --        13.422 au  O             1.00      4 S              16
                        (     365.226 eV)
   313     313       --       121.561 au  O             1.00      5 S              16
                        (    3307.838 eV)
   314     314      1.333      -0.331 au  O             1.00      1 P:x            16
                        (      -9.020 eV)
   315     315       --         0.347 au  O             1.00      2 P:x            16
                        (       9.437 eV)
   316     316       --         3.820 au  O             1.00      3 P:x            16
                        (     103.939 eV)
   317     317      1.333      -0.331 au  O             1.00      1 P:y            16
                        (      -9.020 eV)
   318     318       --         0.347 au  O             1.00      2 P:y            16
                        (       9.437 eV)
   319     319       --         3.820 au  O             1.00      3 P:y            16
                        (     103.939 eV)
   320     320      1.333      -0.331 au  O             1.00      1 P:z            16
                        (      -9.020 eV)
   321     321       --         0.347 au  O             1.00      2 P:z            16
                        (       9.437 eV)
   322     322       --         3.820 au  O             1.00      3 P:z            16
                        (     103.939 eV)
   323     323       --         1.071 au  O             1.00      1 D:z2           16
                        (      29.134 eV)
   324     324       --         1.071 au  O             1.00      1 D:x2-y2        16
                        (      29.134 eV)
   325     325       --         1.071 au  O             1.00      1 D:xy           16
                        (      29.134 eV)
   326     326       --         1.071 au  O             1.00      1 D:xz           16
                        (      29.134 eV)
   327     327       --         1.071 au  O             1.00      1 D:yz           16
                        (      29.134 eV)
   328     328       --         3.359 au  O             1.00      1 F:z3           16
                        (      91.410 eV)
   329     329       --         3.359 au  O             1.00      1 F:z            16
                        (      91.410 eV)
   330     330       --         3.359 au  O             1.00      1 F:xyz          16
                        (      91.410 eV)
   331     331       --         3.359 au  O             1.00      1 F:z2x          16
                        (      91.410 eV)
   332     332       --         3.359 au  O             1.00      1 F:z2y          16
                        (      91.410 eV)
   333     333       --         3.359 au  O             1.00      1 F:x            16
                        (      91.410 eV)
   334     334       --         3.359 au  O             1.00      1 F:y            16
                        (      91.410 eV)



 ================================
 (Slater-type)  F U N C T I O N S  ***  (Basis and Fit)  ***
 ================================
  

 Atom Type    1  (C)
 ==============

 Valence Basis Sets:  10
 -----------------------
   1 S    7.680000
   1 S    5.000000
   2 S    1.280000
   2 S    2.100000
   2 S    4.600000
   2 P    0.820000
   2 P    1.480000
   2 P    2.940000
   3 D    2.200000
   4 F    3.300000

 Atom Type    2  (H)
 ==============

 Valence Basis Sets:   5
 -----------------------
   1 S    0.690000
   1 S    0.920000
   1 S    1.580000
   2 P    1.250000
   3 D    2.500000

 Atom Type    3  (Cl)
 ==============

 Valence Basis Sets:  14
 -----------------------
   1 S   20.300000
   1 S   15.250000
   2 S    6.250000
   2 S    4.450000
   2 P    8.850000
   2 P    5.050000
   3 S    3.450000
   3 S    2.300000
   3 S    1.600000
   3 P    3.350000
   3 P    2.050000
   3 P    1.200000
   3 D    2.000000
   4 F    2.000000

 Atom Type    4  (N)
 ==============

 Valence Basis Sets:  10
 -----------------------
   1 S    8.740000
   1 S    5.900000
   2 S    5.150000
   2 S    2.500000
   2 S    1.500000
   2 P    3.680000
   2 P    1.880000
   2 P    1.000000
   3 D    2.200000
   4 F    3.300000

 Atom Type    5  (O)
 ==============

 Valence Basis Sets:  10
 -----------------------
   1 S    9.800000
   1 S    6.800000
   2 S    7.580000
   2 S    2.880000
   2 S    1.720000
   2 P    4.080000
   2 P    2.080000
   2 P    1.120000
   3 D    2.000000
   4 F    3.000000


 BAS: List of all Elementary Cartesian Basis Functions
 =====================================================

 The numbering in the list below (to the right of the function characteristics) is referred
 to in print-outs of MO eigenvectors and Mulliken populations in the BAS representation
 (as contrasted to the SFO representation).

 Notes:
 1. The functions are characterized by a polynomial prefactor (powers of x,y,z and r) and
    an exponential decay factor alpha.
 2. Since the basis sets are specific for an atom TYPE, the individual functions occur on
    all atoms of that type.
 3. The word 'Core' in the left margin signals that it is a Core Function (CF) : not a
    degree of freedom in the valence set, but only used to ensure orthogonalization of
    the other valence basis functions on the frozen Core Orbitals.


 (power of) X  Y  Z  R     Alpha  on Atom
            ==========     =====     ==========

 C                                    1    2    3    4
                                  ---------------------------------------------------------------------------
            0  0  0  0     7.680      1   31   61   91
            0  0  0  0     5.000      2   32   62   92
            0  0  0  1     1.280      3   33   63   93
            0  0  0  1     2.100      4   34   64   94
            0  0  0  1     4.600      5   35   65   95
            1  0  0  0     0.820      6   36   66   96
            0  1  0  0     0.820      7   37   67   97
            0  0  1  0     0.820      8   38   68   98
            1  0  0  0     1.480      9   39   69   99
            0  1  0  0     1.480     10   40   70  100
            0  0  1  0     1.480     11   41   71  101
            1  0  0  0     2.940     12   42   72  102
            0  1  0  0     2.940     13   43   73  103
            0  0  1  0     2.940     14   44   74  104
            2  0  0  0     2.200     15   45   75  105
            1  1  0  0     2.200     16   46   76  106
            1  0  1  0     2.200     17   47   77  107
            0  2  0  0     2.200     18   48   78  108
            0  1  1  0     2.200     19   49   79  109
            0  0  2  0     2.200     20   50   80  110
            3  0  0  0     3.300     21   51   81  111
            2  1  0  0     3.300     22   52   82  112
            2  0  1  0     3.300     23   53   83  113
            1  2  0  0     3.300     24   54   84  114
            1  1  1  0     3.300     25   55   85  115
            1  0  2  0     3.300     26   56   86  116
            0  3  0  0     3.300     27   57   87  117
            0  2  1  0     3.300     28   58   88  118
            0  1  2  0     3.300     29   59   89  119
            0  0  3  0     3.300     30   60   90  120

 H                                    5    6    7    8    9   10
                                  ---------------------------------------------------------------------------
            0  0  0  0     0.690    121  133  145  157  169  181
            0  0  0  0     0.920    122  134  146  158  170  182
            0  0  0  0     1.580    123  135  147  159  171  183
            1  0  0  0     1.250    124  136  148  160  172  184
            0  1  0  0     1.250    125  137  149  161  173  185
            0  0  1  0     1.250    126  138  150  162  174  186
            2  0  0  0     2.500    127  139  151  163  175  187
            1  1  0  0     2.500    128  140  152  164  176  188
            1  0  1  0     2.500    129  141  153  165  177  189
            0  2  0  0     2.500    130  142  154  166  178  190
            0  1  1  0     2.500    131  143  155  167  179  191
            0  0  2  0     2.500    132  144  156  168  180  192

 Cl                                  11
                                  ---------------------------------------------------------------------------
            0  0  0  0    20.300    193
            0  0  0  0    15.250    194
            0  0  0  1     6.250    195
            0  0  0  1     4.450    196
            1  0  0  0     8.850    197
            0  1  0  0     8.850    198
            0  0  1  0     8.850    199
            1  0  0  0     5.050    200
            0  1  0  0     5.050    201
            0  0  1  0     5.050    202
            0  0  0  2     3.450    203
            0  0  0  2     2.300    204
            0  0  0  2     1.600    205
            1  0  0  1     3.350    206
            0  1  0  1     3.350    207
            0  0  1  1     3.350    208
            1  0  0  1     2.050    209
            0  1  0  1     2.050    210
            0  0  1  1     2.050    211
            1  0  0  1     1.200    212
            0  1  0  1     1.200    213
            0  0  1  1     1.200    214
            2  0  0  0     2.000    215
            1  1  0  0     2.000    216
            1  0  1  0     2.000    217
            0  2  0  0     2.000    218
            0  1  1  0     2.000    219
            0  0  2  0     2.000    220
            3  0  0  0     2.000    221
            2  1  0  0     2.000    222
            2  0  1  0     2.000    223
            1  2  0  0     2.000    224
            1  1  1  0     2.000    225
            1  0  2  0     2.000    226
            0  3  0  0     2.000    227
            0  2  1  0     2.000    228
            0  1  2  0     2.000    229
            0  0  3  0     2.000    230

 N                                   12   13   14
                                  ---------------------------------------------------------------------------
            0  0  0  0     8.740    231  261  291
            0  0  0  0     5.900    232  262  292
            0  0  0  1     5.150    233  263  293
            0  0  0  1     2.500    234  264  294
            0  0  0  1     1.500    235  265  295
            1  0  0  0     3.680    236  266  296
            0  1  0  0     3.680    237  267  297
            0  0  1  0     3.680    238  268  298
            1  0  0  0     1.880    239  269  299
            0  1  0  0     1.880    240  270  300
            0  0  1  0     1.880    241  271  301
            1  0  0  0     1.000    242  272  302
            0  1  0  0     1.000    243  273  303
            0  0  1  0     1.000    244  274  304
            2  0  0  0     2.200    245  275  305
            1  1  0  0     2.200    246  276  306
            1  0  1  0     2.200    247  277  307
            0  2  0  0     2.200    248  278  308
            0  1  1  0     2.200    249  279  309
            0  0  2  0     2.200    250  280  310
            3  0  0  0     3.300    251  281  311
            2  1  0  0     3.300    252  282  312
            2  0  1  0     3.300    253  283  313
            1  2  0  0     3.300    254  284  314
            1  1  1  0     3.300    255  285  315
            1  0  2  0     3.300    256  286  316
            0  3  0  0     3.300    257  287  317
            0  2  1  0     3.300    258  288  318
            0  1  2  0     3.300    259  289  319
            0  0  3  0     3.300    260  290  320

 O                                   15   16
                                  ---------------------------------------------------------------------------
            0  0  0  0     9.800    321  351
            0  0  0  0     6.800    322  352
            0  0  0  1     7.580    323  353
            0  0  0  1     2.880    324  354
            0  0  0  1     1.720    325  355
            1  0  0  0     4.080    326  356
            0  1  0  0     4.080    327  357
            0  0  1  0     4.080    328  358
            1  0  0  0     2.080    329  359
            0  1  0  0     2.080    330  360
            0  0  1  0     2.080    331  361
            1  0  0  0     1.120    332  362
            0  1  0  0     1.120    333  363
            0  0  1  0     1.120    334  364
            2  0  0  0     2.000    335  365
            1  1  0  0     2.000    336  366
            1  0  1  0     2.000    337  367
            0  2  0  0     2.000    338  368
            0  1  1  0     2.000    339  369
            0  0  2  0     2.000    340  370
            3  0  0  0     3.000    341  371
            2  1  0  0     3.000    342  372
            2  0  1  0     3.000    343  373
            1  2  0  0     3.000    344  374
            1  1  1  0     3.000    345  375
            1  0  2  0     3.000    346  376
            0  3  0  0     3.000    347  377
            0  2  1  0     3.000    348  378
            0  1  2  0     3.000    349  379
            0  0  3  0     3.000    350  380

 Total number of charge fitting functions (nprimf)      1162
 Total number of Cartesian basis functions (naos)        380
 Total number of Cartesian core functions  (ncos)          0

 ***************************************************************************************************



                                              ***********************
                                              *  T E C H N I C A L  *
                                              ***********************
  



 =============================================================
 P A R A L L E L I Z A T I O N  and  V E C T O R I Z A T I O N
 =============================================================
  
 Nr of parallel processes:                                1
 Maximum vector length in NumInt loops:                 128



 =====================
 S C F   U P D A T E S
 =====================
  
 Max. nr. of cycles:                               200
 Convergence criterion:                              0.0000010000
   secondary criterion:                              0.0010000000

 Mix parameter (when DIIS does not apply):           0.2000000000
 Mixed ADIIS+SDIIS will be used                  
    Max number of expansion vectors:                10
    Pure ADIIS when Max([F,P]) is above              0.1000000000
    Pure SDIIS when Max([F,P]) is below              0.0010000000
 Automatic ElectronSmearing (in case of problematic SCF convergence) disabled



 =================
 P R E C I S I O N  ***  (General: NumInt, NeglectFunctionTails, ...)  ***
 =================
  

 NumInt:           Target precision:                 4.0000000000
 -------           Initial precision:                4.0000000000
                   Min. precision (optimization):    4.0000000000

 Neglect Functions:          Basis functions:        0.1000000000E-05
 ------------------          Fit functions:          0.1000000000E-05



 ===========================
 L I N E A R   S C A L I N G
 ===========================
  

 Cut-off radii density fit:                        0.1000000000E-07
 Overlap cut-off criterion AO matrix elements:     0.1000000000E-05
 Cut-offs for Coulomb potential and fitted density:0.1000000000E-07
 Cut-off criterion for Coulomb multipole terms:    0.1000000000E-07
 Progressive Convergence parameter:                 0.000000000    
 ***************************************************************************************************



                                            ***************************
                                            *  C O M P U T A T I O N  *
                                            ***************************
  

 Number of elements of the density matrix on this node (used, total):     72390     72390



 ===========================================
 Numerical Integration : Fuzzy Cells (Becke)
 ===========================================
  
 Becke grid quality: NORMAL         
  
 Lebedev angular grid order:             min:  11 max:  23
 Nr. of radial points:                   min:  46 max:  67

 Total nr. of points:     107688
 Nr. of blocks:              842
 Block length:               128
 Nr. of dummy points:         88


 Test of Precision of the Numerical Integration Grid
 ===================================================

 Integral of the Total Core Density:                   0.00000000000000



 ========================
 Density Fitting (zlmFit)
 ========================
  
 ZlmFit Fit Quality: NORMAL         
  
 Max L-expansion:                        min:   6 max:   7
 Nr. of radial interpolation points:     min:  39 max:  60



 =====
 S C F  ***  ScaSCF  ***
 =====
  
 Initial density matrix is calculated as sum of fragments

 CYCLE    1
 SCF Error: norm([F,P])=      7.258108009932, max([F,P])=      1.404492085716
 orbitals (Q,E):
 ---------------
 A :33...52          ( 2.00    -0.4884)  ( 2.00    -0.4660)  ( 2.00    -0.4480)  ( 2.00    -0.4137)
                     ( 2.00    -0.3986)  ( 2.00    -0.3918)  ( 2.00    -0.3800)  ( 2.00    -0.3740)
                     ( 2.00    -0.3247)  ( 2.00    -0.3227)  ( 0.00    -0.2057)  ( 0.00    -0.1919)
                     ( 0.00    -0.1568)  ( 0.00    -0.1105)  ( 0.00    -0.0552)  ( 0.00    -0.0434)
                     ( 0.00    -0.0298)  ( 0.00    -0.0235)  ( 0.00    -0.0126)  ( 0.00    -0.0023)

 CYCLE    2
   MIX coefficients:  0.8000  0.2000
 SCF Error: norm([F,P])=      1.429141271095, max([F,P])=      0.246671217523
 orbitals (Q,E):
 ---------------
 A :33...43          ( 2.00    -0.4347)  ( 2.00    -0.4237)  ( 2.00    -0.4001)  ( 2.00    -0.3735)
                     ( 2.00    -0.3556)  ( 2.00    -0.3482)  ( 2.00    -0.3400)  ( 2.00    -0.3268)
                     ( 2.00    -0.3220)  ( 2.00    -0.3195)  ( 0.00    -0.1904)

 CYCLE    3
  SDIIS (wt  0.000): -0.4600  1.4600
 A-DIIS (wt  1.000):  0.0000  1.0000
  DIIS coefficients:  0.0000  1.0000
 SCF Error: norm([F,P])=      0.606014866366, max([F,P])=      0.119566934310
 orbitals (Q,E):
 ---------------
 A :33...43          ( 2.00    -0.3050)  ( 2.00    -0.3041)  ( 2.00    -0.2872)  ( 2.00    -0.2801)
                     ( 2.00    -0.2759)  ( 2.00    -0.2648)  ( 2.00    -0.2404)  ( 2.00    -0.2285)
                     ( 2.00    -0.2059)  ( 2.00    -0.1819)  ( 0.00    -0.1237)

 CYCLE    4
  SDIIS (wt  0.000):  0.1017  0.4732  0.4251
 A-DIIS (wt  1.000): -0.0000  0.6822  0.3178
  DIIS coefficients: -0.0000  0.6822  0.3178
 SCF Error: norm([F,P])=      0.980875966420, max([F,P])=      0.215055096241
 orbitals (Q,E):
 ---------------
 A :33...43          ( 2.00    -0.3508)  ( 2.00    -0.3413)  ( 2.00    -0.3214)  ( 2.00    -0.3085)
                     ( 2.00    -0.2893)  ( 2.00    -0.2737)  ( 2.00    -0.2711)  ( 2.00    -0.2694)
                     ( 2.00    -0.2603)  ( 2.00    -0.2445)  ( 0.00    -0.1401)

 CYCLE    5
  SDIIS (wt  0.651): -0.0027  0.3327  0.1486  0.5215
 A-DIIS (wt  0.349):  0.0000  0.0000  0.0000  1.0000
  DIIS coefficients: -0.0018  0.2165  0.0967  0.6886
 SCF Error: norm([F,P])=      0.177738649260, max([F,P])=      0.035584484448
 orbitals (Q,E):
 ---------------
 A :33...43          ( 2.00    -0.3772)  ( 2.00    -0.3653)  ( 2.00    -0.3458)  ( 2.00    -0.3309)
                     ( 2.00    -0.3035)  ( 2.00    -0.2904)  ( 2.00    -0.2885)  ( 2.00    -0.2862)
                     ( 2.00    -0.2740)  ( 2.00    -0.2563)  ( 0.00    -0.1552)

 CYCLE    6
  SDIIS (wt  0.659): -0.0099  0.1438  0.0346  0.4806  0.3509
 A-DIIS (wt  0.341):  0.0000  0.0000  0.0000  0.4309  0.5691
  DIIS coefficients: -0.0065  0.0947  0.0228  0.4636  0.4253
 SCF Error: norm([F,P])=      0.159732732218, max([F,P])=      0.034773553201
 orbitals (Q,E):
 ---------------
 A :33...43          ( 2.00    -0.3686)  ( 2.00    -0.3579)  ( 2.00    -0.3395)  ( 2.00    -0.3246)
                     ( 2.00    -0.3016)  ( 2.00    -0.2857)  ( 2.00    -0.2842)  ( 2.00    -0.2829)
                     ( 2.00    -0.2704)  ( 2.00    -0.2579)  ( 0.00    -0.1522)

 CYCLE    7
  SDIIS (wt  0.797): -0.0009  0.0714  0.0204  0.3386  0.3328  0.2376
 A-DIIS (wt  0.203):  0.0000  0.0000  0.0000  0.0000  0.2391  0.7609
  DIIS coefficients: -0.0007  0.0569  0.0163  0.2699  0.3138  0.3437
 SCF Error: norm([F,P])=      0.087906850536, max([F,P])=      0.021081629804
 orbitals (Q,E):
 ---------------
 A :33...43          ( 2.00    -0.3676)  ( 2.00    -0.3574)  ( 2.00    -0.3374)  ( 2.00    -0.3230)
                     ( 2.00    -0.2991)  ( 2.00    -0.2837)  ( 2.00    -0.2830)  ( 2.00    -0.2815)
                     ( 2.00    -0.2712)  ( 2.00    -0.2533)  ( 0.00    -0.1503)

 CYCLE    8
  SDIIS (wt  0.849):  0.0003  0.0301  0.0098  0.1841  0.2266  0.3160  0.2331
 A-DIIS (wt  0.151):  0.0000  0.0000  0.0000  0.0000  0.0000  0.4024  0.5976
  DIIS coefficients:  0.0003  0.0256  0.0084  0.1563  0.1924  0.3290  0.2881
 SCF Error: norm([F,P])=      0.065244674931, max([F,P])=      0.015933152025
 orbitals (Q,E):
 ---------------
 A :33...43          ( 2.00    -0.3683)  ( 2.00    -0.3574)  ( 2.00    -0.3375)  ( 2.00    -0.3231)
                     ( 2.00    -0.2993)  ( 2.00    -0.2841)  ( 2.00    -0.2830)  ( 2.00    -0.2814)
                     ( 2.00    -0.2703)  ( 2.00    -0.2547)  ( 0.00    -0.1503)

 CYCLE    9
  SDIIS (wt  0.967): -0.0022  0.0141  0.0015  0.0818  0.1034  0.2137  0.2321  0.3557
 A-DIIS (wt  0.033):  0.0000  0.0000  0.0000  0.0000  0.0000  0.0000  0.0667  0.9333
  DIIS coefficients: -0.0022  0.0136  0.0014  0.0791  0.1000  0.2066  0.2266  0.3749
 SCF Error: norm([F,P])=      0.015687950512, max([F,P])=      0.004293853403
 orbitals (Q,E):
 ---------------
 A :33...43          ( 2.00    -0.3683)  ( 2.00    -0.3571)  ( 2.00    -0.3375)  ( 2.00    -0.3231)
                     ( 2.00    -0.2995)  ( 2.00    -0.2840)  ( 2.00    -0.2832)  ( 2.00    -0.2816)
                     ( 2.00    -0.2704)  ( 2.00    -0.2548)  ( 0.00    -0.1504)

 CYCLE   10
  SDIIS (wt  1.000): -0.0012  0.0052  0.0000  0.0298  0.0386  0.0955  0.1149  0.2547  0.4625
  DIIS coefficients: -0.0012  0.0052  0.0000  0.0298  0.0386  0.0955  0.1149  0.2547  0.4625
 SCF Error: norm([F,P])=      0.002771141415, max([F,P])=      0.000639152693
 orbitals (Q,E):
 ---------------
 A :33...43          ( 2.00    -0.3683)  ( 2.00    -0.3573)  ( 2.00    -0.3377)  ( 2.00    -0.3232)
                     ( 2.00    -0.2995)  ( 2.00    -0.2841)  ( 2.00    -0.2832)  ( 2.00    -0.2816)
                     ( 2.00    -0.2705)  ( 2.00    -0.2548)  ( 0.00    -0.1505)

 CYCLE   11
  SDIIS (wt  1.000): -0.0006  0.0021 -0.0001  0.0114  0.0150  0.0410  0.0514  0.1310  0.3006  0.4484
  DIIS coefficients: -0.0006  0.0021 -0.0001  0.0114  0.0150  0.0410  0.0514  0.1310  0.3006  0.4484
 SCF Error: norm([F,P])=      0.000723929273, max([F,P])=      0.000275184179
 orbitals (Q,E):
 ---------------
 A :33...43          ( 2.00    -0.3683)  ( 2.00    -0.3573)  ( 2.00    -0.3376)  ( 2.00    -0.3232)
                     ( 2.00    -0.2995)  ( 2.00    -0.2841)  ( 2.00    -0.2832)  ( 2.00    -0.2816)
                     ( 2.00    -0.2705)  ( 2.00    -0.2548)  ( 0.00    -0.1505)

 CYCLE   12
  SDIIS (wt  1.000): -0.0000 -0.0000  0.0000  0.0001  0.0024  0.0039  0.0215  0.0862  0.3092  0.5767
  DIIS coefficients: -0.0000 -0.0000  0.0000  0.0001  0.0024  0.0039  0.0215  0.0862  0.3092  0.5767
[...]
                                    7.27%     1 S              -6.532  1.00     7 H
                                    7.18%     2 S               2.394  0.00     7 H
                                   -7.05%     3 S              10.158  0.00     4 C
                                   -6.44%     2 P:x             4.589  0.00     2 C
                                    5.51%     1 S              -6.532  1.00     8 H
                                   -4.83%     2 P:y             4.589  0.00     2 C
                                    4.28%     2 S               2.394  0.00     6 H
                                    3.03%     1 P:z            -5.239  0.67     2 C
                                    2.28%     2 S             -13.620  2.00     4 C
                                    2.04%     1 P:y            -5.239  0.67     3 C
                                    1.97%     1 P:y            -7.062  1.00    12 N
                                   -1.90%     2 P:y             7.649  0.00    13 N
                                   -1.71%     1 P:y            -5.239  0.67     1 C
                                   -1.68%     2 P:y             4.589  0.00     4 C
                                    1.39%     1 P:x            -5.239  0.67     2 C
                                    1.38%     2 P:x             4.589  0.00     4 C
                                   -1.31%     2 P:z             4.589  0.00     1 C
                                    1.20%     1 S              -6.532  1.00     9 H
                                   -1.10%     2 P:z             7.649  0.00    13 N
       0.326  0.00    49 A         19.11%     1 S              -6.532  1.00     5 H
                                   18.00%     2 S               2.394  0.00     9 H
                                   13.57%     1 S              -6.532  1.00     7 H
                                   12.46%     2 S               2.394  0.00     7 H
                                   11.30%     1 S              -6.532  1.00     9 H
                                   10.78%     2 S               2.394  0.00     5 H
                                   -9.80%     2 P:x             4.589  0.00     2 C
                                   -9.66%     2 P:z             4.589  0.00     2 C
                                    6.25%     2 S               2.394  0.00     8 H
                                    6.06%     2 S               2.394  0.00    10 H
                                    5.16%     1 S              -6.532  1.00     6 H
                                   -5.03%     2 P:z             4.589  0.00     4 C
                                    4.88%     2 P:z             4.589  0.00     1 C
                                   -4.09%     2 P:x             7.649  0.00    13 N
                                    3.88%     1 S              -6.532  1.00    10 H
                                    3.07%     1 S              -6.532  1.00     8 H
                                    2.80%     2 P:x             4.589  0.00     1 C
                                   -2.75%     3 S              14.073  0.00    12 N
                                   -2.67%     2 P:y             7.649  0.00    13 N
                                    2.58%     2 P:z             4.589  0.00     3 C
                                   -2.21%     2 P:x             4.589  0.00     4 C
                                    2.13%     2 P:y             4.589  0.00     3 C
                                    2.08%     2 S             -13.620  2.00     3 C
                                    1.92%     1 P:x            -5.239  0.67     1 C
                                   -1.76%     1 P:x            -5.239  0.67     2 C
                                    1.59%     2 S               2.394  0.00     6 H
                                    1.50%     2 S             -13.620  2.00     2 C
                                    1.33%     3 S              40.869  0.00     5 H
       0.824  0.00    50 A         19.79%     1 S              -6.532  1.00     6 H
                                   19.12%     1 S              -6.532  1.00     5 H
                                   12.62%     1 S              -6.532  1.00     9 H
                                   11.77%     1 P:x            -5.239  0.67     2 C
                                   11.27%     1 S              -6.532  1.00     7 H
                                  -11.24%     2 P:x             4.589  0.00     2 C
                                    8.33%     2 S               2.394  0.00     9 H
                                   -7.79%     2 P:x             7.649  0.00    13 N
                                    6.25%     1 S              -6.532  1.00     8 H
                                    5.24%     1 S              -6.532  1.00    10 H
                                    4.94%     2 S               2.394  0.00    10 H
                                    4.90%     2 S             -18.450  2.00    14 N
                                   -3.97%     2 S               2.394  0.00     8 H
                                    3.75%     1 P:z            -5.239  0.67     2 C
                                    3.61%     1 P:x            -7.062  1.00    13 N
                                   -3.27%     2 P:x             4.589  0.00     4 C
                                   -3.04%     3 S              14.073  0.00    14 N
                                    2.47%     2 S               2.394  0.00     5 H
                                   -2.30%     2 P:y             4.589  0.00     4 C
                                    1.47%     1 P:z            -5.239  0.67     4 C
                                    1.45%     3 S              40.869  0.00     6 H
                                    1.29%     1 P:z            -9.020  1.33    16 O
                                    1.04%     1 P:z            11.051  0.00     5 H
       0.907  0.00    51 A         35.55%     1 S              -6.532  1.00     8 H
                                   25.12%     2 S               2.394  0.00     8 H
                                  -20.73%     2 P:y             4.589  0.00     4 C
                                   13.02%     1 S              -6.532  1.00    10 H
                                  -10.37%     2 P:z             4.589  0.00     4 C
                                    7.95%     2 P:y             4.589  0.00     2 C
                                    6.15%     2 S               2.394  0.00    10 H
                                   -6.09%     2 P:x             4.589  0.00     4 C
                                    5.22%     1 S              -6.532  1.00     7 H
                                    5.20%     1 P:y            -5.239  0.67     4 C
                                    4.41%     2 S               2.394  0.00     7 H
                                    4.06%     1 P:x            -5.239  0.67     3 C
                                    3.67%     1 S              -6.532  1.00     6 H
                                    3.16%     2 P:z             4.589  0.00     3 C
                                    2.95%     1 S              -6.532  1.00     5 H
                                   -2.92%     2 P:x             7.649  0.00    13 N
                                    2.58%     1 P:x            -7.062  1.00    12 N
                                    2.36%     2 P:z             4.589  0.00     1 C
                                    2.11%     1 P:x            -5.239  0.67     4 C
                                    1.96%     1 P:y            -5.239  0.67     2 C
                                    1.71%     2 P:x             4.589  0.00     2 C
                                    1.70%     2 S               2.394  0.00     6 H
                                    1.65%     3 S              40.869  0.00     8 H
                                    1.48%     1 P:z            -5.239  0.67     1 C
                                    1.38%     2 S             -13.620  2.00     2 C
                                    1.37%     1 P:x            -5.239  0.67     1 C
                                   -1.24%     3 S              10.158  0.00     2 C
                                    1.19%     2 S               2.394  0.00     5 H
                                   -1.08%     3 S              10.158  0.00     3 C
                                    1.03%     3 S              40.869  0.00    10 H



 =======================================================================
 Electrostatic potential at the Nuclei due to electrons and other nuclei
 =======================================================================
  
         Atom                  Potential
         ----                  ---------
     1)   C                  14.60859936
     2)   H                   1.04282487
     3)   Cl                 64.85339243
     4)   C                  14.68343587
     5)   C                  14.72028465
     6)   N                  18.39158448
     7)   N                  18.37326638
     8)   H                   0.99626320
     9)   H                   0.99923411
    10)   N                  18.18071007
    11)   O                  22.35694009
    12)   O                  22.35991808
    13)   C                  14.75913795
    14)   H                   1.07824764
    15)   H                   1.08582372
    16)   H                   1.08238994
 Mulliken charges used for AMS results%charges...


    =====================
     CALCULATION RESULTS
    =====================

Energy (hartree)            -3.31508528


--------------
Atomic charges
--------------
  Index   Atom    Charge
      1      C    0.1865
      2      H   -0.1239
      3     Cl   -0.1532
      4      C    0.2163
      5      C    0.1131
      6      N   -0.1972
      7      N    0.0409
      8      H   -0.0509
      9      H   -0.0187
     10      N    0.5684
     11      O   -0.3669
     12      O   -0.3656
     13      C    0.7189
     14      H   -0.2104
     15      H   -0.1544
     16      H   -0.2028


Dipole moment vector    (Debye):     3.71081176   -0.69400018   -0.70306802
              magnitude (Debye):     3.84006052


-----------------------
Molecular orbitals info
-----------------------
n orbitals:              334
n spin:                    1

Note: only printing virtual orbitals with
      energy smaller than HOMO + 100. eV

HOMO (eV):              -6.9340
LUMO (eV):              -4.0949
HOMO-LUMO gap (eV):      2.8391

   Index   Energy (eV)    Occupation
     212       92.3994         0.000       
     211       92.2806         0.000       
     210       91.8222         0.000       
     209       91.2752         0.000       
     208       88.9006         0.000       
     207       88.4079         0.000       
     206       87.5932         0.000       
     205       86.3455         0.000       
     204       85.6438         0.000       
     203       83.1032         0.000       
     202       82.6728         0.000       
     201       81.7526         0.000       
     200       81.4213         0.000       
     199       81.0753         0.000       
     198       80.0024         0.000       
     197       79.1357         0.000       
     196       78.8040         0.000       
     195       78.0305         0.000       
     194       77.3364         0.000       
     193       76.3626         0.000       
     192       76.2283         0.000       
     191       74.5403         0.000       
     190       74.3515         0.000       
     189       73.1461         0.000       
     188       72.4418         0.000       
     187       71.9832         0.000       
     186       71.1058         0.000       
     185       70.2716         0.000       
     184       68.6308         0.000       
     183       67.8795         0.000       
     182       66.9629         0.000       
     181       66.8142         0.000       
     180       66.3874         0.000       
     179       65.9503         0.000       
     178       65.5253         0.000       
     177       63.6222         0.000       
     176       63.2256         0.000       
     175       62.0623         0.000       
     174       61.8868         0.000       
     173       60.8137         0.000       
     172       60.1693         0.000       
     171       59.7535         0.000       
     170       59.0351         0.000       
     169       57.9087         0.000       
     168       57.4195         0.000       
     167       57.0147         0.000       
     166       56.3651         0.000       
     165       55.9468         0.000       
     164       55.1048         0.000       
     163       54.3815         0.000       
     162       53.3599         0.000       
     161       52.2350         0.000       
     160       52.0979         0.000       
     159       51.2709         0.000       
     158       51.0037         0.000       
     157       50.7350         0.000       
     156       49.0503         0.000       
     155       48.6742         0.000       
     154       48.3390         0.000       
     153       46.7087         0.000       
     152       46.5441         0.000       
     151       45.2306         0.000       
     150       45.1527         0.000       
     149       44.4334         0.000       
     148       43.6710         0.000       
     147       43.2549         0.000       
     146       42.2569         0.000       
     145       41.8953         0.000       
     144       41.1342         0.000       
     143       40.7371         0.000       
     142       39.9806         0.000       
     141       39.1443         0.000       
     140       39.0260         0.000       
     139       38.3017         0.000       
     138       37.8545         0.000       
     137       37.7292         0.000       
     136       37.2854         0.000       
     135       36.7672         0.000       
     134       36.5848         0.000       
     133       35.7489         0.000       
     132       35.1776         0.000       
     131       34.8714         0.000       
     130       34.5901         0.000       
     129       34.5026         0.000       
     128       34.0996         0.000       
     127       33.3952         0.000       
     126       33.0785         0.000       
     125       32.9031         0.000       
     124       32.6558         0.000       
     123       32.4266         0.000       
     122       31.6913         0.000       
     121       30.9317         0.000       
     120       30.5451         0.000       
     119       29.8111         0.000       
     118       29.7438         0.000       
     117       29.3301         0.000       
     116       28.9776         0.000       
     115       28.4803         0.000       
     114       27.8964         0.000       
     113       27.3221         0.000       
     112       26.5664         0.000       
     111       26.3737         0.000       
     110       25.9955         0.000       
     109       25.4543         0.000       
     108       24.9516         0.000       
     107       24.0934         0.000       
     106       23.3851         0.000       
     105       21.8060         0.000       
     104       21.5675         0.000       
     103       21.1797         0.000       
     102       19.7808         0.000       
     101       19.4519         0.000       
     100       18.6951         0.000       
      99       18.1598         0.000       
      98       18.0281         0.000       
      97       17.1662         0.000       
      96       17.0850         0.000       
      95       16.3297         0.000       
      94       15.6991         0.000       
      93       15.4636         0.000       
      92       14.7863         0.000       
      91       13.9665         0.000       
      90       13.7921         0.000       
      89       13.2006         0.000       
      88       12.9119         0.000       
      87       12.5027         0.000       
      86       12.0392         0.000       
      85       11.8689         0.000       
      84       10.9445         0.000       
      83       10.9055         0.000       
      82       10.7205         0.000       
      81       10.5328         0.000       
      80       10.2721         0.000       
      79       10.0018         0.000       
      78        9.7808         0.000       
      77        9.5837         0.000       
      76        9.1334         0.000       
      75        8.8800         0.000       
      74        8.4488         0.000       
      73        8.2478         0.000       
      72        7.9686         0.000       
      71        7.7748         0.000       
      70        7.4290         0.000       
      69        7.0110         0.000       
      68        6.7764         0.000       
      67        6.6240         0.000       
      66        6.2345         0.000       
      65        6.0681         0.000       
      64        5.8679         0.000       
      63        5.3324         0.000       
      62        5.0558         0.000       
      61        4.9364         0.000       
      60        4.5662         0.000       
      59        4.1555         0.000       
      58        3.9507         0.000       
      57        3.5170         0.000       
      56        3.1576         0.000       
      55        2.7004         0.000       
      54        2.1271         0.000       
      53        1.7442         0.000       
      52        1.4291         0.000       
      51        0.9069         0.000       
      50        0.8241         0.000       
      49        0.3262         0.000       
      48       -0.1204         0.000       
      47       -0.4310         0.000       
      46       -1.4234         0.000       
      45       -1.7566         0.000       
      44       -3.4479         0.000       
      43       -4.0949         0.000 < LUMO
      42       -6.9340         2.000 < HOMO
      41       -7.3601         2.000       
      40       -7.6637         2.000       
      39       -7.7059         2.000       
      38       -7.7306         2.000       
      37       -8.1504         2.000       
      36       -8.7951         2.000       
      35       -9.1880         2.000       
      34       -9.7217         2.000       
      33      -10.0215         2.000       
      32      -10.3300         2.000       
      31      -10.6434         2.000       
      30      -10.9881         2.000       
      29      -12.2418         2.000       
      28      -12.8525         2.000       
      27      -13.3618         2.000       
      26      -13.7218         2.000       
      25      -13.9687         2.000       
      24      -14.4237         2.000       
      23      -15.4773         2.000       
      22      -17.9527         2.000       
      21      -18.5539         2.000       
      20      -20.4783         2.000       
      19      -21.7171         2.000       
      18      -23.1623         2.000       
      17      -24.5063         2.000       
      16      -26.6888         2.000       
      15      -31.1134         2.000       
      14     -190.5111         2.000       
      13     -190.5156         2.000       
      12     -190.8311         2.000       
      11     -251.5631         2.000       
      10     -270.7374         2.000       
       9     -272.1972         2.000       
       8     -272.8277         2.000       
       7     -274.8086         2.000       
       6     -382.7925         2.000       
       5     -382.8447         2.000       
       4     -387.9990         2.000       
       3     -512.7293         2.000       
       2     -512.8123         2.000       
       1    -2750.8384         2.000       

AMS application finished. Exiting.
NORMAL TERMINATION
     Total cpu time:      70.27
  Total system time:       0.47
 Total elapsed time:      70.95
NORMAL TERMINATION
