
 *******************************************************************************
 *                                                                             *
 *  --------------------------------                                           *
 *   Amsterdam Modeling Suite (AMS)              2026.103                      *
 *  --------------------------------                                           *
 *                                               r260501 2026-05-01 873454b5   *
 *                                                                             *
 *                                                                             *
 *                              =================                              *
 *                              |               |                              *
 *                              |     A M S     |                              *
 *                              |               |                              *
 *                              =================                              *
 *                                                                             *
 *                                                                             *
 *   Online information and documentation:  https://www.scm.com/support/       *
 *   E-mail:  support@scm.com   info@scm.com                                   *
 *                                                                             *
 *   Scientific publications using AMS results must be properly referenced     *
 *   See the User Manuals (or the web site) for recommended citations          *
 *   The terms and conditions of the End User License Agreement apply to       *
 *   the use of AMS, https://www.scm.com/license-terms/                        *
 *                                                                             *
 **********************  x86_64_linux_intel / intelmpi  ************************
 
 Licensed to: Jong-June Jeon / University of Seoul 2026-06-02 13:44:15
 SCM User ID: u30731
  
 AMS 2026.103  RunTime: Jun04-2026 01:44:43  ShM Nodes: 1  Procs: 1

 AMS jobname: c3_eda
 AMS jobid  : 953984262

 Start   directory: /gpfs/home1/yeseo1ee/projects/eda-asm-prediction/ADF_800/adf_outputs/batch_007/qmrxn20_sn2_C_E_B_D_B_A/
 Results directory: /gpfs/home1/yeseo1ee/projects/eda-asm-prediction/ADF_800/adf_outputs/batch_007/qmrxn20_sn2_C_E_B_D_B_A/c3_eda.results/
 Scratch directory: /tmp/amstmp_c3_eda_kid0.953984262/

 RNG seed: -473807598 1903187221 1129433903 -462036953 -686182405 1533193872 -477242062 1293329591



                      ************************************************************************
                      *  ADF 2026.103  RunTime: Jun04-2026 01:44:43  ShM Nodes: 1  Procs: 1  *
                      ************************************************************************
  

       ****************************
       * SINGLE POINT CALCULATION *
       ****************************

--------
Geometry
--------
Formula: C4H7ClN3O2
Atoms
  Index Symbol   x (angstrom)   y (angstrom)   z (angstrom)
      1      H     2.19023310    -0.16504173    -0.63638192 adf.f=fA
      2      C     0.36898458    -0.09947102     0.08264315 adf.f=fB
      3      H     1.64576130     1.57177491     0.46918477 adf.f=fB
      4     Cl    -1.65201202    -0.21228231     0.38269418 adf.f=fB
      5      C     0.63069160     1.42271553     0.11452371 adf.f=fB
      6      C     0.49767660    -0.71658017    -1.22367490 adf.f=fB
      7      N     0.24335364    -1.28966183    -2.23059867 adf.f=fB
      8      N     0.80840304    -0.83449264     1.24588470 adf.f=fB
      9      H     1.76283949    -1.11872859     1.06719961 adf.f=fB
     10      H     0.21522946    -1.64977795     1.34454958 adf.f=fB
     11      N    -0.19072031     2.11196415     1.18453377 adf.f=fB
     12      O    -1.10520086     2.86233075     0.84526947 adf.f=fB
     13      O     0.16328908     1.92753641     2.34692365 adf.f=fB
     14      C     0.39310035     2.07532219    -1.22729383 adf.f=fB
     15      H     1.10076392     1.65403120    -1.94120011 adf.f=fB
     16      H    -0.62361677     1.88189259    -1.56910208 adf.f=fB
     17      H     0.54147382     3.15441852    -1.15915508 adf.f=fB

Total System Charge             -1.00000


----------------
ADF Engine Input
----------------
 
   Basis
     Type TZ2P
     Core None
   End
   XC
     GGA BLYP
     Dispersion GRIMME3 BJDAMP
   End
   Symmetry NOSYM
   NumericalQuality Normal
   Unrestricted No
   SCF
     Iterations 200
     Converge 1.0e-6
   End
   fragments
     fA c1_fragA_ts.results/adf.rkf
     fB c2_fragB_ts.results/adf.rkf
   end
   etsnocv
     enocv 0.05
     ekmin 0.5
   end
   print etslowdin
   Save TAPE21
 

 Title: *** (NO TITLE) ***

 *** adf ***



 ===========================
 A T T A C H E D   F I L E S
 ===========================
  



 ===============================
 M O D E L   P A R A M E T E R S
 ===============================
  
 DENSITY FUNCTIONAL POTENTIAL (scf)
    LDA:                               Exchange only                           == Not Default ==
    Gradient Corrections:              Becke88 LYP                             == Not Default ==

 SPIN  (restricted / unrestr.)
    Molecule:                          Restricted                               
    Fragments:                         Restricted                               

 OTHER ASPECTS
    Relativistic Corrections:          scalar (ZORA,MAPA)                       

    Nuclear Charge Density Model:      Point Charge Nuclei                      
    Core Treatment:                    Frozen Orbital(s)                        

    Hyperfine or Zeeman Interaction:   ---                                      

 Settings for Grimme D3 dispersion correction

      damping                        BJ
      s6                          1.000
      s8                          2.700
      a1                          0.430
      a2                          4.236

 Other (technical) parameters

      alpha                      14.000
      version                         4
 


 Fragment File(s)
 ----------------
 fA:
         file : c1_fragA_ts.results/adf.rkf
         jobid: 1322810592
         title: *** adf ***
 fB:
         file : c2_fragB_ts.results/adf.rkf
         jobid: 1601552650
         title: *** adf ***



 ===============
 G E O M E T R Y  ***  3D  Molecule  ***
 ===============
  

 ATOMS
 =====                            X Y Z                    CHARGE
                                (Angstrom)             Nucl     +Core       At.Mass
                       --------------------------    ----------------       -------
    1  H               2.1902   -0.1650   -0.6364      1.00      1.00        1.0078
    2  C               0.3690   -0.0995    0.0826      6.00      6.00       12.0000
    3  H               1.6458    1.5718    0.4692      1.00      1.00        1.0078
    4  Cl             -1.6520   -0.2123    0.3827     17.00     17.00       34.9689
    5  C               0.6307    1.4227    0.1145      6.00      6.00       12.0000
    6  C               0.4977   -0.7166   -1.2237      6.00      6.00       12.0000
    7  N               0.2434   -1.2897   -2.2306      7.00      7.00       14.0031
    8  N               0.8084   -0.8345    1.2459      7.00      7.00       14.0031
    9  H               1.7628   -1.1187    1.0672      1.00      1.00        1.0078
   10  H               0.2152   -1.6498    1.3445      1.00      1.00        1.0078
   11  N              -0.1907    2.1120    1.1845      7.00      7.00       14.0031
   12  O              -1.1052    2.8623    0.8453      8.00      8.00       15.9949
   13  O               0.1633    1.9275    2.3469      8.00      8.00       15.9949
   14  C               0.3931    2.0753   -1.2273      6.00      6.00       12.0000
   15  H               1.1008    1.6540   -1.9412      1.00      1.00        1.0078
   16  H              -0.6236    1.8819   -1.5691      1.00      1.00        1.0078
   17  H               0.5415    3.1544   -1.1592      1.00      1.00        1.0078


 FRAGMENTS
 =========                                     Atoms in this Fragment     Cart. coord.s (Angstrom)
                                               -------------------------------------------------------
    1  fA                                                1  H            2.1902   -0.1650   -0.6364
    2  fB                                                2  C            0.3690   -0.0995    0.0826
                                                         5  C            0.6307    1.4227    0.1145
                                                         6  C            0.4977   -0.7166   -1.2237
                                                        14  C            0.3931    2.0753   -1.2273
                                                         3  H            1.6458    1.5718    0.4692
                                                         9  H            1.7628   -1.1187    1.0672
                                                        10  H            0.2152   -1.6498    1.3445
                                                        15  H            1.1008    1.6540   -1.9412
                                                        16  H           -0.6236    1.8819   -1.5691
                                                        17  H            0.5415    3.1544   -1.1592
                                                         4  Cl          -1.6520   -0.2123    0.3827
                                                         7  N            0.2434   -1.2897   -2.2306
                                                         8  N            0.8084   -0.8345    1.2459
                                                        11  N           -0.1907    2.1120    1.1845
                                                        12  O           -1.1052    2.8623    0.8453
                                                        13  O            0.1633    1.9275    2.3469


 Interatomic Distance Matrix (Angstrom)
 --------------------------------------

   1)     0.000
   2)     1.959   0.000
   3)     2.130   2.138   0.000
   4)     3.975   2.046   3.750   0.000
   5)     2.349   1.545   1.086   2.821   0.000
   6)     1.875   1.450   3.069   2.731   2.527   0.000
   7)     2.756   2.605   4.177   3.403   3.606   1.186   0.000
   8)     2.429   1.444   2.664   2.681   2.531   2.492   3.551   0.000
   9)     1.999   1.988   2.759   3.599   2.941   2.648   3.635   1.012   0.000
  10)     3.167   2.005   3.632   2.545   3.336   2.747   3.593   1.013   1.660   0.000
  11)     3.764   2.533   2.044   2.860   1.515   3.778   4.840   3.112   3.777   3.787
          0.000
  12)     4.714   3.395   3.062   3.157   2.371   4.434   5.340   4.182   4.912   4.728
          1.231   0.000
  13)     4.170   3.046   2.419   3.425   2.336   4.456   5.596   3.043   3.671   3.715
          1.229   2.177   0.000
  14)     2.932   2.539   2.168   3.465   1.511   2.794   3.515   3.841   4.164   4.530
          2.482   2.676   3.585   0.000
  15)     2.490   2.776   2.473   4.057   2.121   2.549   3.080   4.054   4.145   4.743
          3.413   3.754   4.398   1.090   0.000
  16)     3.602   2.764   3.066   3.042   2.149   2.851   3.354   4.166   4.653   4.655
          2.797   2.650   3.995   1.090   1.779   0.000
  17)     3.743   3.487   2.525   4.304   2.152   3.872   4.581   4.665   4.971   5.427
          2.668   2.610   3.734   1.091   1.782   1.773   0.000

 Min. Distance =    1.0118
 Max. Distance =    5.5956



 =====================================
 S Y M M E T R Y ,   E L E C T R O N S
 =====================================
  
 Symmetry: NOSYM

 Irreducible Representations, including subspecies
 -------------------------------------------------
 A


 Configuration of Valence Electrons
 ==================================
 ( determined in the SCF procedure )

 Total:   86

 Net Charge: -1 (Nuclei minus Electrons)

 Aufbau principle for MO occupations will be applied through SCF cycle no.     100
 Thereafter, the program will assign electrons to MOs that are spatially
 similar to the occupied MOs in a "reference" cycle ("KeepOrbitals").
 The reference cycle is always the PREVIOUS cycle: it will evolve with
 the SCF procedure.
 ***************************************************************************************************



                                      ****************************************
                                      *  B U I L D : (Fragments, Functions)  *
                                      ****************************************
  

 The individual fragments are copies of the corresponding 'Master' fragments defined on the fragment files.
 However, they may have been rotated (and translated) with respect to the Master. The local coordinate axes
 of each fragment (which define for instance the spatial orientation in the current molecule of a fragment
 P:x orbital) are not necessarily those of the molecule.
 The local frame (if different from the molecular one) is printed to enable an interpretation of the expan-
 sion of an MO in Fragment Orbitals.



                                              ************************
                                              *  Fragment Type : fA  *
                                              ************************
  

 Fragment no.    1   (in the list of all fragments)
 -----------------
 The local coordinate frame is identical to the molecular frame.

 Check Atomic Coordinates:

                  Master (on file)          After Computed Tranformation               As specified on Input
           ----------------------------     ----------------------------     ---------------------------------
     1)     2.19023  -0.16504  -0.63638      2.19023  -0.16504  -0.63638       1   2.19023  -0.16504  -0.63638



                                              ************************
                                              *  Fragment Type : fB  *
                                              ************************
  

 Fragment no.    2   (in the list of all fragments)
 -----------------
 The local coordinate frame is identical to the molecular frame.

 Check Atomic Coordinates:

                  Master (on file)          After Computed Tranformation               As specified on Input
           ----------------------------     ----------------------------     ---------------------------------
     1)     0.36898  -0.09947   0.08264      0.36898  -0.09947   0.08264       2   0.36898  -0.09947   0.08264
     2)     0.63069   1.42272   0.11452      0.63069   1.42272   0.11452       5   0.63069   1.42272   0.11452
     3)     0.49768  -0.71658  -1.22367      0.49768  -0.71658  -1.22367       6   0.49768  -0.71658  -1.22367
     4)     0.39310   2.07532  -1.22729      0.39310   2.07532  -1.22729      14   0.39310   2.07532  -1.22729
     5)     1.64576   1.57177   0.46918      1.64576   1.57177   0.46918       3   1.64576   1.57177   0.46918
     6)     1.76284  -1.11873   1.06720      1.76284  -1.11873   1.06720       9   1.76284  -1.11873   1.06720
     7)     0.21523  -1.64978   1.34455      0.21523  -1.64978   1.34455      10   0.21523  -1.64978   1.34455
     8)     1.10076   1.65403  -1.94120      1.10076   1.65403  -1.94120      15   1.10076   1.65403  -1.94120
     9)    -0.62362   1.88189  -1.56910     -0.62362   1.88189  -1.56910      16  -0.62362   1.88189  -1.56910
    10)     0.54147   3.15442  -1.15916      0.54147   3.15442  -1.15916      17   0.54147   3.15442  -1.15916
    11)    -1.65201  -0.21228   0.38269     -1.65201  -0.21228   0.38269       4  -1.65201  -0.21228   0.38269
    12)     0.24335  -1.28966  -2.23060      0.24335  -1.28966  -2.23060       7   0.24335  -1.28966  -2.23060
    13)     0.80840  -0.83449   1.24588      0.80840  -0.83449   1.24588       8   0.80840  -0.83449   1.24588
    14)    -0.19072   2.11196   1.18453     -0.19072   2.11196   1.18453      11  -0.19072   2.11196   1.18453
    15)    -1.10520   2.86233   0.84527     -1.10520   2.86233   0.84527      12  -1.10520   2.86233   0.84527
    16)     0.16329   1.92754   2.34692      0.16329   1.92754   2.34692      13   0.16329   1.92754   2.34692



 =======
 S F O s  ***  (Symmetrized Fragment Orbitals)  ***
 =======
  
 SFOs are linear combinations of (valence) Fragment Orbitals (FOs), such that the SFOs transform as the
 irreducible representations of the (molecular) symmetry group. Each SFO is therefore characterized by
 an irrep of the molecule and by a few (or only one) generating FOs.
 The SFOs constitute a symmetry-adapted basis for the Fock matrix. The MO eigenvector coefficients in
 this basis provide a direct interpretation of the MOs in terms of Frontier Orbital Theory.

 The SFOs are combined with auxiliary Core Functions (CFs) to ensure orthogonalization on the (frozen)
 Core Orbitals (COs). The Core-orthogonalized SFOs (CSFOs) constitute the true Fock basis.

 The FOs, and hence also the (C)SFOs are combinations of the elementary basis functions (BAS). The basis
 functions that participate in the description of the SFOs depend on the irrep. The indices of the
 involved functions are printed below for each irrep.
 (The complete list of primitive basis functions is printed in another section)

 Total nr. of (C)SFOs (summation over all irreps) :   345

 NOTE: a (C)SFO that is defined as a combination of more than one FO is usually NOT normalized.



                                       === A ===
 Nr. of SFOs :  345
 Cartesian basis functions that participate in this irrep (total number =   392) :
      1     2     3     4     5     6     7     8     9    10
     11    12    13    14    15    16    17    18    21    24
     19    22    25    20    23    26    27    28    29    30
     31    32    33    34    35    36    37    38    39    40
     41    42    43    44    45    46    47    48    51    54
     49    52    55    50    53    56    57    58    59    60
     61    62    63    64    65    66    67    68    69    70
     71    72    73    74    75    76    77    78    81    84
     79    82    85    80    83    86    87    88    89    90
     91    92    93    94    95    96    97    98    99   100
    101   102   103   104   105   106   107   108   111   114
    109   112   115   110   113   116   117   118   119   120
    121   122   123   124   125   126   127   128   129   130
    131   132   133   134   135   136   137   138   139   140
    141   142   143   144   145   146   147   148   149   150
    151   152   153   154   155   156   157   158   159   160
    161   162   163   164   165   166   167   168   169   170
    171   172   173   174   175   176   177   178   179   180
    181   182   183   184   185   186   187   188   189   190
    191   192   193   194   195   196   197   198   199   200
    201   202   203   204   205   206   207   208   215   216
    217   209   212   218   221   224   210   213   219   222
    225   211   214   220   223   226   227   228   229   230
    231   232   233   234   235   236   237   238   239   240
    241   242   243   244   245   246   247   248   251   254
    249   252   255   250   253   256   257   258   259   260
    261   262   263   264   265   266   267   268   269   270
    271   272   273   274   275   276   277   278   281   284
    279   282   285   280   283   286   287   288   289   290
    291   292   293   294   295   296   297   298   299   300
    301   302   303   304   305   306   307   308   311   314
    309   312   315   310   313   316   317   318   319   320
    321   322   323   324   325   326   327   328   329   330
    331   332   333   334   335   336   337   338   341   344
    339   342   345   340   343   346   347   348   349   350
    351   352   353   354   355   356   357   358   359   360
    361   362   363   364   365   366   367   368   371   374
    369   372   375   370   373   376   377   378   379   380
    381   382   383   384   385   386   387   388   389   390
    391   392

    SFO  (index         Fragment          Generating    Expansion in Fragment Orbitals
  indx  incl.CFs)   Occup   Orb.Energy   FragmentType  Coeff.   Orbital     on Fragment
 --------------------------------------------------------------------------------------
     1       1      2.000       0.096 au  fA            1.00      1 A               1
                        (       2.603 eV)
     2       2       --         0.328 au  fA            1.00      2 A               1
                        (       8.927 eV)
     3       3       --         0.730 au  fA            1.00      3 A               1
                        (      19.877 eV)
     4       4       --         0.730 au  fA            1.00      4 A               1
                        (      19.877 eV)
     5       5       --         0.730 au  fA            1.00      5 A               1
                        (      19.877 eV)
     6       6       --         1.855 au  fA            1.00      6 A               1
                        (      50.479 eV)
     7       7       --         2.938 au  fA            1.00      7 A               1
                        (      79.959 eV)
     8       8       --         2.938 au  fA            1.00      8 A               1
                        (      79.959 eV)
     9       9       --         2.938 au  fA            1.00      9 A               1
                        (      79.959 eV)
    10      10       --         2.938 au  fA            1.00     10 A               1
                        (      79.959 eV)
    11      11       --         2.938 au  fA            1.00     11 A               1
                        (      79.959 eV)
    12      12      2.000    -101.091 au  fB            1.00      1 A               2
                        (   -2750.838 eV)
    13      13      2.000     -18.846 au  fB            1.00      2 A               2
                        (    -512.812 eV)
    14      14      2.000     -18.842 au  fB            1.00      3 A               2
                        (    -512.729 eV)
    15      15      2.000     -14.259 au  fB            1.00      4 A               2
                        (    -387.999 eV)
    16      16      2.000     -14.069 au  fB            1.00      5 A               2
                        (    -382.845 eV)
    17      17      2.000     -14.067 au  fB            1.00      6 A               2
                        (    -382.792 eV)
    18      18      2.000     -10.099 au  fB            1.00      7 A               2
                        (    -274.809 eV)
    19      19      2.000     -10.026 au  fB            1.00      8 A               2
                        (    -272.828 eV)
    20      20      2.000     -10.003 au  fB            1.00      9 A               2
                        (    -272.197 eV)
    21      21      2.000      -9.949 au  fB            1.00     10 A               2
                        (    -270.737 eV)
    22      22      2.000      -9.245 au  fB            1.00     11 A               2
                        (    -251.563 eV)
    23      23      2.000      -7.013 au  fB            1.00     12 A               2
                        (    -190.831 eV)
    24      24      2.000      -7.001 au  fB            1.00     13 A               2
                        (    -190.516 eV)
    25      25      2.000      -7.001 au  fB            1.00     14 A               2
                        (    -190.511 eV)
    26      26      2.000      -1.143 au  fB            1.00     15 A               2
                        (     -31.113 eV)
    27      27      2.000      -0.981 au  fB            1.00     16 A               2
                        (     -26.689 eV)
    28      28      2.000      -0.901 au  fB            1.00     17 A               2
                        (     -24.506 eV)
    29      29      2.000      -0.851 au  fB            1.00     18 A               2
                        (     -23.162 eV)
    30      30      2.000      -0.798 au  fB            1.00     19 A               2
                        (     -21.717 eV)
    31      31      2.000      -0.753 au  fB            1.00     20 A               2
                        (     -20.478 eV)
    32      32      2.000      -0.682 au  fB            1.00     21 A               2
                        (     -18.554 eV)
    33      33      2.000      -0.660 au  fB            1.00     22 A               2
                        (     -17.953 eV)
    34      34      2.000      -0.569 au  fB            1.00     23 A               2
                        (     -15.477 eV)
    35      35      2.000      -0.530 au  fB            1.00     24 A               2
                        (     -14.424 eV)
    36      36      2.000      -0.513 au  fB            1.00     25 A               2
                        (     -13.969 eV)
    37      37      2.000      -0.504 au  fB            1.00     26 A               2
                        (     -13.722 eV)
    38      38      2.000      -0.491 au  fB            1.00     27 A               2
                        (     -13.362 eV)
    39      39      2.000      -0.472 au  fB            1.00     28 A               2
                        (     -12.853 eV)
    40      40      2.000      -0.450 au  fB            1.00     29 A               2
                        (     -12.242 eV)
    41      41      2.000      -0.404 au  fB            1.00     30 A               2
                        (     -10.988 eV)
    42      42      2.000      -0.391 au  fB            1.00     31 A               2
                        (     -10.643 eV)
    43      43      2.000      -0.380 au  fB            1.00     32 A               2
                        (     -10.330 eV)
    44      44      2.000      -0.368 au  fB            1.00     33 A               2
                        (     -10.021 eV)
    45      45      2.000      -0.357 au  fB            1.00     34 A               2
                        (      -9.722 eV)
    46      46      2.000      -0.338 au  fB            1.00     35 A               2
                        (      -9.188 eV)
    47      47      2.000      -0.323 au  fB            1.00     36 A               2
                        (      -8.795 eV)
    48      48      2.000      -0.300 au  fB            1.00     37 A               2
                        (      -8.150 eV)
    49      49      2.000      -0.284 au  fB            1.00     38 A               2
                        (      -7.731 eV)
    50      50      2.000      -0.283 au  fB            1.00     39 A               2
                        (      -7.706 eV)
    51      51      2.000      -0.282 au  fB            1.00     40 A               2
                        (      -7.664 eV)
    52      52      2.000      -0.270 au  fB            1.00     41 A               2
                        (      -7.360 eV)
    53      53      2.000      -0.255 au  fB            1.00     42 A               2
                        (      -6.934 eV)
    54      54       --        -0.150 au  fB            1.00     43 A               2
                        (      -4.095 eV)
    55      55       --        -0.127 au  fB            1.00     44 A               2
                        (      -3.448 eV)
    56      56       --        -0.065 au  fB            1.00     45 A               2
                        (      -1.757 eV)
    57      57       --        -0.052 au  fB            1.00     46 A               2
                        (      -1.423 eV)
    58      58       --        -0.016 au  fB            1.00     47 A               2
                        (      -0.431 eV)
    59      59       --        -0.004 au  fB            1.00     48 A               2
                        (      -0.120 eV)
    60      60       --         0.012 au  fB            1.00     49 A               2
                        (       0.326 eV)
    61      61       --         0.030 au  fB            1.00     50 A               2
                        (       0.824 eV)
    62      62       --         0.033 au  fB            1.00     51 A               2
                        (       0.907 eV)
    63      63       --         0.053 au  fB            1.00     52 A               2
                        (       1.429 eV)
    64      64       --         0.064 au  fB            1.00     53 A               2
                        (       1.744 eV)
    65      65       --         0.078 au  fB            1.00     54 A               2
                        (       2.127 eV)
    66      66       --         0.099 au  fB            1.00     55 A               2
                        (       2.700 eV)
    67      67       --         0.116 au  fB            1.00     56 A               2
                        (       3.158 eV)
    68      68       --         0.129 au  fB            1.00     57 A               2
                        (       3.517 eV)
    69      69       --         0.145 au  fB            1.00     58 A               2
                        (       3.951 eV)
    70      70       --         0.153 au  fB            1.00     59 A               2
                        (       4.156 eV)
    71      71       --         0.168 au  fB            1.00     60 A               2
                        (       4.566 eV)
    72      72       --         0.181 au  fB            1.00     61 A               2
                        (       4.936 eV)
    73      73       --         0.186 au  fB            1.00     62 A               2
                        (       5.056 eV)
    74      74       --         0.196 au  fB            1.00     63 A               2
                        (       5.332 eV)
    75      75       --         0.216 au  fB            1.00     64 A               2
                        (       5.868 eV)
    76      76       --         0.223 au  fB            1.00     65 A               2
                        (       6.068 eV)
    77      77       --         0.229 au  fB            1.00     66 A               2
                        (       6.235 eV)
    78      78       --         0.243 au  fB            1.00     67 A               2
                        (       6.624 eV)
    79      79       --         0.249 au  fB            1.00     68 A               2
                        (       6.776 eV)
    80      80       --         0.258 au  fB            1.00     69 A               2
                        (       7.011 eV)
    81      81       --         0.273 au  fB            1.00     70 A               2
                        (       7.429 eV)
    82      82       --         0.286 au  fB            1.00     71 A               2
                        (       7.775 eV)
    83      83       --         0.293 au  fB            1.00     72 A               2
                        (       7.969 eV)
    84      84       --         0.303 au  fB            1.00     73 A               2
                        (       8.248 eV)
    85      85       --         0.310 au  fB            1.00     74 A               2
                        (       8.449 eV)
    86      86       --         0.326 au  fB            1.00     75 A               2
                        (       8.880 eV)
    87      87       --         0.336 au  fB            1.00     76 A               2
                        (       9.133 eV)
    88      88       --         0.352 au  fB            1.00     77 A               2
                        (       9.584 eV)
    89      89       --         0.359 au  fB            1.00     78 A               2
                        (       9.781 eV)
    90      90       --         0.368 au  fB            1.00     79 A               2
                        (      10.002 eV)
    91      91       --         0.377 au  fB            1.00     80 A               2
                        (      10.272 eV)
    92      92       --         0.387 au  fB            1.00     81 A               2
                        (      10.533 eV)
    93      93       --         0.394 au  fB            1.00     82 A               2
                        (      10.721 eV)
    94      94       --         0.401 au  fB            1.00     83 A               2
                        (      10.906 eV)
    95      95       --         0.402 au  fB            1.00     84 A               2
                        (      10.944 eV)
    96      96       --         0.436 au  fB            1.00     85 A               2
                        (      11.869 eV)
    97      97       --         0.442 au  fB            1.00     86 A               2
                        (      12.039 eV)
    98      98       --         0.459 au  fB            1.00     87 A               2
                        (      12.503 eV)
    99      99       --         0.475 au  fB            1.00     88 A               2
                        (      12.912 eV)
   100     100       --         0.485 au  fB            1.00     89 A               2
                        (      13.201 eV)
   101     101       --         0.507 au  fB            1.00     90 A               2
                        (      13.792 eV)
   102     102       --         0.513 au  fB            1.00     91 A               2
                        (      13.966 eV)
   103     103       --         0.543 au  fB            1.00     92 A               2
                        (      14.786 eV)
   104     104       --         0.568 au  fB            1.00     93 A               2
                        (      15.464 eV)
   105     105       --         0.577 au  fB            1.00     94 A               2
                        (      15.699 eV)
   106     106       --         0.600 au  fB            1.00     95 A               2
                        (      16.330 eV)
   107     107       --         0.628 au  fB            1.00     96 A               2
                        (      17.085 eV)
   108     108       --         0.631 au  fB            1.00     97 A               2
                        (      17.166 eV)
   109     109       --         0.663 au  fB            1.00     98 A               2
                        (      18.028 eV)
   110     110       --         0.667 au  fB            1.00     99 A               2
                        (      18.160 eV)
   111     111       --         0.687 au  fB            1.00    100 A               2
                        (      18.695 eV)
   112     112       --         0.715 au  fB            1.00    101 A               2
                        (      19.452 eV)
   113     113       --         0.727 au  fB            1.00    102 A               2
                        (      19.781 eV)
   114     114       --         0.778 au  fB            1.00    103 A               2
                        (      21.180 eV)
   115     115       --         0.793 au  fB            1.00    104 A               2
                        (      21.568 eV)
   116     116       --         0.801 au  fB            1.00    105 A               2
                        (      21.806 eV)
   117     117       --         0.859 au  fB            1.00    106 A               2
                        (      23.385 eV)
   118     118       --         0.885 au  fB            1.00    107 A               2
                        (      24.093 eV)
   119     119       --         0.917 au  fB            1.00    108 A               2
                        (      24.952 eV)
   120     120       --         0.935 au  fB            1.00    109 A               2
                        (      25.454 eV)
   121     121       --         0.955 au  fB            1.00    110 A               2
                        (      25.995 eV)
   122     122       --         0.969 au  fB            1.00    111 A               2
                        (      26.374 eV)
   123     123       --         0.976 au  fB            1.00    112 A               2
                        (      26.566 eV)
   124     124       --         1.004 au  fB            1.00    113 A               2
                        (      27.322 eV)
   125     125       --         1.025 au  fB            1.00    114 A               2
                        (      27.896 eV)
   126     126       --         1.047 au  fB            1.00    115 A               2
                        (      28.480 eV)
   127     127       --         1.065 au  fB            1.00    116 A               2
                        (      28.978 eV)
   128     128       --         1.078 au  fB            1.00    117 A               2
                        (      29.330 eV)
   129     129       --         1.093 au  fB            1.00    118 A               2
                        (      29.744 eV)
   130     130       --         1.096 au  fB            1.00    119 A               2
                        (      29.811 eV)
   131     131       --         1.123 au  fB            1.00    120 A               2
                        (      30.545 eV)
   132     132       --         1.137 au  fB            1.00    121 A               2
                        (      30.932 eV)
   133     133       --         1.165 au  fB            1.00    122 A               2
                        (      31.691 eV)
   134     134       --         1.192 au  fB            1.00    123 A               2
                        (      32.427 eV)
   135     135       --         1.200 au  fB            1.00    124 A               2
                        (      32.656 eV)
   136     136       --         1.209 au  fB            1.00    125 A               2
                        (      32.903 eV)
   137     137       --         1.216 au  fB            1.00    126 A               2
                        (      33.078 eV)
   138     138       --         1.227 au  fB            1.00    127 A               2
                        (      33.395 eV)
   139     139       --         1.253 au  fB            1.00    128 A               2
                        (      34.100 eV)
   140     140       --         1.268 au  fB            1.00    129 A               2
                        (      34.503 eV)
   141     141       --         1.271 au  fB            1.00    130 A               2
                        (      34.590 eV)
   142     142       --         1.282 au  fB            1.00    131 A               2
                        (      34.871 eV)
   143     143       --         1.293 au  fB            1.00    132 A               2
                        (      35.178 eV)
   144     144       --         1.314 au  fB            1.00    133 A               2
                        (      35.749 eV)
   145     145       --         1.344 au  fB            1.00    134 A               2
                        (      36.585 eV)
   146     146       --         1.351 au  fB            1.00    135 A               2
                        (      36.767 eV)
   147     147       --         1.370 au  fB            1.00    136 A               2
                        (      37.285 eV)
   148     148       --         1.387 au  fB            1.00    137 A               2
                        (      37.729 eV)
   149     149       --         1.391 au  fB            1.00    138 A               2
                        (      37.854 eV)
   150     150       --         1.408 au  fB            1.00    139 A               2
                        (      38.302 eV)
   151     151       --         1.434 au  fB            1.00    140 A               2
                        (      39.026 eV)
   152     152       --         1.439 au  fB            1.00    141 A               2
                        (      39.144 eV)
   153     153       --         1.469 au  fB            1.00    142 A               2
                        (      39.981 eV)
   154     154       --         1.497 au  fB            1.00    143 A               2
                        (      40.737 eV)
   155     155       --         1.512 au  fB            1.00    144 A               2
                        (      41.134 eV)
   156     156       --         1.540 au  fB            1.00    145 A               2
                        (      41.895 eV)
   157     157       --         1.553 au  fB            1.00    146 A               2
                        (      42.257 eV)
   158     158       --         1.590 au  fB            1.00    147 A               2
                        (      43.255 eV)
   159     159       --         1.605 au  fB            1.00    148 A               2
                        (      43.671 eV)
   160     160       --         1.633 au  fB            1.00    149 A               2
                        (      44.433 eV)
   161     161       --         1.659 au  fB            1.00    150 A               2
                        (      45.153 eV)
   162     162       --         1.662 au  fB            1.00    151 A               2
                        (      45.231 eV)
   163     163       --         1.710 au  fB            1.00    152 A               2
                        (      46.544 eV)
   164     164       --         1.717 au  fB            1.00    153 A               2
                        (      46.709 eV)
   165     165       --         1.776 au  fB            1.00    154 A               2
                        (      48.339 eV)
   166     166       --         1.789 au  fB            1.00    155 A               2
                        (      48.674 eV)
   167     167       --         1.803 au  fB            1.00    156 A               2
                        (      49.050 eV)
   168     168       --         1.864 au  fB            1.00    157 A               2
                        (      50.735 eV)
   169     169       --         1.874 au  fB            1.00    158 A               2
                        (      51.004 eV)
   170     170       --         1.884 au  fB            1.00    159 A               2
                        (      51.271 eV)
   171     171       --         1.915 au  fB            1.00    160 A               2
                        (      52.098 eV)
   172     172       --         1.920 au  fB            1.00    161 A               2
                        (      52.235 eV)
   173     173       --         1.961 au  fB            1.00    162 A               2
                        (      53.360 eV)
   174     174       --         1.998 au  fB            1.00    163 A               2
                        (      54.382 eV)
   175     175       --         2.025 au  fB            1.00    164 A               2
                        (      55.105 eV)
   176     176       --         2.056 au  fB            1.00    165 A               2
                        (      55.947 eV)
   177     177       --         2.071 au  fB            1.00    166 A               2
                        (      56.365 eV)
   178     178       --         2.095 au  fB            1.00    167 A               2
                        (      57.015 eV)
   179     179       --         2.110 au  fB            1.00    168 A               2
                        (      57.420 eV)
   180     180       --         2.128 au  fB            1.00    169 A               2
                        (      57.909 eV)
   181     181       --         2.170 au  fB            1.00    170 A               2
                        (      59.035 eV)
   182     182       --         2.196 au  fB            1.00    171 A               2
                        (      59.754 eV)
   183     183       --         2.211 au  fB            1.00    172 A               2
                        (      60.169 eV)
   184     184       --         2.235 au  fB            1.00    173 A               2
                        (      60.814 eV)
   185     185       --         2.274 au  fB            1.00    174 A               2
                        (      61.887 eV)
   186     186       --         2.281 au  fB            1.00    175 A               2
                        (      62.062 eV)
   187     187       --         2.323 au  fB            1.00    176 A               2
                        (      63.226 eV)
   188     188       --         2.338 au  fB            1.00    177 A               2
                        (      63.622 eV)
   189     189       --         2.408 au  fB            1.00    178 A               2
                        (      65.525 eV)
   190     190       --         2.424 au  fB            1.00    179 A               2
                        (      65.950 eV)
   191     191       --         2.440 au  fB            1.00    180 A               2
                        (      66.387 eV)
   192     192       --         2.455 au  fB            1.00    181 A               2
                        (      66.814 eV)
   193     193       --         2.461 au  fB            1.00    182 A               2
                        (      66.963 eV)
   194     194       --         2.495 au  fB            1.00    183 A               2
                        (      67.880 eV)
   195     195       --         2.522 au  fB            1.00    184 A               2
                        (      68.631 eV)
   196     196       --         2.582 au  fB            1.00    185 A               2
                        (      70.272 eV)
   197     197       --         2.613 au  fB            1.00    186 A               2
                        (      71.106 eV)
   198     198       --         2.645 au  fB            1.00    187 A               2
                        (      71.983 eV)
   199     199       --         2.662 au  fB            1.00    188 A               2
                        (      72.442 eV)
   200     200       --         2.688 au  fB            1.00    189 A               2
                        (      73.146 eV)
   201     201       --         2.732 au  fB            1.00    190 A               2
                        (      74.351 eV)
   202     202       --         2.739 au  fB            1.00    191 A               2
                        (      74.540 eV)
   203     203       --         2.801 au  fB            1.00    192 A               2
                        (      76.228 eV)
   204     204       --         2.806 au  fB            1.00    193 A               2
                        (      76.363 eV)
   205     205       --         2.842 au  fB            1.00    194 A               2
                        (      77.336 eV)
   206     206       --         2.868 au  fB            1.00    195 A               2
                        (      78.030 eV)
   207     207       --         2.896 au  fB            1.00    196 A               2
                        (      78.804 eV)
   208     208       --         2.908 au  fB            1.00    197 A               2
                        (      79.136 eV)
   209     209       --         2.940 au  fB            1.00    198 A               2
                        (      80.002 eV)
   210     210       --         2.979 au  fB            1.00    199 A               2
                        (      81.075 eV)
   211     211       --         2.992 au  fB            1.00    200 A               2
                        (      81.421 eV)
   212     212       --         3.004 au  fB            1.00    201 A               2
                        (      81.753 eV)
   213     213       --         3.038 au  fB            1.00    202 A               2
                        (      82.673 eV)
   214     214       --         3.054 au  fB            1.00    203 A               2
                        (      83.103 eV)
   215     215       --         3.147 au  fB            1.00    204 A               2
                        (      85.644 eV)
   216     216       --         3.173 au  fB            1.00    205 A               2
                        (      86.345 eV)
   217     217       --         3.219 au  fB            1.00    206 A               2
                        (      87.593 eV)
   218     218       --         3.249 au  fB            1.00    207 A               2
                        (      88.408 eV)
   219     219       --         3.267 au  fB            1.00    208 A               2
                        (      88.901 eV)
   220     220       --         3.354 au  fB            1.00    209 A               2
                        (      91.275 eV)
   221     221       --         3.374 au  fB            1.00    210 A               2
                        (      91.822 eV)
   222     222       --         3.391 au  fB            1.00    211 A               2
                        (      92.281 eV)
   223     223       --         3.396 au  fB            1.00    212 A               2
                        (      92.399 eV)
   224     224       --         3.422 au  fB            1.00    213 A               2
                        (      93.127 eV)
   225     225       --         3.447 au  fB            1.00    214 A               2
                        (      93.788 eV)
   226     226       --         3.471 au  fB            1.00    215 A               2
                        (      94.457 eV)
   227     227       --         3.488 au  fB            1.00    216 A               2
                        (      94.914 eV)
   228     228       --         3.501 au  fB            1.00    217 A               2
                        (      95.271 eV)
   229     229       --         3.514 au  fB            1.00    218 A               2
                        (      95.630 eV)
   230     230       --         3.541 au  fB            1.00    219 A               2
                        (      96.365 eV)
   231     231       --         3.551 au  fB            1.00    220 A               2
                        (      96.625 eV)
   232     232       --         3.554 au  fB            1.00    221 A               2
                        (      96.700 eV)
   233     233       --         3.587 au  fB            1.00    222 A               2
                        (      97.614 eV)
   234     234       --         3.597 au  fB            1.00    223 A               2
                        (      97.876 eV)
   235     235       --         3.620 au  fB            1.00    224 A               2
                        (      98.519 eV)
   236     236       --         3.669 au  fB            1.00    225 A               2
                        (      99.835 eV)
   237     237       --         3.672 au  fB            1.00    226 A               2
                        (      99.911 eV)
   238     238       --         3.736 au  fB            1.00    227 A               2
                        (     101.666 eV)
   239     239       --         3.756 au  fB            1.00    228 A               2
                        (     102.205 eV)
   240     240       --         3.779 au  fB            1.00    229 A               2
                        (     102.838 eV)
   241     241       --         3.808 au  fB            1.00    230 A               2
                        (     103.632 eV)
   242     242       --         3.827 au  fB            1.00    231 A               2
                        (     104.140 eV)
   243     243       --         3.843 au  fB            1.00    232 A               2
                        (     104.566 eV)
   244     244       --         3.854 au  fB            1.00    233 A               2
                        (     104.884 eV)
   245     245       --         3.880 au  fB            1.00    234 A               2
                        (     105.573 eV)
   246     246       --         3.915 au  fB            1.00    235 A               2
                        (     106.531 eV)
   247     247       --         3.948 au  fB            1.00    236 A               2
                        (     107.438 eV)
   248     248       --         3.978 au  fB            1.00    237 A               2
                        (     108.257 eV)
   249     249       --         3.986 au  fB            1.00    238 A               2
                        (     108.457 eV)
   250     250       --         4.005 au  fB            1.00    239 A               2
                        (     108.981 eV)
   251     251       --         4.056 au  fB            1.00    240 A               2
                        (     110.359 eV)
   252     252       --         4.079 au  fB            1.00    241 A               2
                        (     110.994 eV)
   253     253       --         4.151 au  fB            1.00    242 A               2
                        (     112.943 eV)
   254     254       --         4.155 au  fB            1.00    243 A               2
                        (     113.050 eV)
   255     255       --         4.194 au  fB            1.00    244 A               2
                        (     114.129 eV)
   256     256       --         4.236 au  fB            1.00    245 A               2
                        (     115.266 eV)
   257     257       --         4.253 au  fB            1.00    246 A               2
                        (     115.730 eV)
   258     258       --         4.312 au  fB            1.00    247 A               2
                        (     117.328 eV)
   259     259       --         4.323 au  fB            1.00    248 A               2
                        (     117.629 eV)
   260     260       --         4.345 au  fB            1.00    249 A               2
                        (     118.244 eV)
   261     261       --         4.362 au  fB            1.00    250 A               2
                        (     118.690 eV)
   262     262       --         4.374 au  fB            1.00    251 A               2
                        (     119.021 eV)
   263     263       --         4.432 au  fB            1.00    252 A               2
                        (     120.591 eV)
   264     264       --         4.455 au  fB            1.00    253 A               2
                        (     121.217 eV)
   265     265       --         4.510 au  fB            1.00    254 A               2
                        (     122.711 eV)
   266     266       --         4.533 au  fB            1.00    255 A               2
                        (     123.343 eV)
   267     267       --         4.555 au  fB            1.00    256 A               2
                        (     123.935 eV)
   268     268       --         4.596 au  fB            1.00    257 A               2
                        (     125.067 eV)
   269     269       --         4.614 au  fB            1.00    258 A               2
                        (     125.543 eV)
   270     270       --         4.659 au  fB            1.00    259 A               2
                        (     126.788 eV)
   271     271       --         4.687 au  fB            1.00    260 A               2
                        (     127.528 eV)
   272     272       --         4.769 au  fB            1.00    261 A               2
                        (     129.780 eV)
   273     273       --         4.782 au  fB            1.00    262 A               2
                        (     130.121 eV)
   274     274       --         4.820 au  fB            1.00    263 A               2
                        (     131.147 eV)
   275     275       --         4.843 au  fB            1.00    264 A               2
                        (     131.792 eV)
   276     276       --         4.937 au  fB            1.00    265 A               2
                        (     134.355 eV)
   277     277       --         4.951 au  fB            1.00    266 A               2
                        (     134.711 eV)
   278     278       --         4.974 au  fB            1.00    267 A               2
                        (     135.349 eV)
   279     279       --         5.019 au  fB            1.00    268 A               2
                        (     136.567 eV)
   280     280       --         5.071 au  fB            1.00    269 A               2
                        (     137.995 eV)
   281     281       --         5.150 au  fB            1.00    270 A               2
                        (     140.152 eV)
   282     282       --         5.160 au  fB            1.00    271 A               2
                        (     140.404 eV)
   283     283       --         5.200 au  fB            1.00    272 A               2
                        (     141.501 eV)
   284     284       --         5.298 au  fB            1.00    273 A               2
                        (     144.166 eV)
   285     285       --         5.354 au  fB            1.00    274 A               2
                        (     145.700 eV)
   286     286       --         5.399 au  fB            1.00    275 A               2
                        (     146.923 eV)
   287     287       --         5.442 au  fB            1.00    276 A               2
                        (     148.081 eV)
   288     288       --         5.482 au  fB            1.00    277 A               2
                        (     149.182 eV)
   289     289       --         5.563 au  fB            1.00    278 A               2
                        (     151.374 eV)
   290     290       --         5.601 au  fB            1.00    279 A               2
                        (     152.416 eV)
   291     291       --         5.626 au  fB            1.00    280 A               2
                        (     153.083 eV)
   292     292       --         5.731 au  fB            1.00    281 A               2
                        (     155.954 eV)
   293     293       --         5.834 au  fB            1.00    282 A               2
                        (     158.745 eV)
   294     294       --         5.927 au  fB            1.00    283 A               2
                        (     161.280 eV)
   295     295       --         6.027 au  fB            1.00    284 A               2
                        (     164.013 eV)
   296     296       --         6.100 au  fB            1.00    285 A               2
                        (     165.991 eV)
   297     297       --         6.162 au  fB            1.00    286 A               2
                        (     167.665 eV)
   298     298       --         6.212 au  fB            1.00    287 A               2
                        (     169.035 eV)
   299     299       --         6.284 au  fB            1.00    288 A               2
                        (     170.995 eV)
   300     300       --         6.335 au  fB            1.00    289 A               2
                        (     172.387 eV)
   301     301       --         6.374 au  fB            1.00    290 A               2
                        (     173.444 eV)
   302     302       --         6.414 au  fB            1.00    291 A               2
                        (     174.524 eV)
   303     303       --         6.471 au  fB            1.00    292 A               2
                        (     176.094 eV)
   304     304       --         6.519 au  fB            1.00    293 A               2
                        (     177.405 eV)
   305     305       --         6.558 au  fB            1.00    294 A               2
                        (     178.444 eV)
   306     306       --         6.575 au  fB            1.00    295 A               2
                        (     178.909 eV)
   307     307       --         6.666 au  fB            1.00    296 A               2
                        (     181.397 eV)
   308     308       --         6.809 au  fB            1.00    297 A               2
                        (     185.292 eV)
   309     309       --         6.845 au  fB            1.00    298 A               2
                        (     186.265 eV)
   310     310       --         6.875 au  fB            1.00    299 A               2
                        (     187.076 eV)
   311     311       --         6.884 au  fB            1.00    300 A               2
                        (     187.324 eV)
   312     312       --         7.125 au  fB            1.00    301 A               2
                        (     193.889 eV)
   313     313       --         7.187 au  fB            1.00    302 A               2
                        (     195.575 eV)
   314     314       --         7.376 au  fB            1.00    303 A               2
                        (     200.701 eV)
   315     315       --         7.423 au  fB            1.00    304 A               2
                        (     201.999 eV)
   316     316       --         7.442 au  fB            1.00    305 A               2
                        (     202.504 eV)
   317     317       --         7.487 au  fB            1.00    306 A               2
                        (     203.739 eV)
   318     318       --         7.564 au  fB            1.00    307 A               2
                        (     205.840 eV)
   319     319       --         7.738 au  fB            1.00    308 A               2
                        (     210.565 eV)
   320     320       --         7.750 au  fB            1.00    309 A               2
                        (     210.888 eV)
   321     321       --         7.820 au  fB            1.00    310 A               2
                        (     212.790 eV)
   322     322       --         8.252 au  fB            1.00    311 A               2
                        (     224.551 eV)
   323     323       --         8.666 au  fB            1.00    312 A               2
                        (     235.827 eV)
   324     324       --         8.857 au  fB            1.00    313 A               2
                        (     241.008 eV)
   325     325       --         9.278 au  fB            1.00    314 A               2
                        (     252.477 eV)
   326     326       --         9.342 au  fB            1.00    315 A               2
                        (     254.203 eV)
   327     327       --         9.751 au  fB            1.00    316 A               2
                        (     265.348 eV)
   328     328       --        10.536 au  fB            1.00    317 A               2
                        (     286.699 eV)
   329     329       --        11.152 au  fB            1.00    318 A               2
                        (     303.457 eV)
   330     330       --        13.989 au  fB            1.00    319 A               2
                        (     380.647 eV)
   331     331       --        15.647 au  fB            1.00    320 A               2
                        (     425.767 eV)
   332     332       --        15.953 au  fB            1.00    321 A               2
                        (     434.112 eV)
   333     333       --        19.101 au  fB            1.00    322 A               2
                        (     519.756 eV)
   334     334       --        19.228 au  fB            1.00    323 A               2
                        (     523.231 eV)
   335     335       --        19.677 au  fB            1.00    324 A               2
                        (     535.449 eV)
   336     336       --        54.667 au  fB            1.00    325 A               2
                        (    1487.563 eV)
   337     337       --        56.803 au  fB            1.00    326 A               2
                        (    1545.694 eV)
   338     338       --        58.210 au  fB            1.00    327 A               2
                        (    1583.985 eV)
   339     339       --        60.178 au  fB            1.00    328 A               2
                        (    1637.522 eV)
   340     340       --        69.810 au  fB            1.00    329 A               2
                        (    1899.619 eV)
   341     341       --        71.525 au  fB            1.00    330 A               2
                        (    1946.288 eV)
   342     342       --        71.931 au  fB            1.00    331 A               2
                        (    1957.333 eV)
   343     343       --       127.821 au  fB            1.00    332 A               2
                        (    3478.177 eV)
   344     344       --       128.780 au  fB            1.00    333 A               2
                        (    3504.275 eV)
   345     345       --       210.102 au  fB            1.00    334 A               2
                        (    5717.153 eV)



 ================================
 (Slater-type)  F U N C T I O N S  ***  (Basis and Fit)  ***
 ================================
  

 Atom Type    1  (H)
 ==============

 Valence Basis Sets:   5
 -----------------------
   1 S    0.690000
   1 S    0.920000
   1 S    1.580000
   2 P    1.250000
   3 D    2.500000

 Atom Type    2  (C)
 ==============

 Valence Basis Sets:  10
 -----------------------
   1 S    7.680000
   1 S    5.000000
   2 S    1.280000
   2 S    2.100000
   2 S    4.600000
   2 P    0.820000
   2 P    1.480000
   2 P    2.940000
   3 D    2.200000
   4 F    3.300000

 Atom Type    3  (H)
 ==============

 Valence Basis Sets:   5
 -----------------------
   1 S    0.690000
   1 S    0.920000
   1 S    1.580000
   2 P    1.250000
   3 D    2.500000

 Atom Type    4  (Cl)
 ==============

 Valence Basis Sets:  14
 -----------------------
   1 S   20.300000
   1 S   15.250000
   2 S    6.250000
   2 S    4.450000
   2 P    8.850000
   2 P    5.050000
   3 S    3.450000
   3 S    2.300000
   3 S    1.600000
   3 P    3.350000
   3 P    2.050000
   3 P    1.200000
   3 D    2.000000
   4 F    2.000000

 Atom Type    5  (N)
 ==============

 Valence Basis Sets:  10
 -----------------------
   1 S    8.740000
   1 S    5.900000
   2 S    5.150000
   2 S    2.500000
   2 S    1.500000
   2 P    3.680000
   2 P    1.880000
   2 P    1.000000
   3 D    2.200000
   4 F    3.300000

 Atom Type    6  (O)
 ==============

 Valence Basis Sets:  10
 -----------------------
   1 S    9.800000
   1 S    6.800000
   2 S    7.580000
   2 S    2.880000
   2 S    1.720000
   2 P    4.080000
   2 P    2.080000
   2 P    1.120000
   3 D    2.000000
   4 F    3.000000


 BAS: List of all Elementary Cartesian Basis Functions
 =====================================================

 The numbering in the list below (to the right of the function characteristics) is referred
 to in print-outs of MO eigenvectors and Mulliken populations in the BAS representation
 (as contrasted to the SFO representation).

 Notes:
 1. The functions are characterized by a polynomial prefactor (powers of x,y,z and r) and
    an exponential decay factor alpha.
 2. Since the basis sets are specific for an atom TYPE, the individual functions occur on
    all atoms of that type.
 3. The word 'Core' in the left margin signals that it is a Core Function (CF) : not a
    degree of freedom in the valence set, but only used to ensure orthogonalization of
    the other valence basis functions on the frozen Core Orbitals.


 (power of) X  Y  Z  R     Alpha  on Atom
            ==========     =====     ==========

 H                                    1
                                  ---------------------------------------------------------------------------
            0  0  0  0     0.690      1
            0  0  0  0     0.920      2
            0  0  0  0     1.580      3
            1  0  0  0     1.250      4
            0  1  0  0     1.250      5
            0  0  1  0     1.250      6
            2  0  0  0     2.500      7
            1  1  0  0     2.500      8
            1  0  1  0     2.500      9
            0  2  0  0     2.500     10
            0  1  1  0     2.500     11
            0  0  2  0     2.500     12

 C                                    2    3    4    5
                                  ---------------------------------------------------------------------------
            0  0  0  0     7.680     13   43   73  103
            0  0  0  0     5.000     14   44   74  104
            0  0  0  1     1.280     15   45   75  105
            0  0  0  1     2.100     16   46   76  106
            0  0  0  1     4.600     17   47   77  107
            1  0  0  0     0.820     18   48   78  108
            0  1  0  0     0.820     19   49   79  109
            0  0  1  0     0.820     20   50   80  110
            1  0  0  0     1.480     21   51   81  111
            0  1  0  0     1.480     22   52   82  112
            0  0  1  0     1.480     23   53   83  113
            1  0  0  0     2.940     24   54   84  114
            0  1  0  0     2.940     25   55   85  115
            0  0  1  0     2.940     26   56   86  116
            2  0  0  0     2.200     27   57   87  117
            1  1  0  0     2.200     28   58   88  118
            1  0  1  0     2.200     29   59   89  119
            0  2  0  0     2.200     30   60   90  120
            0  1  1  0     2.200     31   61   91  121
            0  0  2  0     2.200     32   62   92  122
            3  0  0  0     3.300     33   63   93  123
            2  1  0  0     3.300     34   64   94  124
            2  0  1  0     3.300     35   65   95  125
            1  2  0  0     3.300     36   66   96  126
            1  1  1  0     3.300     37   67   97  127
            1  0  2  0     3.300     38   68   98  128
            0  3  0  0     3.300     39   69   99  129
            0  2  1  0     3.300     40   70  100  130
            0  1  2  0     3.300     41   71  101  131
            0  0  3  0     3.300     42   72  102  132

 H                                    6    7    8    9   10   11
                                  ---------------------------------------------------------------------------
            0  0  0  0     0.690    133  145  157  169  181  193
            0  0  0  0     0.920    134  146  158  170  182  194
            0  0  0  0     1.580    135  147  159  171  183  195
            1  0  0  0     1.250    136  148  160  172  184  196
            0  1  0  0     1.250    137  149  161  173  185  197
            0  0  1  0     1.250    138  150  162  174  186  198
            2  0  0  0     2.500    139  151  163  175  187  199
            1  1  0  0     2.500    140  152  164  176  188  200
            1  0  1  0     2.500    141  153  165  177  189  201
            0  2  0  0     2.500    142  154  166  178  190  202
            0  1  1  0     2.500    143  155  167  179  191  203
            0  0  2  0     2.500    144  156  168  180  192  204

 Cl                                  12
                                  ---------------------------------------------------------------------------
            0  0  0  0    20.300    205
            0  0  0  0    15.250    206
            0  0  0  1     6.250    207
            0  0  0  1     4.450    208
            1  0  0  0     8.850    209
            0  1  0  0     8.850    210
            0  0  1  0     8.850    211
            1  0  0  0     5.050    212
            0  1  0  0     5.050    213
            0  0  1  0     5.050    214
            0  0  0  2     3.450    215
            0  0  0  2     2.300    216
            0  0  0  2     1.600    217
            1  0  0  1     3.350    218
            0  1  0  1     3.350    219
            0  0  1  1     3.350    220
            1  0  0  1     2.050    221
            0  1  0  1     2.050    222
            0  0  1  1     2.050    223
            1  0  0  1     1.200    224
            0  1  0  1     1.200    225
            0  0  1  1     1.200    226
            2  0  0  0     2.000    227
            1  1  0  0     2.000    228
            1  0  1  0     2.000    229
            0  2  0  0     2.000    230
            0  1  1  0     2.000    231
            0  0  2  0     2.000    232
            3  0  0  0     2.000    233
            2  1  0  0     2.000    234
            2  0  1  0     2.000    235
            1  2  0  0     2.000    236
            1  1  1  0     2.000    237
            1  0  2  0     2.000    238
            0  3  0  0     2.000    239
            0  2  1  0     2.000    240
            0  1  2  0     2.000    241
            0  0  3  0     2.000    242

 N                                   13   14   15
                                  ---------------------------------------------------------------------------
            0  0  0  0     8.740    243  273  303
            0  0  0  0     5.900    244  274  304
            0  0  0  1     5.150    245  275  305
            0  0  0  1     2.500    246  276  306
            0  0  0  1     1.500    247  277  307
            1  0  0  0     3.680    248  278  308
            0  1  0  0     3.680    249  279  309
            0  0  1  0     3.680    250  280  310
            1  0  0  0     1.880    251  281  311
            0  1  0  0     1.880    252  282  312
            0  0  1  0     1.880    253  283  313
            1  0  0  0     1.000    254  284  314
            0  1  0  0     1.000    255  285  315
            0  0  1  0     1.000    256  286  316
            2  0  0  0     2.200    257  287  317
            1  1  0  0     2.200    258  288  318
            1  0  1  0     2.200    259  289  319
            0  2  0  0     2.200    260  290  320
            0  1  1  0     2.200    261  291  321
            0  0  2  0     2.200    262  292  322
            3  0  0  0     3.300    263  293  323
            2  1  0  0     3.300    264  294  324
            2  0  1  0     3.300    265  295  325
            1  2  0  0     3.300    266  296  326
            1  1  1  0     3.300    267  297  327
            1  0  2  0     3.300    268  298  328
            0  3  0  0     3.300    269  299  329
            0  2  1  0     3.300    270  300  330
            0  1  2  0     3.300    271  301  331
            0  0  3  0     3.300    272  302  332

 O                                   16   17
                                  ---------------------------------------------------------------------------
            0  0  0  0     9.800    333  363
            0  0  0  0     6.800    334  364
            0  0  0  1     7.580    335  365
            0  0  0  1     2.880    336  366
            0  0  0  1     1.720    337  367
            1  0  0  0     4.080    338  368
            0  1  0  0     4.080    339  369
            0  0  1  0     4.080    340  370
            1  0  0  0     2.080    341  371
            0  1  0  0     2.080    342  372
            0  0  1  0     2.080    343  373
            1  0  0  0     1.120    344  374
            0  1  0  0     1.120    345  375
            0  0  1  0     1.120    346  376
            2  0  0  0     2.000    347  377
            1  1  0  0     2.000    348  378
            1  0  1  0     2.000    349  379
            0  2  0  0     2.000    350  380
            0  1  1  0     2.000    351  381
            0  0  2  0     2.000    352  382
            3  0  0  0     3.000    353  383
            2  1  0  0     3.000    354  384
            2  0  1  0     3.000    355  385
            1  2  0  0     3.000    356  386
            1  1  1  0     3.000    357  387
            1  0  2  0     3.000    358  388
            0  3  0  0     3.000    359  389
            0  2  1  0     3.000    360  390
            0  1  2  0     3.000    361  391
            0  0  3  0     3.000    362  392

 Total number of charge fitting functions (nprimf)      1212
 Total number of Cartesian basis functions (naos)        392
 Total number of Cartesian core functions  (ncos)          0

 ***************************************************************************************************



                                              ***********************
                                              *  T E C H N I C A L  *
                                              ***********************
  



 =============================================================
 P A R A L L E L I Z A T I O N  and  V E C T O R I Z A T I O N
 =============================================================
  
 Nr of parallel processes:                                1
 Maximum vector length in NumInt loops:                 128



 =====================
 S C F   U P D A T E S
 =====================
  
 Max. nr. of cycles:                               200
 Convergence criterion:                              0.0000010000
   secondary criterion:                              0.0010000000

 Mix parameter (when DIIS does not apply):           0.2000000000
 Mixed ADIIS+SDIIS will be used                  
    Max number of expansion vectors:                10
    Pure ADIIS when Max([F,P]) is above              0.1000000000
    Pure SDIIS when Max([F,P]) is below              0.0010000000
 Automatic ElectronSmearing (in case of problematic SCF convergence) disabled



 =================
 P R E C I S I O N  ***  (General: NumInt, NeglectFunctionTails, ...)  ***
 =================
  

 NumInt:           Target precision:                 4.0000000000
 -------           Initial precision:                4.0000000000
                   Min. precision (optimization):    4.0000000000

 Neglect Functions:          Basis functions:        0.1000000000E-05
 ------------------          Fit functions:          0.1000000000E-05



 ===========================
 L I N E A R   S C A L I N G
 ===========================
  

 Cut-off radii density fit:                        0.1000000000E-07
 Overlap cut-off criterion AO matrix elements:     0.1000000000E-05
 Cut-offs for Coulomb potential and fitted density:0.1000000000E-07
 Cut-off criterion for Coulomb multipole terms:    0.1000000000E-07
 Progressive Convergence parameter:                 0.000000000    
 ***************************************************************************************************



                                            ***************************
                                            *  C O M P U T A T I O N  *
                                            ***************************
  

 Number of elements of the density matrix on this node (used, total):     77028     77028



 ===========================================
 Numerical Integration : Fuzzy Cells (Becke)
 ===========================================
  
 Becke grid quality: NORMAL         
  
 Lebedev angular grid order:             min:  11 max:  23
 Nr. of radial points:                   min:  46 max:  67

 Total nr. of points:     113592
 Nr. of blocks:              888
 Block length:               128
 Nr. of dummy points:         72


 Test of Precision of the Numerical Integration Grid
 ===================================================

 Integral of the Total Core Density:                   0.00000000000000



 ========================
 Density Fitting (zlmFit)
 ========================
  
 ZlmFit Fit Quality: NORMAL         
  
 Max L-expansion:                        min:   6 max:   7
 Nr. of radial interpolation points:     min:  39 max:  60



 =====
 S C F  ***  ScaSCF  ***
 =====
  
 Initial density matrix is calculated as sum of fragments

 CYCLE    1
 SCF Error: norm([F,P])=      1.262498322434, max([F,P])=      0.628230843116
 orbitals (Q,E):
 ---------------
 A :34...53          ( 2.00    -0.1776)  ( 2.00    -0.1748)  ( 2.00    -0.1548)  ( 2.00    -0.1501)
                     ( 2.00    -0.1488)  ( 2.00    -0.1319)  ( 2.00    -0.1293)  ( 2.00    -0.1236)
                     ( 2.00    -0.0705)  ( 2.00     0.0045)  ( 0.00     0.0150)  ( 0.00     0.0934)
                     ( 0.00     0.1232)  ( 0.00     0.1274)  ( 0.00     0.1540)  ( 0.00     0.1662)
                     ( 0.00     0.1947)  ( 0.00     0.1998)  ( 0.00     0.2033)  ( 0.00     0.2119)

 CYCLE    2
   MIX coefficients:  0.8000  0.2000
 SCF Error: norm([F,P])=      1.516971096023, max([F,P])=      0.522230527874
 orbitals (Q,E):
 ---------------
[...]
                                    3.52%    44 A              -3.448  0.00     2 fB
                                    2.74%    54 A               2.127  0.00     2 fB
                                    2.64%    32 A             -10.330  2.00     2 fB
                                    2.33%    39 A              -7.706  2.00     2 fB
                                    2.23%    58 A               3.951  0.00     2 fB
                                    2.22%    35 A              -9.188  2.00     2 fB
                                    2.21%    36 A              -8.795  2.00     2 fB
                                    2.12%    41 A              -7.360  2.00     2 fB
                                    2.11%    64 A               5.868  0.00     2 fB
                                    2.04%    57 A               3.517  0.00     2 fB
                                    1.82%    33 A             -10.021  2.00     2 fB
                                    1.61%    52 A               1.429  0.00     2 fB
                                    1.42%    61 A               4.936  0.00     2 fB
                                    1.39%    38 A              -7.731  2.00     2 fB
                                    1.35%    53 A               1.744  0.00     2 fB
                                    1.17%    73 A               8.248  0.00     2 fB
                                    1.16%    40 A              -7.664  2.00     2 fB
      -0.06055         6 A         14.00%    39 A              -7.706  2.00     2 fB
                                    9.30%    47 A              -0.431  0.00     2 fB
                                    7.30%    40 A              -7.664  2.00     2 fB
                                    7.20%    41 A              -7.360  2.00     2 fB
                                    4.95%    57 A               3.517  0.00     2 fB
                                    4.82%    46 A              -1.423  0.00     2 fB
                                    4.32%    51 A               0.907  0.00     2 fB
                                    4.22%    42 A              -6.934  2.00     2 fB
                                    3.14%    36 A              -8.795  2.00     2 fB
                                    2.89%    30 A             -10.988  2.00     2 fB
                                    2.66%    32 A             -10.330  2.00     2 fB
                                    2.64%    52 A               1.429  0.00     2 fB
                                    2.61%    54 A               2.127  0.00     2 fB
                                    2.08%    70 A               7.429  0.00     2 fB
                                    1.93%    26 A             -13.722  2.00     2 fB
                                    1.78%    56 A               3.158  0.00     2 fB
                                    1.67%    60 A               4.566  0.00     2 fB
                                    1.67%    50 A               0.824  0.00     2 fB
                                    1.53%    24 A             -14.424  2.00     2 fB
                                    1.32%    34 A              -9.722  2.00     2 fB
                                    1.18%    59 A               4.156  0.00     2 fB
                                    1.13%    53 A               1.744  0.00     2 fB
                                    1.05%    58 A               3.951  0.00     2 fB
       0.06055       340 A         14.02%    39 A              -7.706  2.00     2 fB
                                    9.80%    47 A              -0.431  0.00     2 fB
                                    7.35%    40 A              -7.664  2.00     2 fB
                                    6.61%    41 A              -7.360  2.00     2 fB
                                    5.30%    46 A              -1.423  0.00     2 fB
                                    5.28%    57 A               3.517  0.00     2 fB
                                    5.04%    36 A              -8.795  2.00     2 fB
                                    4.67%    51 A               0.907  0.00     2 fB
                                    3.70%    42 A              -6.934  2.00     2 fB
                                    2.80%    52 A               1.429  0.00     2 fB
                                    2.74%    54 A               2.127  0.00     2 fB
                                    2.29%    32 A             -10.330  2.00     2 fB
                                    2.18%    70 A               7.429  0.00     2 fB
                                    1.88%    56 A               3.158  0.00     2 fB
                                    1.79%    60 A               4.566  0.00     2 fB
                                    1.77%    50 A               0.824  0.00     2 fB
                                    1.59%    26 A             -13.722  2.00     2 fB
                                    1.46%    34 A              -9.722  2.00     2 fB
                                    1.34%    30 A             -10.988  2.00     2 fB
                                    1.28%    59 A               4.156  0.00     2 fB
                                    1.21%    53 A               1.744  0.00     2 fB
                                    1.12%    58 A               3.951  0.00     2 fB
      -0.05027         7 A         11.00%    48 A              -0.120  0.00     2 fB
                                    7.74%    31 A             -10.643  2.00     2 fB
                                    7.18%    33 A             -10.021  2.00     2 fB
                                    7.06%    40 A              -7.664  2.00     2 fB
                                    6.89%    39 A              -7.706  2.00     2 fB
                                    5.22%    72 A               7.969  0.00     2 fB
                                    4.54%    50 A               0.824  0.00     2 fB
                                    4.39%    37 A              -8.150  2.00     2 fB
                                    4.01%    52 A               1.429  0.00     2 fB
                                    3.57%    36 A              -8.795  2.00     2 fB
                                    3.43%    29 A             -12.242  2.00     2 fB
                                    3.43%    62 A               5.056  0.00     2 fB
                                    3.07%    32 A             -10.330  2.00     2 fB
                                    2.97%    66 A               6.235  0.00     2 fB
                                    2.62%    64 A               5.868  0.00     2 fB
                                    2.44%    38 A              -7.731  2.00     2 fB
                                    2.15%    41 A              -7.360  2.00     2 fB
                                    1.25%    58 A               3.951  0.00     2 fB
                                    1.13%    27 A             -13.362  2.00     2 fB
                                    1.09%    57 A               3.517  0.00     2 fB
                                    1.02%    55 A               2.700  0.00     2 fB
       0.05027       339 A         11.57%    48 A              -0.120  0.00     2 fB
                                    9.00%    31 A             -10.643  2.00     2 fB
                                    6.89%    40 A              -7.664  2.00     2 fB
                                    6.30%    39 A              -7.706  2.00     2 fB
                                    5.81%    33 A             -10.021  2.00     2 fB
                                    5.49%    72 A               7.969  0.00     2 fB
                                    4.77%    50 A               0.824  0.00     2 fB
                                    4.32%    37 A              -8.150  2.00     2 fB
                                    4.21%    52 A               1.429  0.00     2 fB
                                    3.71%    29 A             -12.242  2.00     2 fB
                                    3.60%    62 A               5.056  0.00     2 fB
                                    3.13%    66 A               6.235  0.00     2 fB
                                    2.76%    64 A               5.868  0.00     2 fB
                                    2.65%    32 A             -10.330  2.00     2 fB
                                    2.51%    36 A              -8.795  2.00     2 fB
                                    2.41%    38 A              -7.731  2.00     2 fB
                                    1.96%    41 A              -7.360  2.00     2 fB
                                    1.32%    58 A               3.951  0.00     2 fB
                                    1.15%    57 A               3.517  0.00     2 fB
                                    1.07%    55 A               2.700  0.00     2 fB
 Mulliken charges used for AMS results%charges...


    =====================
     CALCULATION RESULTS
    =====================

Energy (hartree)            -0.08181740


--------------
Atomic charges
--------------
  Index   Atom    Charge
      1      H   -0.4756
      2      C    0.1927
      3      H   -0.1268
      4     Cl   -0.3763
      5      C    0.2699
      6      C    0.1367
      7      N   -0.3721
      8      N    0.0081
      9      H   -0.0297
     10      H   -0.0617
     11      N    0.5595
     12      O   -0.4150
     13      O   -0.4083
     14      C    0.7251
     15      H   -0.1946
     16      H   -0.1800
     17      H   -0.2519


Dipole moment vector    (Debye):     1.06993101   -0.47383352    1.14236944
              magnitude (Debye):     1.63532214


-----------------------
Molecular orbitals info
-----------------------
n orbitals:              345
n spin:                    1

Note: only printing virtual orbitals with
      energy smaller than HOMO + 100. eV

HOMO (eV):              -0.6070
LUMO (eV):               0.5990
HOMO-LUMO gap (eV):      1.2060

   Index   Energy (eV)    Occupation
     225       98.6613         0.000       
     224       98.2093         0.000       
     223       97.6273         0.000       
     222       97.0835         0.000       
     221       96.4910         0.000       
     220       96.1172         0.000       
     219       95.7793         0.000       
     218       94.6057         0.000       
     217       93.9586         0.000       
     216       93.5433         0.000       
     215       92.9813         0.000       
     214       92.4226         0.000       
     213       91.2670         0.000       
     212       89.6897         0.000       
     211       89.1532         0.000       
     210       88.0316         0.000       
     209       87.4308         0.000       
     208       86.9626         0.000       
     207       85.6531         0.000       
     206       85.0068         0.000       
     205       84.1692         0.000       
     204       83.9050         0.000       
     203       82.4289         0.000       
     202       81.9930         0.000       
     201       81.7096         0.000       
     200       81.5808         0.000       
     199       80.5215         0.000       
     198       79.3024         0.000       
     197       79.0518         0.000       
     196       78.1160         0.000       
     195       77.6453         0.000       
     194       76.8094         0.000       
     193       76.6565         0.000       
     192       75.9082         0.000       
     191       74.9497         0.000       
     190       74.4582         0.000       
     189       73.2151         0.000       
     188       72.7748         0.000       
     187       72.0627         0.000       
     186       70.8903         0.000       
     185       70.4551         0.000       
     184       70.1716         0.000       
     183       69.1372         0.000       
     182       68.2432         0.000       
     181       67.7756         0.000       
     180       66.9123         0.000       
     179       66.0432         0.000       
     178       65.6803         0.000       
     177       64.6133         0.000       
     176       64.2895         0.000       
     175       63.7092         0.000       
     174       62.0332         0.000       
     173       61.8439         0.000       
     172       61.5501         0.000       
     171       60.9606         0.000       
     170       60.3572         0.000       
     169       59.2658         0.000       
     168       58.6266         0.000       
     167       57.3948         0.000       
     166       56.8080         0.000       
     165       56.6358         0.000       
     164       56.0642         0.000       
     163       55.4063         0.000       
     162       55.1141         0.000       
     161       53.7872         0.000       
     160       53.3219         0.000       
     159       53.1778         0.000       
     158       51.5964         0.000       
     157       51.3613         0.000       
     156       51.2665         0.000       
     155       49.7672         0.000       
     154       49.5570         0.000       
     153       48.9708         0.000       
     152       48.1413         0.000       
     151       47.9427         0.000       
     150       47.2670         0.000       
     149       46.5598         0.000       
     148       45.6060         0.000       
     147       45.0349         0.000       
     146       44.4864         0.000       
     145       44.2414         0.000       
     144       43.4260         0.000       
     143       43.0389         0.000       
     142       42.6851         0.000       
     141       42.4109         0.000       
     140       42.0629         0.000       
     139       41.6048         0.000       
     138       41.3448         0.000       
     137       40.2370         0.000       
     136       39.7638         0.000       
     135       39.6965         0.000       
     134       39.2689         0.000       
     133       39.0499         0.000       
     132       38.5436         0.000       
     131       38.1146         0.000       
     130       37.8685         0.000       
     129       37.4077         0.000       
     128       37.3257         0.000       
     127       37.0161         0.000       
     126       36.8964         0.000       
     125       35.6337         0.000       
     124       35.1159         0.000       
     123       34.8505         0.000       
     122       34.3922         0.000       
     121       34.1755         0.000       
     120       33.8748         0.000       
     119       32.8168         0.000       
     118       32.2040         0.000       
     117       31.9854         0.000       
     116       31.7168         0.000       
     115       31.2545         0.000       
     114       30.7575         0.000       
     113       30.1450         0.000       
     112       29.5019         0.000       
     111       28.9262         0.000       
     110       28.5934         0.000       
     109       27.6305         0.000       
     108       27.0214         0.000       
     107       25.9982         0.000       
     106       25.3593         0.000       
     105       25.2049         0.000       
     104       24.5057         0.000       
     103       23.6507         0.000       
     102       22.9450         0.000       
     101       22.6570         0.000       
     100       22.4241         0.000       
      99       21.7981         0.000       
      98       21.5112         0.000       
      97       20.3870         0.000       
      96       20.1891         0.000       
      95       19.7265         0.000       
      94       18.9390         0.000       
      93       18.7121         0.000       
      92       18.3751         0.000       
      91       17.8401         0.000       
      90       17.4465         0.000       
      89       17.0471         0.000       
      88       16.4005         0.000       
      87       16.1074         0.000       
      86       15.7062         0.000       
      85       15.1593         0.000       
      84       15.1196         0.000       
      83       14.8887         0.000       
      82       14.7387         0.000       
      81       14.5210         0.000       
      80       14.1312         0.000       
      79       13.6218         0.000       
      78       13.5694         0.000       
      77       13.1551         0.000       
      76       13.1426         0.000       
      75       12.5795         0.000       
      74       12.4543         0.000       
      73       12.1467         0.000       
      72       11.9191         0.000       
      71       11.6572         0.000       
      70       11.3518         0.000       
      69       11.0107         0.000       
      68       10.4956         0.000       
      67       10.3169         0.000       
      66       10.2733         0.000       
      65       10.1230         0.000       
      64        9.2957         0.000       
      63        9.1402         0.000       
      62        8.8345         0.000       
      61        8.4503         0.000       
      60        8.3043         0.000       
      59        7.8937         0.000       
      58        7.6720         0.000       
      57        7.2880         0.000       
      56        6.8964         0.000       
      55        6.5774         0.000       
      54        5.9783         0.000       
      53        5.2567         0.000       
      52        5.1271         0.000       
      51        4.7157         0.000       
      50        4.6162         0.000       
      49        4.2594         0.000       
      48        3.7799         0.000       
      47        3.3868         0.000       
      46        3.0976         0.000       
      45        1.6912         0.000       
      44        0.5990         0.000 < LUMO
      43       -0.6070         2.000 < HOMO
      42       -2.4594         2.000       
      41       -2.7741         2.000       
      40       -2.9255         2.000       
      39       -3.2088         2.000       
      38       -3.5544         2.000       
      37       -3.6334         2.000       
      36       -3.9443         2.000       
      35       -4.1289         2.000       
      34       -4.3406         2.000       
      33       -5.3908         2.000       
      32       -5.9218         2.000       
      31       -6.1192         2.000       
      30       -6.6880         2.000       
      29       -7.8359         2.000       
      28       -8.6738         2.000       
      27       -8.8994         2.000       
      26       -9.1159         2.000       
      25       -9.6316         2.000       
      24       -9.9772         2.000       
      23      -10.9424         2.000       
      22      -13.4117         2.000       
      21      -13.8746         2.000       
      20      -15.5136         2.000       
      19      -17.1395         2.000       
      18      -17.5687         2.000       
      17      -19.4727         2.000       
      16      -22.6893         2.000       
      15      -27.0929         2.000       
      14     -185.3307         2.000       
      13     -185.3398         2.000       
      12     -185.5559         2.000       
      11     -246.3575         2.000       
      10     -266.5779         2.000       
       9     -266.8693         2.000       
       8     -268.2513         2.000       
       7     -269.4428         2.000       
       6     -376.7242         2.000       
       5     -377.8770         2.000       
       4     -383.8888         2.000       
       3     -508.7359         2.000       
       2     -508.7776         2.000       
       1    -2745.6104         2.000       

AMS application finished. Exiting.
NORMAL TERMINATION
     Total cpu time:     128.70
  Total system time:       0.45
 Total elapsed time:     129.50
NORMAL TERMINATION
