
 *******************************************************************************
 *                                                                             *
 *  --------------------------------                                           *
 *   Amsterdam Modeling Suite (AMS)              2026.103                      *
 *  --------------------------------                                           *
 *                                               r260501 2026-05-01 873454b5   *
 *                                                                             *
 *                                                                             *
 *                              =================                              *
 *                              |               |                              *
 *                              |     A M S     |                              *
 *                              |               |                              *
 *                              =================                              *
 *                                                                             *
 *                                                                             *
 *   Online information and documentation:  https://www.scm.com/support/       *
 *   E-mail:  support@scm.com   info@scm.com                                   *
 *                                                                             *
 *   Scientific publications using AMS results must be properly referenced     *
 *   See the User Manuals (or the web site) for recommended citations          *
 *   The terms and conditions of the End User License Agreement apply to       *
 *   the use of AMS, https://www.scm.com/license-terms/                        *
 *                                                                             *
 **********************  x86_64_linux_intel / intelmpi  ************************
 
 Licensed to: Jong-June Jeon / University of Seoul 2026-05-13 16:10:32
 SCM User ID: u30731
  
 AMS 2026.103  RunTime: May23-2026 11:41:03  ShM Nodes: 1  Procs: 1

 AMS jobname: frag1_opt
 AMS jobid  : 1594706506

 Start   directory: /gpfs/tmp_cpu2/yeseo1ee_plams/oh_batch/plams_oh/oh_eda/frag1_opt/
 Results directory: /gpfs/tmp_cpu2/yeseo1ee_plams/oh_batch/plams_oh/oh_eda/frag1_opt/
 Scratch directory: /tmp/amstmp_frag1_opt_kid0.1594706506/

 RNG seed: 1456077522 -680410312 1980940615 2029853361 -1189441157 -574937863 1370349438 2054907603



                      ************************************************************************
                      *  ADF 2026.103  RunTime: May23-2026 11:41:04  ShM Nodes: 1  Procs: 1  *
                      ************************************************************************
  

       ****************************
       * SINGLE POINT CALCULATION *
       ****************************

--------
Geometry
--------
Formula: C2H3O2
Atoms
  Index Symbol   x (angstrom)   y (angstrom)   z (angstrom)
      1      C     1.18367154    -1.08128087     0.80010113
      2      C     1.23593304    -0.11661566    -0.27378555
      3      O     1.35095601    -0.71321479    -1.51871736
      4      O     1.18530042     1.10404754    -0.13255047
      5      H     1.09818694    -0.71034047     1.81490059
      6      H     1.22591290    -2.14697468     0.60085974
      7      H     1.37561285     0.02093275    -2.16653241

Total System Charge              0.00000


----------------
ADF Engine Input
----------------
 
   basis
     core None
     type TZ2P
   End
   numericalquality Good
   relativity
     level Scalar
   End
   scf
     mixing 0.05
   End
   spinpolarization 1
   symmetry NOSYM
   unrestricted yes
   xc
     dispersion Grimme3 BJDAMP
     gga BLYP
   End
 

 Title: *** (NO TITLE) ***

 *** adf ***



 ===========================
 A T T A C H E D   F I L E S
 ===========================
  



 ===============================
 M O D E L   P A R A M E T E R S
 ===============================
  
 DENSITY FUNCTIONAL POTENTIAL (scf)
    LDA:                               Exchange only                           == Not Default ==
    Gradient Corrections:              Becke88 LYP                             == Not Default ==

 SPIN  (restricted / unrestr.)
    Molecule:                          UNrestricted                            == Not Default ==
    Fragments:                         Restricted                               

 OTHER ASPECTS
    Relativistic Corrections:          scalar (ZORA,MAPA)                       

    Nuclear Charge Density Model:      Point Charge Nuclei                      
    Core Treatment:                    Frozen Orbital(s)                        

    Hyperfine or Zeeman Interaction:   ---                                      

 Settings for Grimme D3 dispersion correction

      damping                        BJ
      s6                          1.000
      s8                          2.700
      a1                          0.430
      a2                          4.236

 Other (technical) parameters

      alpha                      14.000
      version                         4
 


 Fragment File(s)
 ----------------
 C:
         file : /gpfs/tmp_cpu2/yeseo1ee_plams/oh_batch/plams_oh/oh_eda/frag1_opt/t21.7F7683F6.C
         jobid: 0
         title: Carbon (TZ2P)
 O:
         file : /gpfs/tmp_cpu2/yeseo1ee_plams/oh_batch/plams_oh/oh_eda/frag1_opt/t21.1075635D.O
         jobid: 0
         title: Oxygen (TZ2P)
 H:
         file : /gpfs/tmp_cpu2/yeseo1ee_plams/oh_batch/plams_oh/oh_eda/frag1_opt/t21.5DE63076.H
         jobid: 0
         title: Hydrogen (TZ2P)



 ===============
 G E O M E T R Y  ***  3D  Molecule  ***
 ===============
  

 ATOMS
 =====                            X Y Z                    CHARGE
                                (Angstrom)             Nucl     +Core       At.Mass
                       --------------------------    ----------------       -------
    1  C               1.1837   -1.0813    0.8001      6.00      6.00       12.0000
    2  C               1.2359   -0.1166   -0.2738      6.00      6.00       12.0000
    3  O               1.3510   -0.7132   -1.5187      8.00      8.00       15.9949
    4  O               1.1853    1.1040   -0.1326      8.00      8.00       15.9949
    5  H               1.0982   -0.7103    1.8149      1.00      1.00        1.0078
    6  H               1.2259   -2.1470    0.6009      1.00      1.00        1.0078
    7  H               1.3756    0.0209   -2.1665      1.00      1.00        1.0078


 FRAGMENTS
 =========                                     Atoms in this Fragment     Cart. coord.s (Angstrom)
                                               -------------------------------------------------------
    1  C                                                 1  C            1.1837   -1.0813    0.8001
    2  C                                                 2  C            1.2359   -0.1166   -0.2738
    3  O                                                 3  O            1.3510   -0.7132   -1.5187
    4  O                                                 4  O            1.1853    1.1040   -0.1326
    5  H                                                 5  H            1.0982   -0.7103    1.8149
    6  H                                                 6  H            1.2259   -2.1470    0.6009
    7  H                                                 7  H            1.3756    0.0209   -2.1665


 Interatomic Distance Matrix (Angstrom)
 --------------------------------------

   1)     0.000
   2)     1.444   0.000
   3)     2.354   1.385   0.000
   4)     2.376   1.230   2.292   0.000
   5)     1.084   2.176   3.343   2.663   0.000
   6)     1.085   2.211   2.562   3.333   1.885   0.000
   7)     3.171   1.903   0.979   2.312   4.058   3.519   0.000

 Min. Distance =    0.9794
 Max. Distance =    4.0575



 =====================================
 S Y M M E T R Y ,   E L E C T R O N S
 =====================================
  
 Symmetry: NOSYM

 Irreducible Representations, including subspecies
 -------------------------------------------------
 A


 Configuration of Valence Electrons
 ==================================
 ( determined in the SCF procedure )

 Total:   16 (Spin-A)  + 15 (Spin-B)

 Net Charge: 0 (Nuclei minus Electrons)
 Spin polar: 1 (Spin_A minus Spin_B electrons)

 Aufbau principle for MO occupations will be applied through SCF cycle no.     150
 Thereafter, the program will assign electrons to MOs that are spatially
 similar to the occupied MOs in a "reference" cycle ("KeepOrbitals").
 The reference cycle is always the PREVIOUS cycle: it will evolve with
 the SCF procedure.
 ***************************************************************************************************



                                      ****************************************
                                      *  B U I L D : (Fragments, Functions)  *
                                      ****************************************
  



 =======
 S F O s  ***  (Symmetrized Fragment Orbitals)  ***
 =======
  
 SFOs are linear combinations of (valence) Fragment Orbitals (FOs), such that the SFOs transform as the
 irreducible representations of the (molecular) symmetry group. Each SFO is therefore characterized by
 an irrep of the molecule and by a few (or only one) generating FOs.
 The SFOs constitute a symmetry-adapted basis for the Fock matrix. The MO eigenvector coefficients in
 this basis provide a direct interpretation of the MOs in terms of Frontier Orbital Theory.

 The SFOs are combined with auxiliary Core Functions (CFs) to ensure orthogonalization on the (frozen)
 Core Orbitals (COs). The Core-orthogonalized SFOs (CSFOs) constitute the true Fock basis.

 The FOs, and hence also the (C)SFOs are combinations of the elementary basis functions (BAS). The basis
 functions that participate in the description of the SFOs depend on the irrep. The indices of the
 involved functions are printed below for each irrep.
 (The complete list of primitive basis functions is printed in another section)

 Total nr. of (C)SFOs (summation over all irreps) :   137

 NOTE: a (C)SFO that is defined as a combination of more than one FO is usually NOT normalized.



                                       === A ===
 Nr. of SFOs :  137
 Cartesian basis functions that participate in this irrep (total number =   156) :
      1     2     3     4     5     6     9    12     7    10
     13     8    11    14    15    16    17    18    19    20
     21    22    23    24    25    26    27    28    29    30
     31    32    33    34    35    36    39    42    37    40
     43    38    41    44    45    46    47    48    49    50
     51    52    53    54    55    56    57    58    59    60
     61    62    63    64    65    66    69    72    67    70
     73    68    71    74    75    76    77    78    79    80
     81    82    83    84    85    86    87    88    89    90
     91    92    93    94    95    96    99   102    97   100
    103    98   101   104   105   106   107   108   109   110
    111   112   113   114   115   116   117   118   119   120
    121   122   123   124   125   126   127   128   129   130
    131   132   133   134   135   136   137   138   139   140
    141   142   143   144   145   146   147   148   149   150
    151   152   153   154   155   156

    SFO  (index         Fragment          Generating    Expansion in Fragment Orbitals
  indx  incl.CFs)   Occup   Orb.Energy   FragmentType  Coeff.   Orbital     on Fragment
 --------------------------------------------------------------------------------------
     1       1      2.000     -10.066 au  C             1.00      1 S               1
                        (    -273.921 eV)
     2       2      2.000      -0.501 au  C             1.00      2 S               1
                        (     -13.620 eV)
     3       3       --         0.373 au  C             1.00      3 S               1
                        (      10.158 eV)
     4       4       --         5.405 au  C             1.00      4 S               1
                        (     147.073 eV)
     5       5       --        49.848 au  C             1.00      5 S               1
                        (    1356.422 eV)
     6       6      0.667      -0.193 au  C             1.00      1 P:x             1
                        (      -5.239 eV)
     7       7       --         0.169 au  C             1.00      2 P:x             1
                        (       4.589 eV)
     8       8       --         2.013 au  C             1.00      3 P:x             1
                        (      54.789 eV)
     9       9      0.667      -0.193 au  C             1.00      1 P:y             1
                        (      -5.239 eV)
    10      10       --         0.169 au  C             1.00      2 P:y             1
                        (       4.589 eV)
    11      11       --         2.013 au  C             1.00      3 P:y             1
                        (      54.789 eV)
    12      12      0.667      -0.193 au  C             1.00      1 P:z             1
                        (      -5.239 eV)
    13      13       --         0.169 au  C             1.00      2 P:z             1
                        (       4.589 eV)
    14      14       --         2.013 au  C             1.00      3 P:z             1
                        (      54.789 eV)
    15      15       --         1.243 au  C             1.00      1 D:z2            1
                        (      33.824 eV)
    16      16       --         1.243 au  C             1.00      1 D:x2-y2         1
                        (      33.824 eV)
    17      17       --         1.243 au  C             1.00      1 D:xy            1
                        (      33.824 eV)
    18      18       --         1.243 au  C             1.00      1 D:xz            1
                        (      33.824 eV)
    19      19       --         1.243 au  C             1.00      1 D:yz            1
                        (      33.824 eV)
    20      20       --         4.016 au  C             1.00      1 F:z3            1
                        (     109.271 eV)
    21      21       --         4.016 au  C             1.00      1 F:z             1
                        (     109.271 eV)
    22      22       --         4.016 au  C             1.00      1 F:xyz           1
                        (     109.271 eV)
    23      23       --         4.016 au  C             1.00      1 F:z2x           1
                        (     109.271 eV)
    24      24       --         4.016 au  C             1.00      1 F:z2y           1
                        (     109.271 eV)
    25      25       --         4.016 au  C             1.00      1 F:x             1
                        (     109.271 eV)
    26      26       --         4.016 au  C             1.00      1 F:y             1
                        (     109.271 eV)
    27      27      2.000     -10.066 au  C             1.00      1 S               2
                        (    -273.921 eV)
    28      28      2.000      -0.501 au  C             1.00      2 S               2
                        (     -13.620 eV)
    29      29       --         0.373 au  C             1.00      3 S               2
                        (      10.158 eV)
    30      30       --         5.405 au  C             1.00      4 S               2
                        (     147.073 eV)
    31      31       --        49.848 au  C             1.00      5 S               2
                        (    1356.422 eV)
    32      32      0.667      -0.193 au  C             1.00      1 P:x             2
                        (      -5.239 eV)
    33      33       --         0.169 au  C             1.00      2 P:x             2
                        (       4.589 eV)
    34      34       --         2.013 au  C             1.00      3 P:x             2
                        (      54.789 eV)
    35      35      0.667      -0.193 au  C             1.00      1 P:y             2
                        (      -5.239 eV)
    36      36       --         0.169 au  C             1.00      2 P:y             2
                        (       4.589 eV)
    37      37       --         2.013 au  C             1.00      3 P:y             2
                        (      54.789 eV)
    38      38      0.667      -0.193 au  C             1.00      1 P:z             2
                        (      -5.239 eV)
    39      39       --         0.169 au  C             1.00      2 P:z             2
                        (       4.589 eV)
    40      40       --         2.013 au  C             1.00      3 P:z             2
                        (      54.789 eV)
    41      41       --         1.243 au  C             1.00      1 D:z2            2
                        (      33.824 eV)
    42      42       --         1.243 au  C             1.00      1 D:x2-y2         2
                        (      33.824 eV)
    43      43       --         1.243 au  C             1.00      1 D:xy            2
                        (      33.824 eV)
    44      44       --         1.243 au  C             1.00      1 D:xz            2
                        (      33.824 eV)
    45      45       --         1.243 au  C             1.00      1 D:yz            2
                        (      33.824 eV)
    46      46       --         4.016 au  C             1.00      1 F:z3            2
                        (     109.271 eV)
    47      47       --         4.016 au  C             1.00      1 F:z             2
                        (     109.271 eV)
    48      48       --         4.016 au  C             1.00      1 F:xyz           2
                        (     109.271 eV)
    49      49       --         4.016 au  C             1.00      1 F:z2x           2
                        (     109.271 eV)
    50      50       --         4.016 au  C             1.00      1 F:z2y           2
                        (     109.271 eV)
    51      51       --         4.016 au  C             1.00      1 F:x             2
                        (     109.271 eV)
    52      52       --         4.016 au  C             1.00      1 F:y             2
                        (     109.271 eV)
    53      53      2.000     -18.941 au  O             1.00      1 S               3
                        (    -515.403 eV)
    54      54      2.000      -0.876 au  O             1.00      2 S               3
                        (     -23.838 eV)
    55      55       --         0.791 au  O             1.00      3 S               3
                        (      21.524 eV)
    56      56       --        13.422 au  O             1.00      4 S               3
                        (     365.226 eV)
    57      57       --       121.561 au  O             1.00      5 S               3
                        (    3307.838 eV)
    58      58      1.333      -0.331 au  O             1.00      1 P:x             3
                        (      -9.020 eV)
    59      59       --         0.347 au  O             1.00      2 P:x             3
                        (       9.437 eV)
    60      60       --         3.820 au  O             1.00      3 P:x             3
                        (     103.939 eV)
    61      61      1.333      -0.331 au  O             1.00      1 P:y             3
                        (      -9.020 eV)
    62      62       --         0.347 au  O             1.00      2 P:y             3
                        (       9.437 eV)
    63      63       --         3.820 au  O             1.00      3 P:y             3
                        (     103.939 eV)
    64      64      1.333      -0.331 au  O             1.00      1 P:z             3
                        (      -9.020 eV)
    65      65       --         0.347 au  O             1.00      2 P:z             3
                        (       9.437 eV)
    66      66       --         3.820 au  O             1.00      3 P:z             3
                        (     103.939 eV)
    67      67       --         1.071 au  O             1.00      1 D:z2            3
                        (      29.134 eV)
    68      68       --         1.071 au  O             1.00      1 D:x2-y2         3
                        (      29.134 eV)
    69      69       --         1.071 au  O             1.00      1 D:xy            3
                        (      29.134 eV)
    70      70       --         1.071 au  O             1.00      1 D:xz            3
                        (      29.134 eV)
    71      71       --         1.071 au  O             1.00      1 D:yz            3
                        (      29.134 eV)
    72      72       --         3.359 au  O             1.00      1 F:z3            3
                        (      91.410 eV)
    73      73       --         3.359 au  O             1.00      1 F:z             3
                        (      91.410 eV)
    74      74       --         3.359 au  O             1.00      1 F:xyz           3
                        (      91.410 eV)
    75      75       --         3.359 au  O             1.00      1 F:z2x           3
                        (      91.410 eV)
    76      76       --         3.359 au  O             1.00      1 F:z2y           3
                        (      91.410 eV)
    77      77       --         3.359 au  O             1.00      1 F:x             3
                        (      91.410 eV)
    78      78       --         3.359 au  O             1.00      1 F:y             3
                        (      91.410 eV)
    79      79      2.000     -18.941 au  O             1.00      1 S               4
                        (    -515.403 eV)
    80      80      2.000      -0.876 au  O             1.00      2 S               4
                        (     -23.838 eV)
    81      81       --         0.791 au  O             1.00      3 S               4
                        (      21.524 eV)
    82      82       --        13.422 au  O             1.00      4 S               4
                        (     365.226 eV)
    83      83       --       121.561 au  O             1.00      5 S               4
                        (    3307.838 eV)
    84      84      1.333      -0.331 au  O             1.00      1 P:x             4
                        (      -9.020 eV)
    85      85       --         0.347 au  O             1.00      2 P:x             4
                        (       9.437 eV)
    86      86       --         3.820 au  O             1.00      3 P:x             4
                        (     103.939 eV)
    87      87      1.333      -0.331 au  O             1.00      1 P:y             4
                        (      -9.020 eV)
    88      88       --         0.347 au  O             1.00      2 P:y             4
                        (       9.437 eV)
    89      89       --         3.820 au  O             1.00      3 P:y             4
                        (     103.939 eV)
    90      90      1.333      -0.331 au  O             1.00      1 P:z             4
                        (      -9.020 eV)
    91      91       --         0.347 au  O             1.00      2 P:z             4
                        (       9.437 eV)
    92      92       --         3.820 au  O             1.00      3 P:z             4
                        (     103.939 eV)
    93      93       --         1.071 au  O             1.00      1 D:z2            4
                        (      29.134 eV)
    94      94       --         1.071 au  O             1.00      1 D:x2-y2         4
                        (      29.134 eV)
    95      95       --         1.071 au  O             1.00      1 D:xy            4
                        (      29.134 eV)
    96      96       --         1.071 au  O             1.00      1 D:xz            4
                        (      29.134 eV)
    97      97       --         1.071 au  O             1.00      1 D:yz            4
                        (      29.134 eV)
    98      98       --         3.359 au  O             1.00      1 F:z3            4
                        (      91.410 eV)
    99      99       --         3.359 au  O             1.00      1 F:z             4
                        (      91.410 eV)
   100     100       --         3.359 au  O             1.00      1 F:xyz           4
                        (      91.410 eV)
   101     101       --         3.359 au  O             1.00      1 F:z2x           4
                        (      91.410 eV)
   102     102       --         3.359 au  O             1.00      1 F:z2y           4
                        (      91.410 eV)
   103     103       --         3.359 au  O             1.00      1 F:x             4
                        (      91.410 eV)
   104     104       --         3.359 au  O             1.00      1 F:y             4
                        (      91.410 eV)
   105     105      1.000      -0.240 au  H             1.00      1 S               5
                        (      -6.532 eV)
   106     106       --         0.088 au  H             1.00      2 S               5
                        (       2.394 eV)
   107     107       --         1.502 au  H             1.00      3 S               5
                        (      40.869 eV)
   108     108       --         0.406 au  H             1.00      1 P:x             5
                        (      11.051 eV)
   109     109       --         0.406 au  H             1.00      1 P:y             5
                        (      11.051 eV)
   110     110       --         0.406 au  H             1.00      1 P:z             5
                        (      11.051 eV)
   111     111       --         2.569 au  H             1.00      1 D:z2            5
                        (      69.917 eV)
   112     112       --         2.569 au  H             1.00      1 D:x2-y2         5
                        (      69.917 eV)
   113     113       --         2.569 au  H             1.00      1 D:xy            5
                        (      69.917 eV)
   114     114       --         2.569 au  H             1.00      1 D:xz            5
                        (      69.917 eV)
   115     115       --         2.569 au  H             1.00      1 D:yz            5
                        (      69.917 eV)
   116     116      1.000      -0.240 au  H             1.00      1 S               6
                        (      -6.532 eV)
   117     117       --         0.088 au  H             1.00      2 S               6
                        (       2.394 eV)
   118     118       --         1.502 au  H             1.00      3 S               6
                        (      40.869 eV)
   119     119       --         0.406 au  H             1.00      1 P:x             6
                        (      11.051 eV)
   120     120       --         0.406 au  H             1.00      1 P:y             6
                        (      11.051 eV)
   121     121       --         0.406 au  H             1.00      1 P:z             6
                        (      11.051 eV)
   122     122       --         2.569 au  H             1.00      1 D:z2            6
                        (      69.917 eV)
   123     123       --         2.569 au  H             1.00      1 D:x2-y2         6
                        (      69.917 eV)
   124     124       --         2.569 au  H             1.00      1 D:xy            6
                        (      69.917 eV)
   125     125       --         2.569 au  H             1.00      1 D:xz            6
                        (      69.917 eV)
   126     126       --         2.569 au  H             1.00      1 D:yz            6
                        (      69.917 eV)
   127     127      1.000      -0.240 au  H             1.00      1 S               7
                        (      -6.532 eV)
   128     128       --         0.088 au  H             1.00      2 S               7
                        (       2.394 eV)
   129     129       --         1.502 au  H             1.00      3 S               7
                        (      40.869 eV)
   130     130       --         0.406 au  H             1.00      1 P:x             7
                        (      11.051 eV)
   131     131       --         0.406 au  H             1.00      1 P:y             7
                        (      11.051 eV)
   132     132       --         0.406 au  H             1.00      1 P:z             7
                        (      11.051 eV)
   133     133       --         2.569 au  H             1.00      1 D:z2            7
                        (      69.917 eV)
   134     134       --         2.569 au  H             1.00      1 D:x2-y2         7
                        (      69.917 eV)
   135     135       --         2.569 au  H             1.00      1 D:xy            7
                        (      69.917 eV)
   136     136       --         2.569 au  H             1.00      1 D:xz            7
                        (      69.917 eV)
   137     137       --         2.569 au  H             1.00      1 D:yz            7
                        (      69.917 eV)



 ================================
 (Slater-type)  F U N C T I O N S  ***  (Basis and Fit)  ***
 ================================
  

 Atom Type    1  (C)
 ==============

 Valence Basis Sets:  10
 -----------------------
   1 S    7.680000
   1 S    5.000000
   2 S    1.280000
   2 S    2.100000
   2 S    4.600000
   2 P    0.820000
   2 P    1.480000
   2 P    2.940000
   3 D    2.200000
   4 F    3.300000

 Atom Type    2  (O)
 ==============

 Valence Basis Sets:  10
 -----------------------
   1 S    9.800000
   1 S    6.800000
   2 S    7.580000
   2 S    2.880000
   2 S    1.720000
   2 P    4.080000
   2 P    2.080000
   2 P    1.120000
   3 D    2.000000
   4 F    3.000000

 Atom Type    3  (H)
 ==============

 Valence Basis Sets:   5
 -----------------------
   1 S    0.690000
   1 S    0.920000
   1 S    1.580000
   2 P    1.250000
   3 D    2.500000


 BAS: List of all Elementary Cartesian Basis Functions
 =====================================================

 The numbering in the list below (to the right of the function characteristics) is referred
 to in print-outs of MO eigenvectors and Mulliken populations in the BAS representation
 (as contrasted to the SFO representation).

 Notes:
 1. The functions are characterized by a polynomial prefactor (powers of x,y,z and r) and
    an exponential decay factor alpha.
 2. Since the basis sets are specific for an atom TYPE, the individual functions occur on
    all atoms of that type.
 3. The word 'Core' in the left margin signals that it is a Core Function (CF) : not a
    degree of freedom in the valence set, but only used to ensure orthogonalization of
    the other valence basis functions on the frozen Core Orbitals.


 (power of) X  Y  Z  R     Alpha  on Atom
            ==========     =====     ==========

 C                                    1    2
                                  ---------------------------------------------------------------------------
            0  0  0  0     7.680      1   31
            0  0  0  0     5.000      2   32
            0  0  0  1     1.280      3   33
            0  0  0  1     2.100      4   34
            0  0  0  1     4.600      5   35
            1  0  0  0     0.820      6   36
            0  1  0  0     0.820      7   37
            0  0  1  0     0.820      8   38
            1  0  0  0     1.480      9   39
            0  1  0  0     1.480     10   40
            0  0  1  0     1.480     11   41
            1  0  0  0     2.940     12   42
            0  1  0  0     2.940     13   43
            0  0  1  0     2.940     14   44
            2  0  0  0     2.200     15   45
            1  1  0  0     2.200     16   46
            1  0  1  0     2.200     17   47
            0  2  0  0     2.200     18   48
            0  1  1  0     2.200     19   49
            0  0  2  0     2.200     20   50
            3  0  0  0     3.300     21   51
            2  1  0  0     3.300     22   52
            2  0  1  0     3.300     23   53
            1  2  0  0     3.300     24   54
            1  1  1  0     3.300     25   55
            1  0  2  0     3.300     26   56
            0  3  0  0     3.300     27   57
            0  2  1  0     3.300     28   58
            0  1  2  0     3.300     29   59
            0  0  3  0     3.300     30   60

 O                                    3    4
                                  ---------------------------------------------------------------------------
            0  0  0  0     9.800     61   91
            0  0  0  0     6.800     62   92
            0  0  0  1     7.580     63   93
            0  0  0  1     2.880     64   94
            0  0  0  1     1.720     65   95
            1  0  0  0     4.080     66   96
            0  1  0  0     4.080     67   97
            0  0  1  0     4.080     68   98
            1  0  0  0     2.080     69   99
            0  1  0  0     2.080     70  100
            0  0  1  0     2.080     71  101
            1  0  0  0     1.120     72  102
            0  1  0  0     1.120     73  103
            0  0  1  0     1.120     74  104
            2  0  0  0     2.000     75  105
            1  1  0  0     2.000     76  106
            1  0  1  0     2.000     77  107
            0  2  0  0     2.000     78  108
            0  1  1  0     2.000     79  109
            0  0  2  0     2.000     80  110
            3  0  0  0     3.000     81  111
            2  1  0  0     3.000     82  112
            2  0  1  0     3.000     83  113
            1  2  0  0     3.000     84  114
            1  1  1  0     3.000     85  115
            1  0  2  0     3.000     86  116
            0  3  0  0     3.000     87  117
            0  2  1  0     3.000     88  118
            0  1  2  0     3.000     89  119
            0  0  3  0     3.000     90  120

 H                                    5    6    7
                                  ---------------------------------------------------------------------------
            0  0  0  0     0.690    121  133  145
            0  0  0  0     0.920    122  134  146
            0  0  0  0     1.580    123  135  147
            1  0  0  0     1.250    124  136  148
            0  1  0  0     1.250    125  137  149
            0  0  1  0     1.250    126  138  150
            2  0  0  0     2.500    127  139  151
            1  1  0  0     2.500    128  140  152
            1  0  1  0     2.500    129  141  153
            0  2  0  0     2.500    130  142  154
            0  1  1  0     2.500    131  143  155
            0  0  2  0     2.500    132  144  156

 Total number of charge fitting functions (nprimf)       486
 Total number of Cartesian basis functions (naos)        156
 Total number of Cartesian core functions  (ncos)          0

 ***************************************************************************************************



                                              ***********************
                                              *  T E C H N I C A L  *
                                              ***********************
  



 =============================================================
 P A R A L L E L I Z A T I O N  and  V E C T O R I Z A T I O N
 =============================================================
  
 Nr of parallel processes:                                1
 Maximum vector length in NumInt loops:                 128



 =====================
 S C F   U P D A T E S
 =====================
  
 Max. nr. of cycles:                               300
 Convergence criterion:                              0.0000010000
   secondary criterion:                              0.0010000000

 Mix parameter (when DIIS does not apply):           0.0500000000
 Mixed ADIIS+SDIIS will be used                  
    Max number of expansion vectors:                10
    Pure ADIIS when Max([F,P]) is above              0.1000000000
    Pure SDIIS when Max([F,P]) is below              0.0010000000
 Automatic ElectronSmearing (in case of problematic SCF convergence) disabled



 =================
 P R E C I S I O N  ***  (General: NumInt, NeglectFunctionTails, ...)  ***
 =================
  

 NumInt:           Target precision:                 6.0000000000
 -------           Initial precision:                6.0000000000
                   Min. precision (optimization):    6.0000000000

 Neglect Functions:          Basis functions:        0.1000000000E-07
 ------------------          Fit functions:          0.1000000000E-07



 ===========================
 L I N E A R   S C A L I N G
 ===========================
  

 Cut-off radii density fit:                        0.1000000000E-09
 Overlap cut-off criterion AO matrix elements:     0.1000000000E-07
 Cut-offs for Coulomb potential and fitted density:0.1000000000E-09
 Cut-off criterion for Coulomb multipole terms:    0.1000000000E-09
 Progressive Convergence parameter:                 0.000000000    
 ***************************************************************************************************



                                            ***************************
                                            *  C O M P U T A T I O N  *
                                            ***************************
  

 Number of elements of the density matrix on this node (used, total):     12246     12246



 ===========================================
 Numerical Integration : Fuzzy Cells (Becke)
 ===========================================
  
 Becke grid quality: GOOD           
  
 Lebedev angular grid order:             min:  11 max:  31
 Nr. of radial points:                   min:  54 max:  61

 Total nr. of points:      86707
 Nr. of blocks:              678
 Block length:               128
 Nr. of dummy points:         77


 Test of Precision of the Numerical Integration Grid
 ===================================================

 Integral of the Total Core Density:                   0.00000000000000



 ========================
 Density Fitting (zlmFit)
 ========================
  
 ZlmFit Fit Quality: GOOD           
  
 Max L-expansion:                        min:   8 max:   9
 Nr. of radial interpolation points:     min:  78 max: 108



 =====
 S C F  ***  ScaSCF  ***
 =====
  
 Initial density matrix is calculated as sum of fragments

 CYCLE    1
 SCF Error: norm([F,P])=      4.508796796132, max([F,P])=      0.722929097404
 ***** SPIN 1 *****
 orbitals (Q,E):
 ---------------
 A :7...26           ( 1.00    -0.8171)  ( 1.00    -0.6668)  ( 1.00    -0.5956)  ( 1.00    -0.5676)
                     ( 1.00    -0.5245)  ( 1.00    -0.5118)  ( 1.00    -0.4994)  ( 1.00    -0.4227)
                     ( 1.00    -0.4014)  ( 1.00    -0.3201)  ( 0.00    -0.1096)  ( 0.00    -0.0518)
                     ( 0.00    -0.0216)  ( 0.00     0.0002)  ( 0.00     0.0538)  ( 0.00     0.0657)
                     ( 0.00     0.0784)  ( 0.00     0.1058)  ( 0.00     0.1282)  ( 0.00     0.1650)
 ***** SPIN 2 *****
 orbitals (Q,E):
 ---------------
 A :6...25           ( 1.00    -1.0747)  ( 1.00    -0.8171)  ( 1.00    -0.6668)  ( 1.00    -0.5956)
                     ( 1.00    -0.5676)  ( 1.00    -0.5245)  ( 1.00    -0.5118)  ( 1.00    -0.4994)
                     ( 1.00    -0.4227)  ( 1.00    -0.4014)  ( 0.00    -0.3201)  ( 0.00    -0.1096)
                     ( 0.00    -0.0518)  ( 0.00    -0.0216)  ( 0.00     0.0002)  ( 0.00     0.0538)
                     ( 0.00     0.0657)  ( 0.00     0.0784)  ( 0.00     0.1058)  ( 0.00     0.1282)
  
 Spin polar: 1 (Spin_A minus Spin_B electrons)

 CYCLE    2
   MIX coefficients:  0.9500  0.0500
 SCF Error: norm([F,P])=      0.949167500475, max([F,P])=      0.118582256400
 ***** SPIN 1 *****
 orbitals (Q,E):
 ---------------
 A :7...17           ( 1.00    -0.8070)  ( 1.00    -0.6560)  ( 1.00    -0.5814)  ( 1.00    -0.5537)
                     ( 1.00    -0.5138)  ( 1.00    -0.4997)  ( 1.00    -0.4850)  ( 1.00    -0.4070)
                     ( 1.00    -0.3829)  ( 1.00    -0.3106)  ( 0.00    -0.1009)
 ***** SPIN 2 *****
 orbitals (Q,E):
 ---------------
 A :6...16           ( 1.00    -1.0590)  ( 1.00    -0.8059)  ( 1.00    -0.6557)  ( 1.00    -0.5811)
                     ( 1.00    -0.5534)  ( 1.00    -0.5134)  ( 1.00    -0.4992)  ( 1.00    -0.4848)
                     ( 1.00    -0.4066)  ( 1.00    -0.3828)  ( 0.00    -0.3076)
  
 Spin polar: 1 (Spin_A minus Spin_B electrons)

 CYCLE    3
  SDIIS (wt  0.000): -2.0000  3.0000
 A-DIIS (wt  1.000):  0.0000  1.0000
  DIIS coefficients:  0.0000  1.0000
 SCF Error: norm([F,P])=      0.814691501618, max([F,P])=      0.098391317305
 ***** SPIN 1 *****
 orbitals (Q,E):
 ---------------
 A :7...17           ( 1.00    -0.6230)  ( 1.00    -0.4755)  ( 1.00    -0.3832)  ( 1.00    -0.3401)
                     ( 1.00    -0.3261)  ( 1.00    -0.2929)  ( 1.00    -0.2185)  ( 1.00    -0.1701)
                     ( 1.00    -0.1266)  ( 1.00    -0.0858)  ( 0.00     0.0041)
 ***** SPIN 2 *****
 orbitals (Q,E):
 ---------------
 A :6...16           ( 1.00    -0.7743)  ( 1.00    -0.6028)  ( 1.00    -0.4685)  ( 1.00    -0.3756)
                     ( 1.00    -0.3336)  ( 1.00    -0.3138)  ( 1.00    -0.2906)  ( 1.00    -0.2152)
                     ( 1.00    -0.1533)  ( 1.00    -0.0855)  ( 0.00    -0.0827)
  
 Spin polar: 1 (Spin_A minus Spin_B electrons)

 CYCLE    4
  SDIIS (wt  0.000): -2.0000  2.8258  0.1742
 A-DIIS (wt  1.000):  0.0000  0.8421  0.1579
  DIIS coefficients:  0.0000  0.8421  0.1579
 SCF Error: norm([F,P])=      2.005417907133, max([F,P])=      0.351666134555
 ***** SPIN 1 *****
 orbitals (Q,E):
 ---------------
 A :7...17           ( 1.00    -0.6295)  ( 1.00    -0.4975)  ( 1.00    -0.4033)  ( 1.00    -0.3796)
                     ( 1.00    -0.3673)  ( 1.00    -0.3320)  ( 1.00    -0.3059)  ( 1.00    -0.2357)
                     ( 1.00    -0.2041)  ( 1.00    -0.1582)  ( 0.00    -0.0088)
 ***** SPIN 2 *****
 orbitals (Q,E):
 ---------------
 A :6...16           ( 1.00    -0.8758)  ( 1.00    -0.6129)  ( 1.00    -0.4903)  ( 1.00    -0.3962)
                     ( 1.00    -0.3733)  ( 1.00    -0.3579)  ( 1.00    -0.3257)  ( 1.00    -0.3015)
                     ( 1.00    -0.2280)  ( 1.00    -0.1908)  ( 0.00    -0.1156)
  
 Spin polar: 1 (Spin_A minus Spin_B electrons)

 CYCLE    5
  SDIIS (wt  0.220): -1.5763  2.1877  0.0379  0.3506
 A-DIIS (wt  0.780): -0.0000  0.4225  0.0000  0.5775
  DIIS coefficients: -0.3469  0.8109  0.0083  0.5276
 SCF Error: norm([F,P])=      0.681179421459, max([F,P])=      0.078214278281
 ***** SPIN 1 *****
 orbitals (Q,E):
 ---------------
 A :7...17           ( 1.00    -0.7126)  ( 1.00    -0.5657)  ( 1.00    -0.4653)  ( 1.00    -0.4298)
                     ( 1.00    -0.4121)  ( 1.00    -0.4026)  ( 1.00    -0.3425)  ( 1.00    -0.2914)
                     ( 1.00    -0.2349)  ( 1.00    -0.2149)  ( 0.00    -0.0197)
 ***** SPIN 2 *****
 orbitals (Q,E):
 ---------------
 A :6...16           ( 1.00    -0.8964)  ( 1.00    -0.6915)  ( 1.00    -0.5592)  ( 1.00    -0.4576)
                     ( 1.00    -0.4261)  ( 1.00    -0.4064)  ( 1.00    -0.3921)  ( 1.00    -0.3385)
                     ( 1.00    -0.2749)  ( 1.00    -0.2097)  ( 0.00    -0.1826)
  
 Spin polar: 1 (Spin_A minus Spin_B electrons)

 CYCLE    6
  SDIIS (wt  0.220):  0.3165 -0.0116  0.0047  0.4272  0.2632
 A-DIIS (wt  0.780):  0.0000  0.2117  0.0000  0.3414  0.4468
  DIIS coefficients:  0.0696  0.1626  0.0010  0.3603  0.4064
 SCF Error: norm([F,P])=      0.518784162999, max([F,P])=      0.083291900507
 ***** SPIN 1 *****
 orbitals (Q,E):
 ---------------
 A :7...17           ( 1.00    -0.6941)  ( 1.00    -0.5441)  ( 1.00    -0.4686)  ( 1.00    -0.4388)
                     ( 1.00    -0.4152)  ( 1.00    -0.3942)  ( 1.00    -0.3625)  ( 1.00    -0.2979)
                     ( 1.00    -0.2743)  ( 1.00    -0.2322)  ( 0.00    -0.0195)
 ***** SPIN 2 *****
 orbitals (Q,E):
 ---------------
 A :6...16           ( 1.00    -0.9374)  ( 1.00    -0.6746)  ( 1.00    -0.5376)  ( 1.00    -0.4630)
                     ( 1.00    -0.4337)  ( 1.00    -0.4023)  ( 1.00    -0.3877)  ( 1.00    -0.3595)
                     ( 1.00    -0.2876)  ( 1.00    -0.2690)  ( 0.00    -0.1778)
  
 Spin polar: 1 (Spin_A minus Spin_B electrons)

 CYCLE    7
  SDIIS (wt  0.280): -0.2040  0.3684  0.0001  0.2124  0.3225  0.3006
 A-DIIS (wt  0.720):  0.0000  0.0000  0.0000  0.0000  0.4011  0.5989
  DIIS coefficients: -0.0572  0.1033  0.0000  0.0596  0.3790  0.5153
 SCF Error: norm([F,P])=      0.406289351989, max([F,P])=      0.072242340323
 ***** SPIN 1 *****
 orbitals (Q,E):
 ---------------
 A :7...17           ( 1.00    -0.6921)  ( 1.00    -0.5522)  ( 1.00    -0.4532)  ( 1.00    -0.4280)
                     ( 1.00    -0.4066)  ( 1.00    -0.3893)  ( 1.00    -0.3584)  ( 1.00    -0.2922)
                     ( 1.00    -0.2406)  ( 1.00    -0.2224)  ( 0.00    -0.0193)
 ***** SPIN 2 *****
 orbitals (Q,E):
 ---------------
 A :6...16           ( 1.00    -0.9243)  ( 1.00    -0.6732)  ( 1.00    -0.5453)  ( 1.00    -0.4467)
                     ( 1.00    -0.4248)  ( 1.00    -0.3970)  ( 1.00    -0.3831)  ( 1.00    -0.3548)
                     ( 1.00    -0.2809)  ( 1.00    -0.2359)  ( 0.00    -0.1659)
  
 Spin polar: 1 (Spin_A minus Spin_B electrons)

 CYCLE    8
  SDIIS (wt  0.773): -0.1647  0.1849  0.0038 -0.0079  0.1871  0.3573  0.4395
 A-DIIS (wt  0.227):  0.0000  0.0000  0.0000  0.0000  0.0000  0.1312  0.8688
  DIIS coefficients: -0.1273  0.1429  0.0029 -0.0061  0.1446  0.3060  0.5369
 SCF Error: norm([F,P])=      0.133336439000, max([F,P])=      0.023472053486
 ***** SPIN 1 *****
 orbitals (Q,E):
 ---------------
 A :7...17           ( 1.00    -0.6975)  ( 1.00    -0.5503)  ( 1.00    -0.4585)  ( 1.00    -0.4285)
                     ( 1.00    -0.4030)  ( 1.00    -0.3975)  ( 1.00    -0.3594)  ( 1.00    -0.2911)
                     ( 1.00    -0.2474)  ( 1.00    -0.2332)  ( 0.00    -0.0180)
 ***** SPIN 2 *****
 orbitals (Q,E):
 ---------------
 A :6...16           ( 1.00    -0.9238)  ( 1.00    -0.6770)  ( 1.00    -0.5438)  ( 1.00    -0.4521)
                     ( 1.00    -0.4250)  ( 1.00    -0.3926)  ( 1.00    -0.3914)  ( 1.00    -0.3561)
                     ( 1.00    -0.2802)  ( 1.00    -0.2424)  ( 0.00    -0.1742)
  
 Spin polar: 1 (Spin_A minus Spin_B electrons)

 CYCLE    9
  SDIIS (wt  0.908): -0.1618  0.1645  0.0027 -0.0336  0.0197  0.0942  0.3348  0.5795
 A-DIIS (wt  0.092):  0.0000  0.0000  0.0000  0.0000  0.0000  0.0000  0.1649  0.8351
  DIIS coefficients: -0.1470  0.1494  0.0025 -0.0305  0.0179  0.0856  0.3192  0.6029
 SCF Error: norm([F,P])=      0.049981042691, max([F,P])=      0.010068310415
 ***** SPIN 1 *****
 orbitals (Q,E):
 ---------------
 A :7...17           ( 1.00    -0.6978)  ( 1.00    -0.5511)  ( 1.00    -0.4582)  ( 1.00    -0.4287)
                     ( 1.00    -0.4047)  ( 1.00    -0.3962)  ( 1.00    -0.3594)  ( 1.00    -0.2911)
                     ( 1.00    -0.2460)  ( 1.00    -0.2321)  ( 0.00    -0.0180)
 ***** SPIN 2 *****
 orbitals (Q,E):
 ---------------
 A :6...16           ( 1.00    -0.9246)  ( 1.00    -0.6775)  ( 1.00    -0.5446)  ( 1.00    -0.4519)
                     ( 1.00    -0.4253)  ( 1.00    -0.3949)  ( 1.00    -0.3901)  ( 1.00    -0.3561)
                     ( 1.00    -0.2806)  ( 1.00    -0.2411)  ( 0.00    -0.1725)
  
 Spin polar: 1 (Spin_A minus Spin_B electrons)

 CYCLE   10
  SDIIS (wt  1.000):  0.0189 -0.0247  0.0001 -0.0056 -0.0039 -0.0016  0.0691  0.2253  0.7225
  DIIS coefficients:  0.0189 -0.0247  0.0001 -0.0056 -0.0039 -0.0016  0.0691  0.2253  0.7225
 SCF Error: norm([F,P])=      0.006446774483, max([F,P])=      0.000959240101
 ***** SPIN 1 *****
 orbitals (Q,E):
 ---------------
 A :7...17           ( 1.00    -0.6976)  ( 1.00    -0.5511)  ( 1.00    -0.4580)  ( 1.00    -0.4285)
                     ( 1.00    -0.4042)  ( 1.00    -0.3963)  ( 1.00    -0.3593)  ( 1.00    -0.2910)
                     ( 1.00    -0.2457)  ( 1.00    -0.2322)  ( 0.00    -0.0180)
 ***** SPIN 2 *****
 orbitals (Q,E):
 ---------------
 A :6...16           ( 1.00    -0.9244)  ( 1.00    -0.6771)  ( 1.00    -0.5445)  ( 1.00    -0.4517)
                     ( 1.00    -0.4251)  ( 1.00    -0.3946)  ( 1.00    -0.3902)  ( 1.00    -0.3560)
                     ( 1.00    -0.2806)  ( 1.00    -0.2410)  ( 0.00    -0.1722)
  
 Spin polar: 1 (Spin_A minus Spin_B electrons)

 CYCLE   11
  SDIIS (wt  1.000):  0.0070 -0.0085 -0.0001 -0.0008 -0.0025 -0.0018  0.0029  0.0130  0.0865  0.9043
  DIIS coefficients:  0.0070 -0.0085 -0.0001 -0.0008 -0.0025 -0.0018  0.0029  0.0130  0.0865  0.9043
 SCF Error: norm([F,P])=      0.000961116017, max([F,P])=      0.000168494668
 ***** SPIN 1 *****
 orbitals (Q,E):
 ---------------
 A :7...17           ( 1.00    -0.6975)  ( 1.00    -0.5511)  ( 1.00    -0.4580)  ( 1.00    -0.4286)
                     ( 1.00    -0.4043)  ( 1.00    -0.3961)  ( 1.00    -0.3593)  ( 1.00    -0.2911)
                     ( 1.00    -0.2458)  ( 1.00    -0.2321)  ( 0.00    -0.0180)
 ***** SPIN 2 *****
 orbitals (Q,E):
 ---------------
 A :6...16           ( 1.00    -0.9245)  ( 1.00    -0.6770)  ( 1.00    -0.5445)  ( 1.00    -0.4516)
                     ( 1.00    -0.4252)  ( 1.00    -0.3947)  ( 1.00    -0.3900)  ( 1.00    -0.3561)
                     ( 1.00    -0.2807)  ( 1.00    -0.2410)  ( 0.00    -0.1721)
  
 Spin polar: 1 (Spin_A minus Spin_B electrons)

 CYCLE   12
  SDIIS (wt  1.000):  0.0001 -0.0000  0.0003 -0.0002 -0.0003 -0.0043 -0.0115 -0.0288  0.1291  0.9155
  DIIS coefficients:  0.0001 -0.0000  0.0003 -0.0002 -0.0003 -0.0043 -0.0115 -0.0288  0.1291  0.9155
 SCF Error: norm([F,P])=      0.000164866315, max([F,P])=      0.000023454549
 ***** SPIN 1 *****
 orbitals (Q,E):
 ---------------
 A :7...17           ( 1.00    -0.6975)  ( 1.00    -0.5510)  ( 1.00    -0.4580)  ( 1.00    -0.4285)
                     ( 1.00    -0.4043)  ( 1.00    -0.3962)  ( 1.00    -0.3593)  ( 1.00    -0.2911)
                     ( 1.00    -0.2458)  ( 1.00    -0.2321)  ( 0.00    -0.0180)
 ***** SPIN 2 *****
 orbitals (Q,E):
 ---------------
 A :6...16           ( 1.00    -0.9244)  ( 1.00    -0.6770)  ( 1.00    -0.5445)  ( 1.00    -0.4516)
                     ( 1.00    -0.4251)  ( 1.00    -0.3947)  ( 1.00    -0.3901)  ( 1.00    -0.3560)
                     ( 1.00    -0.2806)  ( 1.00    -0.2410)  ( 0.00    -0.1721)
  
 Spin polar: 1 (Spin_A minus Spin_B electrons)

 CYCLE   13
  SDIIS (wt  1.000): -0.0000  0.0000  0.0000  0.0000 -0.0004 -0.0013 -0.0051 -0.0249  0.0854  0.9463
  DIIS coefficients: -0.0000  0.0000  0.0000  0.0000 -0.0004 -0.0013 -0.0051 -0.0249  0.0854  0.9463
 SCF Error: norm([F,P])=      0.000047439328, max([F,P])=      0.000009219451
 ***** SPIN 1 *****
 orbitals (Q,E):
 ---------------
 A :7...17           ( 1.00    -0.6975)  ( 1.00    -0.5510)  ( 1.00    -0.4580)  ( 1.00    -0.4285)
                     ( 1.00    -0.4043)  ( 1.00    -0.3962)  ( 1.00    -0.3593)  ( 1.00    -0.2911)
                     ( 1.00    -0.2458)  ( 1.00    -0.2321)  ( 0.00    -0.0180)
 ***** SPIN 2 *****
 orbitals (Q,E):
 ---------------
 A :6...16           ( 1.00    -0.9244)  ( 1.00    -0.6770)  ( 1.00    -0.5445)  ( 1.00    -0.4516)
                     ( 1.00    -0.4251)  ( 1.00    -0.3947)  ( 1.00    -0.3901)  ( 1.00    -0.3561)
                     ( 1.00    -0.2806)  ( 1.00    -0.2410)  ( 0.00    -0.1721)
  
 Spin polar: 1 (Spin_A minus Spin_B electrons)

 CYCLE   14
  SDIIS (wt  1.000): -0.0000 -0.0000  0.0000  0.0003  0.0008  0.0014 -0.0164 -0.0610  0.1613  0.9135
  DIIS coefficients: -0.0000 -0.0000  0.0000  0.0003  0.0008  0.0014 -0.0164 -0.0610  0.1613  0.9135
 SCF Error: norm([F,P])=      0.000022702179, max([F,P])=      0.000004760431
 ***** SPIN 1 *****
 orbitals (Q,E):
 ---------------
 A :7...17           ( 1.00    -0.6975)  ( 1.00    -0.5510)  ( 1.00    -0.4580)  ( 1.00    -0.4285)
                     ( 1.00    -0.4043)  ( 1.00    -0.3962)  ( 1.00    -0.3593)  ( 1.00    -0.2911)
                     ( 1.00    -0.2458)  ( 1.00    -0.2321)  ( 0.00    -0.0180)
 ***** SPIN 2 *****
 orbitals (Q,E):
 ---------------
 A :6...16           ( 1.00    -0.9244)  ( 1.00    -0.6770)  ( 1.00    -0.5445)  ( 1.00    -0.4516)
                     ( 1.00    -0.4251)  ( 1.00    -0.3947)  ( 1.00    -0.3901)  ( 1.00    -0.3561)
                     ( 1.00    -0.2806)  ( 1.00    -0.2410)  ( 0.00    -0.1721)
  
 Spin polar: 1 (Spin_A minus Spin_B electrons)

 CYCLE   15
  SDIIS (wt  1.000): -0.0000  0.0000  0.0000  0.0001  0.0001 -0.0005 -0.0065 -0.0321  0.0936  0.9451
  DIIS coefficients: -0.0000  0.0000  0.0000  0.0001  0.0001 -0.0005 -0.0065 -0.0321  0.0936  0.9451
 SCF Error: norm([F,P])=      0.000003580683, max([F,P])=      0.000000645160
 ***** SPIN 1 *****
 orbitals (Q,E):
 ---------------
 A :7...17           ( 1.00    -0.6975)  ( 1.00    -0.5510)  ( 1.00    -0.4580)  ( 1.00    -0.4285)
                     ( 1.00    -0.4043)  ( 1.00    -0.3962)  ( 1.00    -0.3593)  ( 1.00    -0.2911)
                     ( 1.00    -0.2458)  ( 1.00    -0.2321)  ( 0.00    -0.0180)
 ***** SPIN 2 *****
 orbitals (Q,E):
 ---------------
 A :6...16           ( 1.00    -0.9244)  ( 1.00    -0.6770)  ( 1.00    -0.5445)  ( 1.00    -0.4516)
                     ( 1.00    -0.4251)  ( 1.00    -0.3947)  ( 1.00    -0.3901)  ( 1.00    -0.3561)
                     ( 1.00    -0.2806)  ( 1.00    -0.2410)  ( 0.00    -0.1721)
  
 Spin polar: 1 (Spin_A minus Spin_B electrons)

 SCF CONVERGED

 CYCLE   16
 ***************************************************************************************************



                                                *******************
                                                *  R E S U L T S  *
                                                *******************
  
 *** Using FIT density in Focky
  SDIIS (wt  1.000):  0.0000  0.0000  0.0001  0.0003 -0.0006 -0.0061 -0.0084  0.0368  0.3382  0.6398
  DIIS coefficients:  0.0000  0.0000  0.0001  0.0003 -0.0006 -0.0061 -0.0084  0.0368  0.3382  0.6398
 SCF Error: norm([F,P])=      0.000001930065, max([F,P])=      0.000000250197


                                   ***** SPIN 1 *****

 Scaled ZORA Orbital Energies, per Irrep and Spin:
 =================================================
                        Occup              E (au)              E (eV)       Diff (eV) with prev. cycle
                        -----      --------------------        ------       --------------------------
 A
               7        1.000     -0.69752268446005E+00       -18.981               1.32E-06
               8        1.000     -0.55104651191878E+00       -14.995               5.50E-06
               9        1.000     -0.45798060328198E+00       -12.462               3.08E-06
              10        1.000     -0.42854764534237E+00       -11.661               5.18E-06
              11        1.000     -0.40427215199760E+00       -11.001               4.90E-06
              12        1.000     -0.39615171601345E+00       -10.780               1.07E-06
              13        1.000     -0.35932769033389E+00        -9.778               5.83E-06
              14        1.000     -0.29110241851511E+00        -7.921               6.37E-06
              15        1.000     -0.24580570620704E+00        -6.689               3.21E-06
              16        1.000     -0.23214714199704E+00        -6.317               1.43E-06
              17        0.000     -0.18012052133448E-01        -0.490
              18        0.000     -0.13165217058176E-01        -0.358
              19        0.000      0.12775573410061E-01         0.348
              20        0.000      0.44119363626280E-01         1.201
              21        0.000      0.10365413413989E+00         2.821
              22        0.000      0.13940592915055E+00         3.793
              23        0.000      0.14143923869709E+00         3.849
              24        0.000      0.15493344455292E+00         4.216
              25        0.000      0.19240524017755E+00         5.236
              26        0.000      0.21641030554684E+00         5.889
  
 HOMO :       16 A                -0.23214714199704E+00
 LUMO :       17 A                -0.18012052133448E-01
  


                                   ***** SPIN 2 *****

 Scaled ZORA Orbital Energies, per Irrep and Spin:
 =================================================
                        Occup              E (au)              E (eV)       Diff (eV) with prev. cycle
                        -----      --------------------        ------       --------------------------
 A
               6        1.000     -0.92444729327379E+00       -25.155               6.98E-06
               7        1.000     -0.67701069369498E+00       -18.422               1.16E-06
               8        1.000     -0.54447666106614E+00       -14.816               5.14E-06
               9        1.000     -0.45161947394958E+00       -12.289               3.41E-06
              10        1.000     -0.42514754804585E+00       -11.569               5.72E-06
              11        1.000     -0.39466350180086E+00       -10.739               5.54E-06
              12        1.000     -0.39005245709639E+00       -10.614               1.09E-06
              13        1.000     -0.35605129260828E+00        -9.689               6.05E-06
              14        1.000     -0.28063357008795E+00        -7.636               7.51E-06
              15        1.000     -0.24103571167684E+00        -6.559               4.67E-06
              16        0.000     -0.17212329673182E+00        -4.684
              17        0.000     -0.16449580810635E-01        -0.448
              18        0.000      0.32105944218158E-02         0.087
              19        0.000      0.15574479662731E-01         0.424
              20        0.000      0.45160896257805E-01         1.229
              21        0.000      0.10528757458587E+00         2.865
              22        0.000      0.14266540537556E+00         3.882
              23        0.000      0.15699847210579E+00         4.272
              24        0.000      0.15703255070892E+00         4.273
              25        0.000      0.20267462486815E+00         5.515
  
 HOMO :       15 A                -0.24103571167684E+00
 LUMO :       16 A                -0.17212329673182E+00
  


 Orbital Energies, both Spins
 ========================================

 Irrep        no.  (spin)   Occup              E (au)                E (eV)
 ---------------------------------------------------------------------------
 A             1     A       1.00       -0.18840151174785E+02      -512.6666
 A             1      B      1.00       -0.18839505435057E+02      -512.6490
 A             2     A       1.00       -0.18791295185332E+02      -511.3372
 A             2      B      1.00       -0.18786951594092E+02      -511.2190
 A             3      B      1.00       -0.10051930214617E+02      -273.5269
 A             3     A       1.00       -0.10051104552020E+02      -273.5045
 A             4     A       1.00       -0.99694586774881E+01      -271.2828
 A             4      B      1.00       -0.99583750281190E+01      -270.9812
 A             5     A       1.00       -0.10086213076988E+01       -27.4460
 A             5      B      1.00       -0.10058390631837E+01       -27.3703
 A             6     A       1.00       -0.92999283515931E+00       -25.3064
 A             6      B      1.00       -0.92444729327379E+00       -25.1555
 A             7     A       1.00       -0.69752268446005E+00       -18.9806
 A             7      B      1.00       -0.67701069369498E+00       -18.4224
 A             8     A       1.00       -0.55104651191878E+00       -14.9947
 A             8      B      1.00       -0.54447666106614E+00       -14.8160
 A             9     A       1.00       -0.45798060328198E+00       -12.4623
 A             9      B      1.00       -0.45161947394958E+00       -12.2892
 A            10     A       1.00       -0.42854764534237E+00       -11.6614
 A            10      B      1.00       -0.42514754804585E+00       -11.5689
 A            11     A       1.00       -0.40427215199760E+00       -11.0008
 A            12     A       1.00       -0.39615171601345E+00       -10.7798
 A            11      B      1.00       -0.39466350180086E+00       -10.7393
 A            12      B      1.00       -0.39005245709639E+00       -10.6139
 A            13     A       1.00       -0.35932769033389E+00        -9.7778
 A            13      B      1.00       -0.35605129260828E+00        -9.6886
 A            14     A       1.00       -0.29110241851511E+00        -7.9213
 A            14      B      1.00       -0.28063357008795E+00        -7.6364
 A            15     A       1.00       -0.24580570620704E+00        -6.6887
 A            15      B      1.00       -0.24103571167684E+00        -6.5589
 A            16     A       1.00       -0.23214714199704E+00        -6.3170
 A            16      B      0.00       -0.17212329673182E+00        -4.6837
 A            17     A       0.00       -0.18012052133448E-01        -0.4901
 A            17      B      0.00       -0.16449580810635E-01        -0.4476
 A            18     A       0.00       -0.13165217058176E-01        -0.3582
 A            18      B      0.00        0.32105944218158E-02         0.0874
 A            19     A       0.00        0.12775573410061E-01         0.3476
 A            19      B      0.00        0.15574479662731E-01         0.4238
 A            20     A       0.00        0.44119363626280E-01         1.2005
 A            20      B      0.00        0.45160896257805E-01         1.2289
 A            21     A       0.00        0.10365413413989E+00         2.8206
 A            21      B      0.00        0.10528757458587E+00         2.8650
 A            22     A       0.00        0.13940592915055E+00         3.7934
 A            23     A       0.00        0.14143923869709E+00         3.8488
 A            22      B      0.00        0.14266540537556E+00         3.8821
 A            24     A       0.00        0.15493344455292E+00         4.2160
 A            23      B      0.00        0.15699847210579E+00         4.2721
 A            24      B      0.00        0.15703255070892E+00         4.2731
 A            25     A       0.00        0.19240524017755E+00         5.2356
 A            25      B      0.00        0.20267462486815E+00         5.5151
 A            26     A       0.00        0.21641030554684E+00         5.8888
 A            26      B      0.00        0.22338090575449E+00         6.0785
 A            27     A       0.00        0.23221823112594E+00         6.3190
 A            27      B      0.00        0.25175487318661E+00         6.8506
 A            28     A       0.00        0.27362490549155E+00         7.4457
 A            28      B      0.00        0.27633485566333E+00         7.5195
 A            29     A       0.00        0.30789387971417E+00         8.3782
 A            29      B      0.00        0.31081582017488E+00         8.4577
 A            30     A       0.00        0.35761423901274E+00         9.7312
 A            30      B      0.00        0.36586234849595E+00         9.9556
 A            31     A       0.00        0.37738179157896E+00        10.2691
 A            31      B      0.00        0.37961646290678E+00        10.3299
 A            32     A       0.00        0.39163105055436E+00        10.6568
 A            32      B      0.00        0.39836945433065E+00        10.8402
 A            33     A       0.00        0.41759862192426E+00        11.3634
 A            33      B      0.00        0.42289913026305E+00        11.5077
 A            34     A       0.00        0.45540179885875E+00        12.3921
 A            34      B      0.00        0.45983460808018E+00        12.5127
 A            35     A       0.00        0.48081163465590E+00        13.0836
 A            35      B      0.00        0.48590212894846E+00        13.2221
 A            36     A       0.00        0.54489201624259E+00        14.8273
 A            36      B      0.00        0.55316239113716E+00        15.0523
 A            37     A       0.00        0.56432726056984E+00        15.3561
 A            37      B      0.00        0.56659412910984E+00        15.4178
 A            38     A       0.00        0.59718786803889E+00        16.2503
 A            38      B      0.00        0.60044932922289E+00        16.3391
 A            39     A       0.00        0.62337188481902E+00        16.9628
 A            39      B      0.00        0.63119219791270E+00        17.1756
 A            40     A       0.00        0.67714091187417E+00        18.4259
 A            41     A       0.00        0.67929237847984E+00        18.4845
 A            40      B      0.00        0.68032759592401E+00        18.5127
 A            41      B      0.00        0.68311577275676E+00        18.5885
 A            42     A       0.00        0.77751682464952E+00        21.1573
 A            42      B      0.00        0.78724389379018E+00        21.4220
 A            43     A       0.00        0.82115478520080E+00        22.3448
 A            43      B      0.00        0.82453748364298E+00        22.4368
 A            44     A       0.00        0.86231023549474E+00        23.4647
 A            44      B      0.00        0.86552116026405E+00        23.5520
 A            45     A       0.00        0.91764647000446E+00        24.9704
 A            45      B      0.00        0.92173969618398E+00        25.0818
 A            46     A       0.00        0.95541220216124E+00        25.9981
 A            46      B      0.00        0.96038911210636E+00        26.1335
 A            47     A       0.00        0.99527809791587E+00        27.0829
 A            47      B      0.00        0.10094331059550E+01        27.4681
 A            48     A       0.00        0.11046860576125E+01        30.0600
 A            49     A       0.00        0.11096102752873E+01        30.1940
 A            48      B      0.00        0.11166703238351E+01        30.3861
 A            49      B      0.00        0.11249485698613E+01        30.6114
 A            50     A       0.00        0.11317503366010E+01        30.7965
 A            50      B      0.00        0.11331715769649E+01        30.8352
 A            51     A       0.00        0.11902321958965E+01        32.3879
 A            51      B      0.00        0.11929223405642E+01        32.4611
 A            52     A       0.00        0.12134534012542E+01        33.0197
 A            52      B      0.00        0.12242670215566E+01        33.3140
 A            53     A       0.00        0.12644316014917E+01        34.4069
 A            53      B      0.00        0.12768325719676E+01        34.7444
 A            54     A       0.00        0.13620511012945E+01        37.0633
 A            54      B      0.00        0.13663304418532E+01        37.1797
 A            55     A       0.00        0.14219006448829E+01        38.6919
 A            55      B      0.00        0.14245594600360E+01        38.7642
 A            56     A       0.00        0.14904921060657E+01        40.5584
 A            56      B      0.00        0.15113861297350E+01        41.1269
 A            57     A       0.00        0.15464239430462E+01        42.0803
 A            58     A       0.00        0.15530633076307E+01        42.2610
 A            57      B      0.00        0.15564451552053E+01        42.3530
 A            58      B      0.00        0.15592132438648E+01        42.4284
 A            59     A       0.00        0.15925814392307E+01        43.3363
 A            59      B      0.00        0.15963580456707E+01        43.4391
 A            60     A       0.00        0.16142038187813E+01        43.9247
 A            61     A       0.00        0.16333727573503E+01        44.4463
 A            60      B      0.00        0.16400984882067E+01        44.6294
 A            61      B      0.00        0.16472596744247E+01        44.8242
 A            62     A       0.00        0.18252748595621E+01        49.6683
 A            62      B      0.00        0.18318641240084E+01        49.8476
 A            63     A       0.00        0.18831247540099E+01        51.2424
 A            63      B      0.00        0.18873790714253E+01        51.3582
 A            64     A       0.00        0.19358663477734E+01        52.6776
 A            64      B      0.00        0.19653313264351E+01        53.4794
 A            65     A       0.00        0.20949199172724E+01        57.0057
 A            65      B      0.00        0.20974026187003E+01        57.0732
 A            66     A       0.00        0.21037305220442E+01        57.2454
 A            66      B      0.00        0.21121667591727E+01        57.4750
 A            67     A       0.00        0.21740798249765E+01        59.1597
 A            67      B      0.00        0.21815903038109E+01        59.3641
 A            68     A       0.00        0.22048389679929E+01        59.9967
 A            68      B      0.00        0.22077945732847E+01        60.0771
 A            69     A       0.00        0.22679804053260E+01        61.7149
 A            70     A       0.00        0.22780401050782E+01        61.9886
 A            69      B      0.00        0.22853190604270E+01        62.1867
 A            70      B      0.00        0.22947176755048E+01        62.4424
 A            71     A       0.00        0.24767100986202E+01        67.3947
 A            71      B      0.00        0.24810146964017E+01        67.5118
 A            72     A       0.00        0.24860820536030E+01        67.6497
 A            72      B      0.00        0.24988376892473E+01        67.9968
 A            73     A       0.00        0.25293188673685E+01        68.8263
 A            73      B      0.00        0.25306849363418E+01        68.8634
 A            74     A       0.00        0.26186425222835E+01        71.2569
 A            75     A       0.00        0.26224008167031E+01        71.3592
 A            74      B      0.00        0.26232404045984E+01        71.3820
 A            75      B      0.00        0.26278371699068E+01        71.5071
 A            76     A       0.00        0.26745078778164E+01        72.7771
 A            76      B      0.00        0.26794903492542E+01        72.9126
 A            77     A       0.00        0.26998870402808E+01        73.4677
 A            77      B      0.00        0.27033328887992E+01        73.5614
 A            78     A       0.00        0.27843793116736E+01        75.7668
 A            78      B      0.00        0.27951393452088E+01        76.0596
 A            79     A       0.00        0.28444837313754E+01        77.4023
 A            79      B      0.00        0.28452492422944E+01        77.4232
 A            80     A       0.00        0.28642910975972E+01        77.9413
 A            80      B      0.00        0.28810304238547E+01        78.3968
 A            81     A       0.00        0.28926864510923E+01        78.7140
 A            81      B      0.00        0.28963426827097E+01        78.8135
 A            82     A       0.00        0.29979838723908E+01        81.5793
 A            82      B      0.00        0.30045777432115E+01        81.7587
 A            83     A       0.00        0.31672343862481E+01        86.1848
 A            83      B      0.00        0.31873385126994E+01        86.7319
 A            84     A       0.00        0.32850223372858E+01        89.3900
 A            85     A       0.00        0.32899357273634E+01        89.5237
 A            84      B      0.00        0.32901366730138E+01        89.5292
 A            85      B      0.00        0.32948439567082E+01        89.6573
 A            86     A       0.00        0.33717305431279E+01        91.7495
 A            86      B      0.00        0.33743661760424E+01        91.8212
 A            87     A       0.00        0.33890293164342E+01        92.2202
 A            87      B      0.00        0.34124210391631E+01        92.8567
 A            88     A       0.00        0.34404397589720E+01        93.6191
 A            88      B      0.00        0.34441232582104E+01        93.7194
 A            89     A       0.00        0.34678746101187E+01        94.3657
 A            89      B      0.00        0.34763784960753E+01        94.5971
 A            90     A       0.00        0.35275832483666E+01        95.9904
 A            91     A       0.00        0.35416253424136E+01        96.3725
 A            90      B      0.00        0.35439147585530E+01        96.4348
 A            91      B      0.00        0.35482602573293E+01        96.5531
 A            92     A       0.00        0.36186198828826E+01        98.4677
 A            93     A       0.00        0.36307804000278E+01        98.7986
 A            92      B      0.00        0.36333353917703E+01        98.8681
 A            93      B      0.00        0.36369558828066E+01        98.9666
 A            94     A       0.00        0.37812607354665E+01       102.8933
 A            94      B      0.00        0.37863356573529E+01       103.0314
 A            95     A       0.00        0.38169967397139E+01       103.8658
 A            95      B      0.00        0.38345890446336E+01       104.3445
 A            96     A       0.00        0.38437099836827E+01       104.5927
 A            96      B      0.00        0.38536039933887E+01       104.8619
 A            97     A       0.00        0.39288522748781E+01       106.9095
 A            97      B      0.00        0.39405892062525E+01       107.2289
 A            98     A       0.00        0.39845255689565E+01       108.4245
 A            98      B      0.00        0.39986448181786E+01       108.8087
 A            99     A       0.00        0.40496266282728E+01       110.1959
 A            99      B      0.00        0.40546454457759E+01       110.3325
 A           100     A       0.00        0.41076096409784E+01       111.7737
 A           100      B      0.00        0.41127211911275E+01       111.9128
 A           101     A       0.00        0.41290275419126E+01       112.3566
 A           101      B      0.00        0.41658645314236E+01       113.3589
 A           102     A       0.00        0.42474518018030E+01       115.5790
 A           102      B      0.00        0.42595091165830E+01       115.9071
 A           103     A       0.00        0.42617073823295E+01       115.9670
 A           103      B      0.00        0.42649451883774E+01       116.0551
 A           104     A       0.00        0.43375639852409E+01       118.0311
 A           104      B      0.00        0.43442538191008E+01       118.2132
 A           105     A       0.00        0.44197531402234E+01       120.2676
 A           105      B      0.00        0.44327285144798E+01       120.6207
 A           106     A       0.00        0.45232661726914E+01       123.0843
 A           106      B      0.00        0.45397992979657E+01       123.5342
 A           107     A       0.00        0.46961825835709E+01       127.7896
 A           107      B      0.00        0.46994038528014E+01       127.8773
 A           108     A       0.00        0.47081558574040E+01       128.1154
 A           108      B      0.00        0.47139092245590E+01       128.2720
 A           109     A       0.00        0.47500498354922E+01       129.2554
 A           109      B      0.00        0.47670466939532E+01       129.7179
 A           110     A       0.00        0.48109361066013E+01       130.9122
 A           110      B      0.00        0.48223234476510E+01       131.2221
 A           111     A       0.00        0.49249048001724E+01       134.0135
 A           111      B      0.00        0.49327994467610E+01       134.2283
 A           112     A       0.00        0.52696230930465E+01       143.3937
 A           112      B      0.00        0.52798849480444E+01       143.6730
 A           113     A       0.00        0.53862273949189E+01       146.5667
 A           113      B      0.00        0.53968781289812E+01       146.8565
 A           114     A       0.00        0.54575579665978E+01       148.5077
 A           115     A       0.00        0.54751682129480E+01       148.9869
 A           114      B      0.00        0.54753301100843E+01       148.9913
 A           115      B      0.00        0.54836750049005E+01       149.2184
 A           116     A       0.00        0.55383156975334E+01       150.7052
 A           116      B      0.00        0.55473026291197E+01       150.9498
 A           117     A       0.00        0.57383915832109E+01       156.1496
 A           117      B      0.00        0.57429827751483E+01       156.2745
 A           118     A       0.00        0.58218570260978E+01       158.4208
 A           118      B      0.00        0.58415445063162E+01       158.9565
 A           119     A       0.00        0.59874667700202E+01       162.9273
 A           119      B      0.00        0.60346813271326E+01       164.2120
 A           120     A       0.00        0.60473038189668E+01       164.5555
 A           120      B      0.00        0.60491822873755E+01       164.6066
 A           121     A       0.00        0.61105878380916E+01       166.2776
 A           121      B      0.00        0.61268806125344E+01       166.7209
 A           122     A       0.00        0.61384841836590E+01       167.0367
 A           122      B      0.00        0.61477998353331E+01       167.2901
 A           123     A       0.00        0.64836408388466E+01       176.4288
 A           123      B      0.00        0.64861460696248E+01       176.4970
 A           124     A       0.00        0.66869768453016E+01       181.9619
 A           125     A       0.00        0.66903471432750E+01       182.0536
 A           124      B      0.00        0.66937772489163E+01       182.1469
 A           125      B      0.00        0.66976758433793E+01       182.2530
 A           126     A       0.00        0.71098950399860E+01       193.4701
 A           126      B      0.00        0.71149940457694E+01       193.6088
 A           127     A       0.00        0.74368980358793E+01       202.3683
 A           127      B      0.00        0.74415316815667E+01       202.4944
 A           128     A       0.00        0.78116690284821E+01       212.5663
 A           128      B      0.00        0.78154301042795E+01       212.6687
 A           129     A       0.00        0.79442289628517E+01       216.1735
 A           129      B      0.00        0.79510363238530E+01       216.3587
 A           130     A       0.00        0.86050109047637E+01       234.1543
 A           130      B      0.00        0.86258253817342E+01       234.7207
 A           131     A       0.00        0.97740363479722E+01       265.9651
 A           131      B      0.00        0.97757246765441E+01       266.0110
 A           132     A       0.00        0.15545970599694E+02       423.0274
 A           132      B      0.00        0.15555467561863E+02       423.2858
 A           133     A       0.00        0.16482337111464E+02       448.5072
 A           133      B      0.00        0.16484087996932E+02       448.5549
 A           134     A       0.00        0.53788492894917E+02      1463.6594
 A           134      B      0.00        0.53800569795198E+02      1463.9880
 A           135     A       0.00        0.57508594687653E+02      1564.8885
 A           135      B      0.00        0.57512886434884E+02      1565.0053
 A           136     A       0.00        0.12749814571523E+03      3469.4011
 A           136      B      0.00        0.12750259752500E+03      3469.5222
 A           137     A       0.00        0.13026044879092E+03      3544.5672
 A           137      B      0.00        0.13026122984308E+03      3544.5884
  
 Spin polar: 1 (Spin_A minus Spin_B electrons)


 All Electron Calculation, thus no Orbital Energies of the Core Orbitals are calculated


[...]
                                    1.59%     1 S              -6.532  1.00     6 H
                                   -1.50%     1 P:z            -5.239  0.67     2 C
                                    1.34%     2 S             -13.620  2.00     1 C
                                    1.22%     2 P:y             9.437  0.00     3 O
                                   -1.11%     2 P:z             9.437  0.00     3 O
                                    1.04%     2 P:z             4.589  0.00     1 C
       0.087  0.00    18 A         51.09%     1 P:x            -5.239  0.67     2 C
                                   24.27%     1 P:x            -5.239  0.67     1 C
                                   20.16%     1 P:x            -9.020  1.33     4 O
                                   -7.16%     2 P:x             4.589  0.00     2 C
                                    6.62%     1 P:x            -9.020  1.33     3 O
                                   -2.13%     2 P:x             9.437  0.00     4 O
                                    1.69%     1 P:x            11.051  0.00     5 H
                                    1.64%     1 P:x            11.051  0.00     6 H
                                    1.41%     2 P:x             4.589  0.00     1 C
       0.424  0.00    19 A         37.63%     2 S               2.394  0.00     6 H
                                   28.34%     2 S               2.394  0.00     5 H
                                   25.48%     1 S              -6.532  1.00     6 H
                                   21.15%     1 S              -6.532  1.00     7 H
                                  -13.64%     2 P:z             4.589  0.00     2 C
                                   12.11%     1 S              -6.532  1.00     5 H
                                   -6.96%     2 P:y             4.589  0.00     1 C
                                   -6.53%     3 S              10.158  0.00     1 C
                                    5.68%     2 S               2.394  0.00     7 H
                                   -4.92%     2 P:z             9.437  0.00     3 O
                                   -4.35%     1 P:z            -5.239  0.67     2 C
                                    1.82%     2 S             -13.620  2.00     1 C
                                   -1.48%     2 P:z             4.589  0.00     1 C
                                    1.31%     3 S              40.869  0.00     7 H
                                   -1.19%     2 P:y             4.589  0.00     2 C
                                    1.15%     1 P:z            11.051  0.00     5 H
                                    1.12%     1 P:y            11.051  0.00     6 H
                                   -1.04%     3 S              40.869  0.00     6 H
                                    1.02%     1 P:z            -9.020  1.33     3 O
       1.229  0.00    20 A         44.33%     1 S              -6.532  1.00     5 H
                                   38.97%     1 S              -6.532  1.00     6 H
                                  -35.66%     2 P:y             4.589  0.00     1 C
                                   32.37%     2 S               2.394  0.00     5 H
                                  -25.79%     2 P:z             4.589  0.00     1 C
                                   24.18%     2 S               2.394  0.00     6 H
                                    3.38%     1 P:y            -5.239  0.67     1 C
                                    3.08%     2 P:y             4.589  0.00     2 C
                                    2.97%     3 S              40.869  0.00     6 H
                                    2.89%     2 P:z             4.589  0.00     2 C
                                    2.76%     3 S              40.869  0.00     5 H
                                    2.71%     1 P:z            -5.239  0.67     1 C
       2.865  0.00    21 A         40.54%     2 P:y             4.589  0.00     1 C
                                   34.32%     2 P:z             4.589  0.00     1 C
                                   21.68%     1 P:y            -5.239  0.67     1 C
                                  -20.06%     3 S              10.158  0.00     2 C
                                   19.74%     1 P:y            -5.239  0.67     2 C
                                   14.63%     1 P:z            -5.239  0.67     1 C
                                    9.75%     2 P:y             4.589  0.00     2 C
                                   -6.45%     2 S               2.394  0.00     7 H
                                   -5.93%     2 S             -13.620  2.00     2 C
                                   -5.81%     2 P:z             4.589  0.00     2 C
                                   -5.13%     3 S              21.524  0.00     4 O
                                   -4.03%     2 S               2.394  0.00     6 H
                                    3.32%     1 S              -6.532  1.00     7 H
                                    2.78%     2 S             -13.620  2.00     1 C
                                    1.81%     1 S              -6.532  1.00     6 H
                                   -1.79%     3 S              40.869  0.00     6 H
                                   -1.66%     1 S              -6.532  1.00     5 H
                                    1.55%     2 S               2.394  0.00     5 H
                                   -1.55%     3 P:y            54.789  0.00     2 C
                                   -1.45%     1 P:z            -5.239  0.67     2 C
                                   -1.32%     3 P:y            54.789  0.00     1 C
                                    1.21%     2 P:z             9.437  0.00     4 O
                                   -1.17%     1 P:z            11.051  0.00     6 H
                                    1.14%     2 S             -23.838  2.00     4 O
                                    1.10%     2 P:z             9.437  0.00     3 O
                                    1.03%     1 P:z            11.051  0.00     7 H
       3.882  0.00    22 A         31.78%     2 P:y             4.589  0.00     2 C
                                   26.41%     1 P:z            -5.239  0.67     2 C
                                   20.70%     1 P:y            -5.239  0.67     2 C
                                   10.60%     2 P:z             4.589  0.00     1 C
                                   10.35%     1 P:z            -5.239  0.67     1 C
                                   -6.66%     3 S              21.524  0.00     4 O
                                   -6.08%     3 S              21.524  0.00     3 O
                                    5.77%     1 P:z            -9.020  1.33     3 O
                                    5.39%     2 S               2.394  0.00     6 H
                                    5.37%     1 S              -6.532  1.00     5 H
                                   -4.96%     2 P:z             9.437  0.00     3 O
                                    3.47%     2 P:y             9.437  0.00     4 O
                                    3.09%     2 S             -23.838  2.00     3 O
                                   -3.03%     2 P:y             4.589  0.00     1 C
                                    2.73%     1 P:z            11.051  0.00     6 H
                                   -2.16%     1 P:y            -5.239  0.67     1 C
                                    2.11%     1 P:z            -9.020  1.33     4 O
                                    1.74%     2 S             -23.838  2.00     4 O
                                   -1.69%     2 P:z             4.589  0.00     2 C
                                   -1.40%     3 P:z            54.789  0.00     2 C
                                   -1.37%     1 S              -6.532  1.00     6 H
                                   -1.16%     2 P:y             9.437  0.00     3 O
                                    1.16%     1 P:y            11.051  0.00     6 H
                                   -1.07%     3 P:y            54.789  0.00     2 C
       4.272  0.00    23 A         27.29%     2 S             -13.620  2.00     2 C
                                   16.61%     1 P:z            -9.020  1.33     3 O
                                   14.28%     2 P:x             4.589  0.00     2 C
                                    9.70%     1 S              -6.532  1.00     7 H
                                    6.82%     1 P:z            -5.239  0.67     2 C
                                   -6.68%     2 P:z             9.437  0.00     3 O
                                    5.95%     2 P:x             4.589  0.00     1 C
                                    4.07%     1 S              -6.532  1.00     5 H
                                    3.63%     1 P:z            -5.239  0.67     1 C
                                    3.59%     1 P:z            11.051  0.00     6 H
                                   -3.42%     3 S              10.158  0.00     2 C
                                   -3.14%     3 S              21.524  0.00     4 O
                                    2.87%     2 S               2.394  0.00     7 H
                                    2.86%     1 P:y            -9.020  1.33     4 O
                                    2.62%     1 P:y            11.051  0.00     5 H
                                    2.52%     2 S               2.394  0.00     6 H
                                    2.37%     2 P:y             4.589  0.00     1 C
                                    2.14%     1 P:x            -5.239  0.67     2 C
                                   -2.02%     2 P:z             4.589  0.00     2 C
                                    1.56%     1 P:y            11.051  0.00     7 H
                                    1.34%     1 P:z            -9.020  1.33     4 O
                                    1.30%     2 S             -13.620  2.00     1 C
                                    1.30%     1 S              -6.532  1.00     6 H
                                    1.24%     1 D:x2-y2        33.824  0.00     2 C
                                    1.07%     1 P:y            -5.239  0.67     1 C
       4.273  0.00    24 A         51.87%     2 P:x             4.589  0.00     2 C
                                   23.11%     2 P:x             4.589  0.00     1 C
                                    7.31%     2 S             -13.620  2.00     2 C
                                    5.36%     1 P:x            -5.239  0.67     2 C
                                    4.15%     1 P:z            -9.020  1.33     3 O
                                    2.56%     1 S              -6.532  1.00     7 H
                                    2.51%     1 P:z            -5.239  0.67     2 C
                                   -1.88%     2 P:x             9.437  0.00     4 O
                                   -1.83%     2 P:x             9.437  0.00     3 O
                                    1.16%     1 P:z            -5.239  0.67     1 C
                                    1.10%     1 S              -6.532  1.00     5 H
                                   -1.00%     2 P:z             9.437  0.00     3 O



 =======================================================================
 Electrostatic potential at the Nuclei due to electrons and other nuclei
 =======================================================================
  
         Atom                  Potential
         ----                  ---------
     1)   C                  14.74884089
     2)   C                  14.65908815
     3)   O                  22.35411325
     4)   O                  22.40842500
     5)   H                   1.07148153
     6)   H                   1.07022099
     7)   H                   0.95876189
 Mulliken charges used for AMS results%charges...


    =====================
     CALCULATION RESULTS
    =====================

Energy (hartree)            -1.45624883


--------------
Atomic charges
--------------
  Index   Atom    Charge
      1      C    0.3663
      2      C    0.6766
      3      O   -0.4292
      4      O   -0.5311
      5      H   -0.1326
      6      H   -0.1449
      7      H    0.1950


Dipole moment vector    (Debye):     0.05021742   -1.75165100    0.03664507
              magnitude (Debye):     1.75275380


-----------------------
Molecular orbitals info
-----------------------
n orbitals:              137
n spin:                    2

Note: only printing virtual orbitals with
      energy smaller than HOMO + 100. eV

                     spin-alpha   spin-beta
HOMO (eV):              -6.3170     -6.5589
LUMO (eV):              -0.4901     -4.6837
HOMO-LUMO gap (eV):      5.8269      1.8752

Smallest gap (eV):       1.6333

          |======= spin-alpha =======|       |======= spin-beta ========|

   Index   Energy (eV)    Occupation          Energy (eV)    Occupation
      88       93.6191         0.000              93.7194         0.000       
      87       92.2202         0.000              92.8567         0.000       
      86       91.7495         0.000              91.8212         0.000       
      85       89.5237         0.000              89.6573         0.000       
      84       89.3900         0.000              89.5292         0.000       
      83       86.1848         0.000              86.7319         0.000       
      82       81.5793         0.000              81.7587         0.000       
      81       78.7140         0.000              78.8135         0.000       
      80       77.9413         0.000              78.3968         0.000       
      79       77.4023         0.000              77.4232         0.000       
      78       75.7668         0.000              76.0596         0.000       
      77       73.4677         0.000              73.5614         0.000       
      76       72.7771         0.000              72.9126         0.000       
      75       71.3592         0.000              71.5071         0.000       
      74       71.2569         0.000              71.3820         0.000       
      73       68.8263         0.000              68.8634         0.000       
      72       67.6497         0.000              67.9968         0.000       
      71       67.3947         0.000              67.5118         0.000       
      70       61.9886         0.000              62.4424         0.000       
      69       61.7149         0.000              62.1867         0.000       
      68       59.9967         0.000              60.0771         0.000       
      67       59.1597         0.000              59.3641         0.000       
      66       57.2454         0.000              57.4750         0.000       
      65       57.0057         0.000              57.0732         0.000       
      64       52.6776         0.000              53.4794         0.000       
      63       51.2424         0.000              51.3582         0.000       
      62       49.6683         0.000              49.8476         0.000       
      61       44.4463         0.000              44.8242         0.000       
      60       43.9247         0.000              44.6294         0.000       
      59       43.3363         0.000              43.4391         0.000       
      58       42.2610         0.000              42.4284         0.000       
      57       42.0803         0.000              42.3530         0.000       
      56       40.5584         0.000              41.1269         0.000       
      55       38.6919         0.000              38.7642         0.000       
      54       37.0633         0.000              37.1797         0.000       
      53       34.4069         0.000              34.7444         0.000       
      52       33.0197         0.000              33.3140         0.000       
      51       32.3879         0.000              32.4611         0.000       
      50       30.7965         0.000              30.8352         0.000       
      49       30.1940         0.000              30.6114         0.000       
      48       30.0600         0.000              30.3861         0.000       
      47       27.0829         0.000              27.4681         0.000       
      46       25.9981         0.000              26.1335         0.000       
      45       24.9704         0.000              25.0818         0.000       
      44       23.4647         0.000              23.5520         0.000       
      43       22.3448         0.000              22.4368         0.000       
      42       21.1573         0.000              21.4220         0.000       
      41       18.4845         0.000              18.5885         0.000       
      40       18.4259         0.000              18.5127         0.000       
      39       16.9628         0.000              17.1756         0.000       
      38       16.2503         0.000              16.3391         0.000       
      37       15.3561         0.000              15.4178         0.000       
      36       14.8273         0.000              15.0523         0.000       
      35       13.0836         0.000              13.2221         0.000       
      34       12.3921         0.000              12.5127         0.000       
      33       11.3634         0.000              11.5077         0.000       
      32       10.6568         0.000              10.8402         0.000       
      31       10.2691         0.000              10.3299         0.000       
      30        9.7312         0.000               9.9556         0.000       
      29        8.3782         0.000               8.4577         0.000       
      28        7.4457         0.000               7.5195         0.000       
      27        6.3190         0.000               6.8506         0.000       
      26        5.8888         0.000               6.0785         0.000       
      25        5.2356         0.000               5.5151         0.000       
      24        4.2160         0.000               4.2731         0.000       
      23        3.8488         0.000               4.2721         0.000       
      22        3.7934         0.000               3.8821         0.000       
      21        2.8206         0.000               2.8650         0.000       
      20        1.2005         0.000               1.2289         0.000       
      19        0.3476         0.000               0.4238         0.000       
      18       -0.3582         0.000               0.0874         0.000       
      17       -0.4901         0.000 < LUMO       -0.4476         0.000       
      16       -6.3170         1.000 < HOMO       -4.6837         0.000 < LUMO
      15       -6.6887         1.000              -6.5589         1.000 < HOMO
      14       -7.9213         1.000              -7.6364         1.000       
      13       -9.7778         1.000              -9.6886         1.000       
      12      -10.7798         1.000             -10.6139         1.000       
      11      -11.0008         1.000             -10.7393         1.000       
      10      -11.6614         1.000             -11.5689         1.000       
       9      -12.4623         1.000             -12.2892         1.000       
       8      -14.9947         1.000             -14.8160         1.000       
       7      -18.9806         1.000             -18.4224         1.000       
       6      -25.3064         1.000             -25.1555         1.000       
       5      -27.4460         1.000             -27.3703         1.000       
       4     -271.2828         1.000            -270.9812         1.000       
       3     -273.5045         1.000            -273.5269         1.000       
       2     -511.3372         1.000            -511.2190         1.000       
       1     -512.6666         1.000            -512.6490         1.000       

AMS application finished. Exiting.
NORMAL TERMINATION
     Total cpu time:      50.63
  Total system time:       0.50
 Total elapsed time:      51.52
