
 *******************************************************************************
 *                                                                             *
 *  --------------------------------                                           *
 *   Amsterdam Modeling Suite (AMS)              2026.103                      *
 *  --------------------------------                                           *
 *                                               r260501 2026-05-01 873454b5   *
 *                                                                             *
 *                                                                             *
 *                              =================                              *
 *                              |               |                              *
 *                              |     A M S     |                              *
 *                              |               |                              *
 *                              =================                              *
 *                                                                             *
 *                                                                             *
 *   Online information and documentation:  https://www.scm.com/support/       *
 *   E-mail:  support@scm.com   info@scm.com                                   *
 *                                                                             *
 *   Scientific publications using AMS results must be properly referenced     *
 *   See the User Manuals (or the web site) for recommended citations          *
 *   The terms and conditions of the End User License Agreement apply to       *
 *   the use of AMS, https://www.scm.com/license-terms/                        *
 *                                                                             *
 **********************  x86_64_linux_intel / intelmpi  ************************
 
 Licensed to: Jong-June Jeon / University of Seoul 2026-06-02 13:44:15
 SCM User ID: u30731
  
 AMS 2026.103  RunTime: Jun03-2026 12:35:26  ShM Nodes: 1  Procs: 1

 AMS jobname: c2_fragB_ts
 AMS jobid  : 1961266265

 Start   directory: /gpfs/home1/yeseo1ee/projects/eda-asm-prediction/ADF_800/adf_outputs/batch_003/qmrxn20_e2_A_A_E_D_C_B/
 Results directory: /gpfs/home1/yeseo1ee/projects/eda-asm-prediction/ADF_800/adf_outputs/batch_003/qmrxn20_e2_A_A_E_D_C_B/c2_fragB_ts.results/
 Scratch directory: /tmp/amstmp_c2_fragB_ts_kid0.1961266265/

 RNG seed: -1527073609 700296002 -680545384 1872809239 -426133081 292354806 -463176747 1817294540



                      ************************************************************************
                      *  ADF 2026.103  RunTime: Jun03-2026 12:35:26  ShM Nodes: 1  Procs: 1  *
                      ************************************************************************
  

       ****************************
       * SINGLE POINT CALCULATION *
       ****************************

--------
Geometry
--------
Formula: C3H7BrN
Atoms
  Index Symbol   x (angstrom)   y (angstrom)   z (angstrom)
      1      C    -0.29587268    -0.03706399    -0.21558144
      2      C    -0.13905678    -0.13324821     1.21340019
      3     Br     1.53713015     0.36552933    -1.31480512
      4      H    -0.60720251    -0.95462251    -0.71347744
      5      H    -0.88207753     0.82237409    -0.52988269
      6      N     0.28159374     1.09467280     1.88665376
      7      H    -0.55317200     1.66472876     1.97524691
      8      H     0.95096947     1.58872083     1.30083831
      9      C     0.62436232    -1.33706424     1.71346904
     10      H     1.69943700    -1.24115047     1.50259849
     11      H     0.50217489    -1.42759034     2.79582101
     12      H     0.27098570    -2.26229853     1.24376818

Total System Charge              0.00000


----------------
ADF Engine Input
----------------
 
   Basis
     Type TZ2P
     Core None
   End
   XC
     GGA BLYP
     Dispersion GRIMME3 BJDAMP
   End
   Symmetry NOSYM
   NumericalQuality Normal
   Unrestricted No
   SCF
     Iterations 200
     Converge 1.0e-6
   End
   Save TAPE21
 

 Title: *** (NO TITLE) ***

 *** adf ***



 ===========================
 A T T A C H E D   F I L E S
 ===========================
  



 ===============================
 M O D E L   P A R A M E T E R S
 ===============================
  
 DENSITY FUNCTIONAL POTENTIAL (scf)
    LDA:                               Exchange only                           == Not Default ==
    Gradient Corrections:              Becke88 LYP                             == Not Default ==

 SPIN  (restricted / unrestr.)
    Molecule:                          Restricted                               
    Fragments:                         Restricted                               

 OTHER ASPECTS
    Relativistic Corrections:          scalar (ZORA,MAPA)                       

    Nuclear Charge Density Model:      Point Charge Nuclei                      
    Core Treatment:                    Frozen Orbital(s)                        

    Hyperfine or Zeeman Interaction:   ---                                      

 Settings for Grimme D3 dispersion correction

      damping                        BJ
      s6                          1.000
      s8                          2.700
      a1                          0.430
      a2                          4.236

 Other (technical) parameters

      alpha                      14.000
      version                         4
 


 Fragment File(s)
 ----------------
 C:
         file : /gpfs/home1/yeseo1ee/projects/eda-asm-prediction/ADF_800/adf_outputs/batch_003/qmrxn20_e2_A_A_E_D_C_B/c2_fragB_ts.results/t21.50BA88D5.C
         jobid: 0
         title: Carbon (TZ2P)
 Br:
         file : /gpfs/home1/yeseo1ee/projects/eda-asm-prediction/ADF_800/adf_outputs/batch_003/qmrxn20_e2_A_A_E_D_C_B/c2_fragB_ts.results/t21.42F58B50.Br
         jobid: 0
         title: Bromine (TZ2P)
 H:
         file : /gpfs/home1/yeseo1ee/projects/eda-asm-prediction/ADF_800/adf_outputs/batch_003/qmrxn20_e2_A_A_E_D_C_B/c2_fragB_ts.results/t21.6F35CCAB.H
         jobid: 0
         title: Hydrogen (TZ2P)
 N:
         file : /gpfs/home1/yeseo1ee/projects/eda-asm-prediction/ADF_800/adf_outputs/batch_003/qmrxn20_e2_A_A_E_D_C_B/c2_fragB_ts.results/t21.44EAA48D.N
         jobid: 0
         title: Nitrogen (TZ2P)



 ===============
 G E O M E T R Y  ***  3D  Molecule  ***
 ===============
  

 ATOMS
 =====                            X Y Z                    CHARGE
                                (Angstrom)             Nucl     +Core       At.Mass
                       --------------------------    ----------------       -------
    1  C              -0.2959   -0.0371   -0.2156      6.00      6.00       12.0000
    2  C              -0.1391   -0.1332    1.2134      6.00      6.00       12.0000
    3  Br              1.5371    0.3655   -1.3148     35.00     35.00       78.9183
    4  H              -0.6072   -0.9546   -0.7135      1.00      1.00        1.0078
    5  H              -0.8821    0.8224   -0.5299      1.00      1.00        1.0078
    6  N               0.2816    1.0947    1.8867      7.00      7.00       14.0031
    7  H              -0.5532    1.6647    1.9752      1.00      1.00        1.0078
    8  H               0.9510    1.5887    1.3008      1.00      1.00        1.0078
    9  C               0.6244   -1.3371    1.7135      6.00      6.00       12.0000
   10  H               1.6994   -1.2412    1.5026      1.00      1.00        1.0078
   11  H               0.5022   -1.4276    2.7958      1.00      1.00        1.0078
   12  H               0.2710   -2.2623    1.2438      1.00      1.00        1.0078


 FRAGMENTS
 =========                                     Atoms in this Fragment     Cart. coord.s (Angstrom)
                                               -------------------------------------------------------
    1  C                                                 1  C           -0.2959   -0.0371   -0.2156
    2  C                                                 2  C           -0.1391   -0.1332    1.2134
    3  C                                                 9  C            0.6244   -1.3371    1.7135
    4  Br                                                3  Br           1.5371    0.3655   -1.3148
    5  H                                                 4  H           -0.6072   -0.9546   -0.7135
    6  H                                                 5  H           -0.8821    0.8224   -0.5299
    7  H                                                 7  H           -0.5532    1.6647    1.9752
    8  H                                                 8  H            0.9510    1.5887    1.3008
    9  H                                                10  H            1.6994   -1.2412    1.5026
   10  H                                                11  H            0.5022   -1.4276    2.7958
   11  H                                                12  H            0.2710   -2.2623    1.2438
   12  N                                                 6  N            0.2816    1.0947    1.8867


 Interatomic Distance Matrix (Angstrom)
 --------------------------------------

   1)     0.000
   2)     1.441   0.000
   3)     2.175   3.074   0.000
   4)     1.089   2.146   2.589   0.000
   5)     1.087   2.122   2.584   1.807   0.000
   6)     2.456   1.462   3.515   3.428   2.696   0.000
   7)     2.786   1.996   4.109   3.754   2.663   1.015   0.000
   8)     2.549   2.040   2.946   3.599   2.702   1.018   1.650   0.000
   9)     2.502   1.511   3.592   2.748   3.459   2.462   3.235   2.973   0.000
  10)     2.895   2.166   3.247   3.211   3.880   2.759   3.707   2.934   1.100   0.000
  11)     3.412   2.143   4.603   3.711   4.247   2.690   3.369   3.396   1.093   1.772
          0.000
  12)     2.721   2.168   3.880   2.512   3.740   3.418   4.079   3.911   1.096   1.775
          1.777   0.000

 Min. Distance =    1.0147
 Max. Distance =    4.6026



 =====================================
 S Y M M E T R Y ,   E L E C T R O N S
 =====================================
  
 Symmetry: NOSYM

 Irreducible Representations, including subspecies
 -------------------------------------------------
 A


 Configuration of Valence Electrons
 ==================================
 ( determined in the SCF procedure )

 Total:   67

 ===============
 W A R N I N G :
 ===============

 The number of electrons does not correspond to doubly occupied orbitals,
 i.e. there would be one orbital with 0.5-alpha and 0.5-beta electrons.

 Normally, this corresponds to a doublet that should be treated within
 the UNRESTRICTED framework. For example, for a doublet:

   CHARGE   0.0 1.0
   Unrestricted

 See the online manual (http://www.scm.com) for more information on
 how to use the UNRESTRICTED framework.

 If you are definitely certain that for this job the restricted open-shell
 is appropriate, you can overcome this warning by placing on input:
   ALLOW ROKS

 In case of doubt, contact support@scm.com with this problem.

 Net Charge: 0 (Nuclei minus Electrons)

 Aufbau principle for MO occupations will be applied through SCF cycle no.     100
 Thereafter, the program will assign electrons to MOs that are spatially
 similar to the occupied MOs in a "reference" cycle ("KeepOrbitals").
 The reference cycle is always the PREVIOUS cycle: it will evolve with
 the SCF procedure.
 ***************************************************************************************************



                                      ****************************************
                                      *  B U I L D : (Fragments, Functions)  *
                                      ****************************************
  



 =======
 S F O s  ***  (Symmetrized Fragment Orbitals)  ***
 =======
  
 SFOs are linear combinations of (valence) Fragment Orbitals (FOs), such that the SFOs transform as the
 irreducible representations of the (molecular) symmetry group. Each SFO is therefore characterized by
 an irrep of the molecule and by a few (or only one) generating FOs.
 The SFOs constitute a symmetry-adapted basis for the Fock matrix. The MO eigenvector coefficients in
 this basis provide a direct interpretation of the MOs in terms of Frontier Orbital Theory.

 The SFOs are combined with auxiliary Core Functions (CFs) to ensure orthogonalization on the (frozen)
 Core Orbitals (COs). The Core-orthogonalized SFOs (CSFOs) constitute the true Fock basis.

 The FOs, and hence also the (C)SFOs are combinations of the elementary basis functions (BAS). The basis
 functions that participate in the description of the SFOs depend on the irrep. The indices of the
 involved functions are printed below for each irrep.
 (The complete list of primitive basis functions is printed in another section)

 Total nr. of (C)SFOs (summation over all irreps) :   237

 NOTE: a (C)SFO that is defined as a combination of more than one FO is usually NOT normalized.



                                       === A ===
 Nr. of SFOs :  237
 Cartesian basis functions that participate in this irrep (total number =   267) :
      1     2     3     4     5     6     9    12     7    10
     13     8    11    14    15    16    17    18    19    20
     21    22    23    24    25    26    27    28    29    30
     31    32    33    34    35    36    39    42    37    40
     43    38    41    44    45    46    47    48    49    50
     51    52    53    54    55    56    57    58    59    60
     61    62    63    64    65    66    69    72    67    70
     73    68    71    74    75    76    77    78    79    80
     81    82    83    84    85    86    87    88    89    90
     91    92    93   100   101   126   127   128    94    97
    102   105   129   132   135    95    98   103   106   130
    133   136    96    99   104   107   131   134   137   108
    114   120   138   109   115   121   139   110   116   122
    140   111   117   123   141   112   118   124   142   113
    119   125   143   144   145   146   147   148   149   150
    151   152   153   154   155   156   157   158   159   160
    161   162   163   164   165   166   167   168   169   170
    171   172   173   174   175   176   177   178   179   180
    181   182   183   184   185   186   187   188   189   190
    191   192   193   194   195   196   197   198   199   200
    201   202   203   204   205   206   207   208   209   210
    211   212   213   214   215   216   217   218   219   220
    221   222   223   224   225   226   227   228   229   230
    231   232   233   234   235   236   237   238   239   240
    241   242   243   246   249   244   247   250   245   248
    251   252   253   254   255   256   257   258   259   260
    261   262   263   264   265   266   267

    SFO  (index         Fragment          Generating    Expansion in Fragment Orbitals
  indx  incl.CFs)   Occup   Orb.Energy   FragmentType  Coeff.   Orbital     on Fragment
 --------------------------------------------------------------------------------------
     1       1      2.000     -10.066 au  C             1.00      1 S               1
                        (    -273.921 eV)
     2       2      2.000      -0.501 au  C             1.00      2 S               1
                        (     -13.620 eV)
     3       3       --         0.373 au  C             1.00      3 S               1
                        (      10.158 eV)
     4       4       --         5.405 au  C             1.00      4 S               1
                        (     147.073 eV)
     5       5       --        49.848 au  C             1.00      5 S               1
                        (    1356.422 eV)
     6       6      0.667      -0.193 au  C             1.00      1 P:x             1
                        (      -5.239 eV)
     7       7       --         0.169 au  C             1.00      2 P:x             1
                        (       4.589 eV)
     8       8       --         2.013 au  C             1.00      3 P:x             1
                        (      54.789 eV)
     9       9      0.667      -0.193 au  C             1.00      1 P:y             1
                        (      -5.239 eV)
    10      10       --         0.169 au  C             1.00      2 P:y             1
                        (       4.589 eV)
    11      11       --         2.013 au  C             1.00      3 P:y             1
                        (      54.789 eV)
    12      12      0.667      -0.193 au  C             1.00      1 P:z             1
                        (      -5.239 eV)
    13      13       --         0.169 au  C             1.00      2 P:z             1
                        (       4.589 eV)
    14      14       --         2.013 au  C             1.00      3 P:z             1
                        (      54.789 eV)
    15      15       --         1.243 au  C             1.00      1 D:z2            1
                        (      33.824 eV)
    16      16       --         1.243 au  C             1.00      1 D:x2-y2         1
                        (      33.824 eV)
    17      17       --         1.243 au  C             1.00      1 D:xy            1
                        (      33.824 eV)
    18      18       --         1.243 au  C             1.00      1 D:xz            1
                        (      33.824 eV)
    19      19       --         1.243 au  C             1.00      1 D:yz            1
                        (      33.824 eV)
    20      20       --         4.016 au  C             1.00      1 F:z3            1
                        (     109.271 eV)
    21      21       --         4.016 au  C             1.00      1 F:z             1
                        (     109.271 eV)
    22      22       --         4.016 au  C             1.00      1 F:xyz           1
                        (     109.271 eV)
    23      23       --         4.016 au  C             1.00      1 F:z2x           1
                        (     109.271 eV)
    24      24       --         4.016 au  C             1.00      1 F:z2y           1
                        (     109.271 eV)
    25      25       --         4.016 au  C             1.00      1 F:x             1
                        (     109.271 eV)
    26      26       --         4.016 au  C             1.00      1 F:y             1
                        (     109.271 eV)
    27      27      2.000     -10.066 au  C             1.00      1 S               2
                        (    -273.921 eV)
    28      28      2.000      -0.501 au  C             1.00      2 S               2
                        (     -13.620 eV)
    29      29       --         0.373 au  C             1.00      3 S               2
                        (      10.158 eV)
    30      30       --         5.405 au  C             1.00      4 S               2
                        (     147.073 eV)
    31      31       --        49.848 au  C             1.00      5 S               2
                        (    1356.422 eV)
    32      32      0.667      -0.193 au  C             1.00      1 P:x             2
                        (      -5.239 eV)
    33      33       --         0.169 au  C             1.00      2 P:x             2
                        (       4.589 eV)
    34      34       --         2.013 au  C             1.00      3 P:x             2
                        (      54.789 eV)
    35      35      0.667      -0.193 au  C             1.00      1 P:y             2
                        (      -5.239 eV)
    36      36       --         0.169 au  C             1.00      2 P:y             2
                        (       4.589 eV)
    37      37       --         2.013 au  C             1.00      3 P:y             2
                        (      54.789 eV)
    38      38      0.667      -0.193 au  C             1.00      1 P:z             2
                        (      -5.239 eV)
    39      39       --         0.169 au  C             1.00      2 P:z             2
                        (       4.589 eV)
    40      40       --         2.013 au  C             1.00      3 P:z             2
                        (      54.789 eV)
    41      41       --         1.243 au  C             1.00      1 D:z2            2
                        (      33.824 eV)
    42      42       --         1.243 au  C             1.00      1 D:x2-y2         2
                        (      33.824 eV)
    43      43       --         1.243 au  C             1.00      1 D:xy            2
                        (      33.824 eV)
    44      44       --         1.243 au  C             1.00      1 D:xz            2
                        (      33.824 eV)
    45      45       --         1.243 au  C             1.00      1 D:yz            2
                        (      33.824 eV)
    46      46       --         4.016 au  C             1.00      1 F:z3            2
                        (     109.271 eV)
    47      47       --         4.016 au  C             1.00      1 F:z             2
                        (     109.271 eV)
    48      48       --         4.016 au  C             1.00      1 F:xyz           2
                        (     109.271 eV)
    49      49       --         4.016 au  C             1.00      1 F:z2x           2
                        (     109.271 eV)
    50      50       --         4.016 au  C             1.00      1 F:z2y           2
                        (     109.271 eV)
    51      51       --         4.016 au  C             1.00      1 F:x             2
                        (     109.271 eV)
    52      52       --         4.016 au  C             1.00      1 F:y             2
                        (     109.271 eV)
    53      53      2.000     -10.066 au  C             1.00      1 S               3
                        (    -273.921 eV)
    54      54      2.000      -0.501 au  C             1.00      2 S               3
                        (     -13.620 eV)
    55      55       --         0.373 au  C             1.00      3 S               3
                        (      10.158 eV)
    56      56       --         5.405 au  C             1.00      4 S               3
                        (     147.073 eV)
    57      57       --        49.848 au  C             1.00      5 S               3
                        (    1356.422 eV)
    58      58      0.667      -0.193 au  C             1.00      1 P:x             3
                        (      -5.239 eV)
    59      59       --         0.169 au  C             1.00      2 P:x             3
                        (       4.589 eV)
    60      60       --         2.013 au  C             1.00      3 P:x             3
                        (      54.789 eV)
    61      61      0.667      -0.193 au  C             1.00      1 P:y             3
                        (      -5.239 eV)
    62      62       --         0.169 au  C             1.00      2 P:y             3
                        (       4.589 eV)
    63      63       --         2.013 au  C             1.00      3 P:y             3
                        (      54.789 eV)
    64      64      0.667      -0.193 au  C             1.00      1 P:z             3
                        (      -5.239 eV)
    65      65       --         0.169 au  C             1.00      2 P:z             3
                        (       4.589 eV)
    66      66       --         2.013 au  C             1.00      3 P:z             3
                        (      54.789 eV)
    67      67       --         1.243 au  C             1.00      1 D:z2            3
                        (      33.824 eV)
    68      68       --         1.243 au  C             1.00      1 D:x2-y2         3
                        (      33.824 eV)
    69      69       --         1.243 au  C             1.00      1 D:xy            3
                        (      33.824 eV)
    70      70       --         1.243 au  C             1.00      1 D:xz            3
                        (      33.824 eV)
    71      71       --         1.243 au  C             1.00      1 D:yz            3
                        (      33.824 eV)
    72      72       --         4.016 au  C             1.00      1 F:z3            3
                        (     109.271 eV)
    73      73       --         4.016 au  C             1.00      1 F:z             3
                        (     109.271 eV)
    74      74       --         4.016 au  C             1.00      1 F:xyz           3
                        (     109.271 eV)
    75      75       --         4.016 au  C             1.00      1 F:z2x           3
                        (     109.271 eV)
    76      76       --         4.016 au  C             1.00      1 F:z2y           3
                        (     109.271 eV)
    77      77       --         4.016 au  C             1.00      1 F:x             3
                        (     109.271 eV)
    78      78       --         4.016 au  C             1.00      1 F:y             3
                        (     109.271 eV)
    79      79      2.000    -488.642 au  Br            1.00      1 S               4
                        (  -13296.634 eV)
    80      80      2.000     -63.585 au  Br            1.00      2 S               4
                        (   -1730.246 eV)
    81      81      2.000      -8.709 au  Br            1.00      3 S               4
                        (    -236.987 eV)
    82      82      2.000      -0.733 au  Br            1.00      4 S               4
                        (     -19.946 eV)
    83      83       --         0.224 au  Br            1.00      5 S               4
                        (       6.099 eV)
    84      84       --         2.414 au  Br            1.00      6 S               4
                        (      65.683 eV)
    85      85       --        13.546 au  Br            1.00      7 S               4
                        (     368.609 eV)
    86      86       --       615.209 au  Br            1.00      8 S               4
                        (   16740.684 eV)
    87      87      2.000     -56.116 au  Br            1.00      1 P:x             4
                        (   -1526.987 eV)
    88      88      2.000      -6.365 au  Br            1.00      2 P:x             4
                        (    -173.205 eV)
    89      89      1.667      -0.284 au  Br            1.00      3 P:x             4
                        (      -7.716 eV)
    90      90       --         0.137 au  Br            1.00      4 P:x             4
                        (       3.720 eV)
    91      91       --         1.208 au  Br            1.00      5 P:x             4
                        (      32.874 eV)
    92      92       --         8.734 au  Br            1.00      6 P:x             4
                        (     237.661 eV)
    93      93       --        95.627 au  Br            1.00      7 P:x             4
                        (    2602.141 eV)
    94      94      2.000     -56.116 au  Br            1.00      1 P:y             4
                        (   -1526.987 eV)
    95      95      2.000      -6.365 au  Br            1.00      2 P:y             4
                        (    -173.205 eV)
    96      96      1.667      -0.284 au  Br            1.00      3 P:y             4
                        (      -7.716 eV)
    97      97       --         0.137 au  Br            1.00      4 P:y             4
                        (       3.720 eV)
    98      98       --         1.208 au  Br            1.00      5 P:y             4
                        (      32.874 eV)
    99      99       --         8.734 au  Br            1.00      6 P:y             4
                        (     237.661 eV)
   100     100       --        95.627 au  Br            1.00      7 P:y             4
                        (    2602.141 eV)
   101     101      2.000     -56.116 au  Br            1.00      1 P:z             4
                        (   -1526.987 eV)
   102     102      2.000      -6.365 au  Br            1.00      2 P:z             4
                        (    -173.205 eV)
   103     103      1.667      -0.284 au  Br            1.00      3 P:z             4
                        (      -7.716 eV)
   104     104       --         0.137 au  Br            1.00      4 P:z             4
                        (       3.720 eV)
   105     105       --         1.208 au  Br            1.00      5 P:z             4
                        (      32.874 eV)
   106     106       --         8.734 au  Br            1.00      6 P:z             4
                        (     237.661 eV)
   107     107       --        95.627 au  Br            1.00      7 P:z             4
                        (    2602.141 eV)
   108     108      2.000      -2.452 au  Br            1.00      1 D:z2            4
                        (     -66.719 eV)
   109     109       --         0.270 au  Br            1.00      2 D:z2            4
                        (       7.341 eV)
   110     110       --         2.706 au  Br            1.00      3 D:z2            4
                        (      73.633 eV)
   111     111       --        20.525 au  Br            1.00      4 D:z2            4
                        (     558.519 eV)
   112     112      2.000      -2.452 au  Br            1.00      1 D:x2-y2         4
                        (     -66.719 eV)
   113     113       --         0.270 au  Br            1.00      2 D:x2-y2         4
                        (       7.341 eV)
   114     114       --         2.706 au  Br            1.00      3 D:x2-y2         4
                        (      73.633 eV)
   115     115       --        20.525 au  Br            1.00      4 D:x2-y2         4
                        (     558.519 eV)
   116     116      2.000      -2.452 au  Br            1.00      1 D:xy            4
                        (     -66.719 eV)
   117     117       --         0.270 au  Br            1.00      2 D:xy            4
                        (       7.341 eV)
   118     118       --         2.706 au  Br            1.00      3 D:xy            4
                        (      73.633 eV)
   119     119       --        20.525 au  Br            1.00      4 D:xy            4
                        (     558.519 eV)
   120     120      2.000      -2.452 au  Br            1.00      1 D:xz            4
                        (     -66.719 eV)
   121     121       --         0.270 au  Br            1.00      2 D:xz            4
                        (       7.341 eV)
   122     122       --         2.706 au  Br            1.00      3 D:xz            4
                        (      73.633 eV)
   123     123       --        20.525 au  Br            1.00      4 D:xz            4
                        (     558.519 eV)
   124     124      2.000      -2.452 au  Br            1.00      1 D:yz            4
                        (     -66.719 eV)
   125     125       --         0.270 au  Br            1.00      2 D:yz            4
                        (       7.341 eV)
   126     126       --         2.706 au  Br            1.00      3 D:yz            4
                        (      73.633 eV)
   127     127       --        20.525 au  Br            1.00      4 D:yz            4
                        (     558.519 eV)
   128     128       --         0.857 au  Br            1.00      1 F:z3            4
                        (      23.313 eV)
   129     129       --         0.857 au  Br            1.00      1 F:z             4
                        (      23.313 eV)
   130     130       --         0.857 au  Br            1.00      1 F:xyz           4
                        (      23.313 eV)
   131     131       --         0.857 au  Br            1.00      1 F:z2x           4
                        (      23.313 eV)
   132     132       --         0.857 au  Br            1.00      1 F:z2y           4
                        (      23.313 eV)
   133     133       --         0.857 au  Br            1.00      1 F:x             4
                        (      23.313 eV)
   134     134       --         0.857 au  Br            1.00      1 F:y             4
                        (      23.313 eV)
   135     135      1.000      -0.240 au  H             1.00      1 S               5
                        (      -6.532 eV)
   136     136       --         0.088 au  H             1.00      2 S               5
                        (       2.394 eV)
   137     137       --         1.502 au  H             1.00      3 S               5
                        (      40.869 eV)
   138     138       --         0.406 au  H             1.00      1 P:x             5
                        (      11.051 eV)
   139     139       --         0.406 au  H             1.00      1 P:y             5
                        (      11.051 eV)
   140     140       --         0.406 au  H             1.00      1 P:z             5
                        (      11.051 eV)
   141     141       --         2.569 au  H             1.00      1 D:z2            5
                        (      69.917 eV)
   142     142       --         2.569 au  H             1.00      1 D:x2-y2         5
                        (      69.917 eV)
   143     143       --         2.569 au  H             1.00      1 D:xy            5
                        (      69.917 eV)
   144     144       --         2.569 au  H             1.00      1 D:xz            5
                        (      69.917 eV)
   145     145       --         2.569 au  H             1.00      1 D:yz            5
                        (      69.917 eV)
   146     146      1.000      -0.240 au  H             1.00      1 S               6
                        (      -6.532 eV)
   147     147       --         0.088 au  H             1.00      2 S               6
                        (       2.394 eV)
   148     148       --         1.502 au  H             1.00      3 S               6
                        (      40.869 eV)
   149     149       --         0.406 au  H             1.00      1 P:x             6
                        (      11.051 eV)
   150     150       --         0.406 au  H             1.00      1 P:y             6
                        (      11.051 eV)
   151     151       --         0.406 au  H             1.00      1 P:z             6
                        (      11.051 eV)
   152     152       --         2.569 au  H             1.00      1 D:z2            6
                        (      69.917 eV)
   153     153       --         2.569 au  H             1.00      1 D:x2-y2         6
                        (      69.917 eV)
   154     154       --         2.569 au  H             1.00      1 D:xy            6
                        (      69.917 eV)
   155     155       --         2.569 au  H             1.00      1 D:xz            6
                        (      69.917 eV)
   156     156       --         2.569 au  H             1.00      1 D:yz            6
                        (      69.917 eV)
   157     157      1.000      -0.240 au  H             1.00      1 S               7
                        (      -6.532 eV)
   158     158       --         0.088 au  H             1.00      2 S               7
                        (       2.394 eV)
   159     159       --         1.502 au  H             1.00      3 S               7
                        (      40.869 eV)
   160     160       --         0.406 au  H             1.00      1 P:x             7
                        (      11.051 eV)
   161     161       --         0.406 au  H             1.00      1 P:y             7
                        (      11.051 eV)
   162     162       --         0.406 au  H             1.00      1 P:z             7
                        (      11.051 eV)
   163     163       --         2.569 au  H             1.00      1 D:z2            7
                        (      69.917 eV)
   164     164       --         2.569 au  H             1.00      1 D:x2-y2         7
                        (      69.917 eV)
   165     165       --         2.569 au  H             1.00      1 D:xy            7
                        (      69.917 eV)
   166     166       --         2.569 au  H             1.00      1 D:xz            7
                        (      69.917 eV)
   167     167       --         2.569 au  H             1.00      1 D:yz            7
                        (      69.917 eV)
   168     168      1.000      -0.240 au  H             1.00      1 S               8
                        (      -6.532 eV)
   169     169       --         0.088 au  H             1.00      2 S               8
                        (       2.394 eV)
   170     170       --         1.502 au  H             1.00      3 S               8
                        (      40.869 eV)
   171     171       --         0.406 au  H             1.00      1 P:x             8
                        (      11.051 eV)
   172     172       --         0.406 au  H             1.00      1 P:y             8
                        (      11.051 eV)
   173     173       --         0.406 au  H             1.00      1 P:z             8
                        (      11.051 eV)
   174     174       --         2.569 au  H             1.00      1 D:z2            8
                        (      69.917 eV)
   175     175       --         2.569 au  H             1.00      1 D:x2-y2         8
                        (      69.917 eV)
   176     176       --         2.569 au  H             1.00      1 D:xy            8
                        (      69.917 eV)
   177     177       --         2.569 au  H             1.00      1 D:xz            8
                        (      69.917 eV)
   178     178       --         2.569 au  H             1.00      1 D:yz            8
                        (      69.917 eV)
   179     179      1.000      -0.240 au  H             1.00      1 S               9
                        (      -6.532 eV)
   180     180       --         0.088 au  H             1.00      2 S               9
                        (       2.394 eV)
   181     181       --         1.502 au  H             1.00      3 S               9
                        (      40.869 eV)
   182     182       --         0.406 au  H             1.00      1 P:x             9
                        (      11.051 eV)
   183     183       --         0.406 au  H             1.00      1 P:y             9
                        (      11.051 eV)
   184     184       --         0.406 au  H             1.00      1 P:z             9
                        (      11.051 eV)
   185     185       --         2.569 au  H             1.00      1 D:z2            9
                        (      69.917 eV)
   186     186       --         2.569 au  H             1.00      1 D:x2-y2         9
                        (      69.917 eV)
   187     187       --         2.569 au  H             1.00      1 D:xy            9
                        (      69.917 eV)
   188     188       --         2.569 au  H             1.00      1 D:xz            9
                        (      69.917 eV)
   189     189       --         2.569 au  H             1.00      1 D:yz            9
                        (      69.917 eV)
   190     190      1.000      -0.240 au  H             1.00      1 S              10
                        (      -6.532 eV)
   191     191       --         0.088 au  H             1.00      2 S              10
                        (       2.394 eV)
   192     192       --         1.502 au  H             1.00      3 S              10
                        (      40.869 eV)
   193     193       --         0.406 au  H             1.00      1 P:x            10
                        (      11.051 eV)
   194     194       --         0.406 au  H             1.00      1 P:y            10
                        (      11.051 eV)
   195     195       --         0.406 au  H             1.00      1 P:z            10
                        (      11.051 eV)
   196     196       --         2.569 au  H             1.00      1 D:z2           10
                        (      69.917 eV)
   197     197       --         2.569 au  H             1.00      1 D:x2-y2        10
                        (      69.917 eV)
   198     198       --         2.569 au  H             1.00      1 D:xy           10
                        (      69.917 eV)
   199     199       --         2.569 au  H             1.00      1 D:xz           10
                        (      69.917 eV)
   200     200       --         2.569 au  H             1.00      1 D:yz           10
                        (      69.917 eV)
   201     201      1.000      -0.240 au  H             1.00      1 S              11
                        (      -6.532 eV)
   202     202       --         0.088 au  H             1.00      2 S              11
                        (       2.394 eV)
   203     203       --         1.502 au  H             1.00      3 S              11
                        (      40.869 eV)
   204     204       --         0.406 au  H             1.00      1 P:x            11
                        (      11.051 eV)
   205     205       --         0.406 au  H             1.00      1 P:y            11
                        (      11.051 eV)
   206     206       --         0.406 au  H             1.00      1 P:z            11
                        (      11.051 eV)
   207     207       --         2.569 au  H             1.00      1 D:z2           11
                        (      69.917 eV)
   208     208       --         2.569 au  H             1.00      1 D:x2-y2        11
                        (      69.917 eV)
   209     209       --         2.569 au  H             1.00      1 D:xy           11
                        (      69.917 eV)
   210     210       --         2.569 au  H             1.00      1 D:xz           11
                        (      69.917 eV)
   211     211       --         2.569 au  H             1.00      1 D:yz           11
                        (      69.917 eV)
   212     212      2.000     -14.160 au  N             1.00      1 S              12
                        (    -385.319 eV)
   213     213      2.000      -0.678 au  N             1.00      2 S              12
                        (     -18.450 eV)
   214     214       --         0.517 au  N             1.00      3 S              12
                        (      14.073 eV)
   215     215       --         6.872 au  N             1.00      4 S              12
                        (     186.990 eV)
   216     216       --        63.432 au  N             1.00      5 S              12
                        (    1726.082 eV)
   217     217      1.000      -0.260 au  N             1.00      1 P:x            12
                        (      -7.062 eV)
   218     218       --         0.281 au  N             1.00      2 P:x            12
                        (       7.649 eV)
   219     219       --         3.275 au  N             1.00      3 P:x            12
                        (      89.105 eV)
   220     220      1.000      -0.260 au  N             1.00      1 P:y            12
                        (      -7.062 eV)
   221     221       --         0.281 au  N             1.00      2 P:y            12
                        (       7.649 eV)
   222     222       --         3.275 au  N             1.00      3 P:y            12
                        (      89.105 eV)
   223     223      1.000      -0.260 au  N             1.00      1 P:z            12
                        (      -7.062 eV)
   224     224       --         0.281 au  N             1.00      2 P:z            12
                        (       7.649 eV)
   225     225       --         3.275 au  N             1.00      3 P:z            12
                        (      89.105 eV)
   226     226       --         1.250 au  N             1.00      1 D:z2           12
                        (      34.005 eV)
   227     227       --         1.250 au  N             1.00      1 D:x2-y2        12
                        (      34.005 eV)
   228     228       --         1.250 au  N             1.00      1 D:xy           12
                        (      34.005 eV)
   229     229       --         1.250 au  N             1.00      1 D:xz           12
                        (      34.005 eV)
   230     230       --         1.250 au  N             1.00      1 D:yz           12
                        (      34.005 eV)
   231     231       --         4.013 au  N             1.00      1 F:z3           12
                        (     109.190 eV)
   232     232       --         4.013 au  N             1.00      1 F:z            12
                        (     109.190 eV)
   233     233       --         4.013 au  N             1.00      1 F:xyz          12
                        (     109.190 eV)
   234     234       --         4.013 au  N             1.00      1 F:z2x          12
                        (     109.190 eV)
   235     235       --         4.013 au  N             1.00      1 F:z2y          12
                        (     109.190 eV)
   236     236       --         4.013 au  N             1.00      1 F:x            12
                        (     109.190 eV)
   237     237       --         4.013 au  N             1.00      1 F:y            12
                        (     109.190 eV)



 ================================
 (Slater-type)  F U N C T I O N S  ***  (Basis and Fit)  ***
 ================================
  

 Atom Type    1  (C)
 ==============

 Valence Basis Sets:  10
 -----------------------
   1 S    7.680000
   1 S    5.000000
   2 S    1.280000
   2 S    2.100000
   2 S    4.600000
   2 P    0.820000
   2 P    1.480000
   2 P    2.940000
   3 D    2.200000
   4 F    3.300000

 Atom Type    2  (Br)
 ==============

 Valence Basis Sets:  20
 -----------------------
   1 S   41.300000
   1 S   32.800000
   2 S   13.900000
   2 P   19.450000
   2 P   13.100000
   3 S    7.200000
   3 S    4.950000
   3 P    7.900000
   3 P    5.050000
   3 D   10.900000
   3 D    6.050000
   3 D    3.500000
   4 S    4.500000
   4 S    2.800000
   4 S    1.800000
   4 P    3.250000
   4 P    1.950000
   4 P    1.200000
   4 D    1.800000
   4 F    1.800000

 Atom Type    3  (H)
 ==============

 Valence Basis Sets:   5
 -----------------------
   1 S    0.690000
   1 S    0.920000
   1 S    1.580000
   2 P    1.250000
   3 D    2.500000

 Atom Type    4  (N)
 ==============

 Valence Basis Sets:  10
 -----------------------
   1 S    8.740000
   1 S    5.900000
   2 S    5.150000
   2 S    2.500000
   2 S    1.500000
   2 P    3.680000
   2 P    1.880000
   2 P    1.000000
   3 D    2.200000
   4 F    3.300000


 BAS: List of all Elementary Cartesian Basis Functions
 =====================================================

 The numbering in the list below (to the right of the function characteristics) is referred
 to in print-outs of MO eigenvectors and Mulliken populations in the BAS representation
 (as contrasted to the SFO representation).

 Notes:
 1. The functions are characterized by a polynomial prefactor (powers of x,y,z and r) and
    an exponential decay factor alpha.
 2. Since the basis sets are specific for an atom TYPE, the individual functions occur on
    all atoms of that type.
 3. The word 'Core' in the left margin signals that it is a Core Function (CF) : not a
    degree of freedom in the valence set, but only used to ensure orthogonalization of
    the other valence basis functions on the frozen Core Orbitals.


 (power of) X  Y  Z  R     Alpha  on Atom
            ==========     =====     ==========

 C                                    1    2    3
                                  ---------------------------------------------------------------------------
            0  0  0  0     7.680      1   31   61
            0  0  0  0     5.000      2   32   62
            0  0  0  1     1.280      3   33   63
            0  0  0  1     2.100      4   34   64
            0  0  0  1     4.600      5   35   65
            1  0  0  0     0.820      6   36   66
            0  1  0  0     0.820      7   37   67
            0  0  1  0     0.820      8   38   68
            1  0  0  0     1.480      9   39   69
            0  1  0  0     1.480     10   40   70
            0  0  1  0     1.480     11   41   71
            1  0  0  0     2.940     12   42   72
            0  1  0  0     2.940     13   43   73
            0  0  1  0     2.940     14   44   74
            2  0  0  0     2.200     15   45   75
            1  1  0  0     2.200     16   46   76
            1  0  1  0     2.200     17   47   77
            0  2  0  0     2.200     18   48   78
            0  1  1  0     2.200     19   49   79
            0  0  2  0     2.200     20   50   80
            3  0  0  0     3.300     21   51   81
            2  1  0  0     3.300     22   52   82
            2  0  1  0     3.300     23   53   83
            1  2  0  0     3.300     24   54   84
            1  1  1  0     3.300     25   55   85
            1  0  2  0     3.300     26   56   86
            0  3  0  0     3.300     27   57   87
            0  2  1  0     3.300     28   58   88
            0  1  2  0     3.300     29   59   89
            0  0  3  0     3.300     30   60   90

 Br                                   4
                                  ---------------------------------------------------------------------------
            0  0  0  0    41.300     91
            0  0  0  0    32.800     92
            0  0  0  1    13.900     93
            1  0  0  0    19.450     94
            0  1  0  0    19.450     95
            0  0  1  0    19.450     96
            1  0  0  0    13.100     97
            0  1  0  0    13.100     98
            0  0  1  0    13.100     99
            0  0  0  2     7.200    100
            0  0  0  2     4.950    101
            1  0  0  1     7.900    102
            0  1  0  1     7.900    103
            0  0  1  1     7.900    104
            1  0  0  1     5.050    105
            0  1  0  1     5.050    106
            0  0  1  1     5.050    107
            2  0  0  0    10.900    108
            1  1  0  0    10.900    109
            1  0  1  0    10.900    110
            0  2  0  0    10.900    111
            0  1  1  0    10.900    112
            0  0  2  0    10.900    113
            2  0  0  0     6.050    114
            1  1  0  0     6.050    115
            1  0  1  0     6.050    116
            0  2  0  0     6.050    117
            0  1  1  0     6.050    118
            0  0  2  0     6.050    119
            2  0  0  0     3.500    120
            1  1  0  0     3.500    121
            1  0  1  0     3.500    122
            0  2  0  0     3.500    123
            0  1  1  0     3.500    124
            0  0  2  0     3.500    125
            0  0  0  3     4.500    126
            0  0  0  3     2.800    127
            0  0  0  3     1.800    128
            1  0  0  2     3.250    129
            0  1  0  2     3.250    130
            0  0  1  2     3.250    131
            1  0  0  2     1.950    132
            0  1  0  2     1.950    133
            0  0  1  2     1.950    134
            1  0  0  2     1.200    135
            0  1  0  2     1.200    136
            0  0  1  2     1.200    137
            2  0  0  1     1.800    138
            1  1  0  1     1.800    139
            1  0  1  1     1.800    140
            0  2  0  1     1.800    141
            0  1  1  1     1.800    142
            0  0  2  1     1.800    143
            3  0  0  0     1.800    144
            2  1  0  0     1.800    145
            2  0  1  0     1.800    146
            1  2  0  0     1.800    147
            1  1  1  0     1.800    148
            1  0  2  0     1.800    149
            0  3  0  0     1.800    150
            0  2  1  0     1.800    151
            0  1  2  0     1.800    152
            0  0  3  0     1.800    153

 H                                    5    6    7    8    9   10   11
                                  ---------------------------------------------------------------------------
            0  0  0  0     0.690    154  166  178  190  202  214  226
            0  0  0  0     0.920    155  167  179  191  203  215  227
            0  0  0  0     1.580    156  168  180  192  204  216  228
            1  0  0  0     1.250    157  169  181  193  205  217  229
            0  1  0  0     1.250    158  170  182  194  206  218  230
            0  0  1  0     1.250    159  171  183  195  207  219  231
            2  0  0  0     2.500    160  172  184  196  208  220  232
            1  1  0  0     2.500    161  173  185  197  209  221  233
            1  0  1  0     2.500    162  174  186  198  210  222  234
            0  2  0  0     2.500    163  175  187  199  211  223  235
            0  1  1  0     2.500    164  176  188  200  212  224  236
            0  0  2  0     2.500    165  177  189  201  213  225  237

 N                                   12
                                  ---------------------------------------------------------------------------
            0  0  0  0     8.740    238
            0  0  0  0     5.900    239
            0  0  0  1     5.150    240
            0  0  0  1     2.500    241
            0  0  0  1     1.500    242
            1  0  0  0     3.680    243
            0  1  0  0     3.680    244
            0  0  1  0     3.680    245
            1  0  0  0     1.880    246
            0  1  0  0     1.880    247
            0  0  1  0     1.880    248
            1  0  0  0     1.000    249
            0  1  0  0     1.000    250
            0  0  1  0     1.000    251
            2  0  0  0     2.200    252
            1  1  0  0     2.200    253
            1  0  1  0     2.200    254
            0  2  0  0     2.200    255
            0  1  1  0     2.200    256
            0  0  2  0     2.200    257
            3  0  0  0     3.300    258
            2  1  0  0     3.300    259
            2  0  1  0     3.300    260
            1  2  0  0     3.300    261
            1  1  1  0     3.300    262
            1  0  2  0     3.300    263
            0  3  0  0     3.300    264
            0  2  1  0     3.300    265
            0  1  2  0     3.300    266
            0  0  3  0     3.300    267

 Total number of charge fitting functions (nprimf)       856
 Total number of Cartesian basis functions (naos)        267
 Total number of Cartesian core functions  (ncos)          0

 ***************************************************************************************************



                                              ***********************
                                              *  T E C H N I C A L  *
                                              ***********************
  



 =============================================================
 P A R A L L E L I Z A T I O N  and  V E C T O R I Z A T I O N
 =============================================================
  
 Nr of parallel processes:                                1
 Maximum vector length in NumInt loops:                 128



 =====================
 S C F   U P D A T E S
 =====================
  
 Max. nr. of cycles:                               200
 Convergence criterion:                              0.0000010000
   secondary criterion:                              0.0010000000

 Mix parameter (when DIIS does not apply):           0.2000000000
 Mixed ADIIS+SDIIS will be used                  
    Max number of expansion vectors:                10
    Pure ADIIS when Max([F,P]) is above              0.1000000000
    Pure SDIIS when Max([F,P]) is below              0.0010000000
 Automatic ElectronSmearing (in case of problematic SCF convergence) disabled



 =================
 P R E C I S I O N  ***  (General: NumInt, NeglectFunctionTails, ...)  ***
 =================
  

 NumInt:           Target precision:                 4.0000000000
 -------           Initial precision:                4.0000000000
                   Min. precision (optimization):    4.0000000000

 Neglect Functions:          Basis functions:        0.1000000000E-05
 ------------------          Fit functions:          0.1000000000E-05



 ===========================
 L I N E A R   S C A L I N G
 ===========================
  

 Cut-off radii density fit:                        0.1000000000E-07
 Overlap cut-off criterion AO matrix elements:     0.1000000000E-05
 Cut-offs for Coulomb potential and fitted density:0.1000000000E-07
 Cut-off criterion for Coulomb multipole terms:    0.1000000000E-07
 Progressive Convergence parameter:                 0.000000000    
 ***************************************************************************************************



                                            ***************************
                                            *  C O M P U T A T I O N  *
                                            ***************************
  

 Number of elements of the density matrix on this node (used, total):     35778     35778



 ===========================================
 Numerical Integration : Fuzzy Cells (Becke)
 ===========================================
  
 Becke grid quality: NORMAL         
  
 Lebedev angular grid order:             min:  11 max:  23
 Nr. of radial points:                   min:  46 max:  77

 Total nr. of points:      80243
 Nr. of blocks:              627
 Block length:               128
 Nr. of dummy points:         13


 Test of Precision of the Numerical Integration Grid
 ===================================================

 Integral of the Total Core Density:                   0.00000000000000



 ========================
 Density Fitting (zlmFit)
 ========================
  
 ZlmFit Fit Quality: NORMAL         
  
 Max L-expansion:                        min:   6 max:   7
 Nr. of radial interpolation points:     min:  39 max:  72



 =====
 S C F  ***  ScaSCF  ***
 =====
  
 Initial density matrix is calculated as sum of fragments

 CYCLE    1
 SCF Error: norm([F,P])=      5.212101869337, max([F,P])=      1.243023539301
 orbitals (Q,E):
 ---------------
 A :24...44          ( 2.00    -0.6136)  ( 2.00    -0.5920)  ( 2.00    -0.5683)  ( 2.00    -0.5423)
                     ( 2.00    -0.5162)  ( 2.00    -0.5012)  ( 2.00    -0.4248)  ( 2.00    -0.4050)
                     ( 2.00    -0.2962)  ( 2.00    -0.2932)  ( 1.00    -0.2794)  ( 0.00    -0.1498)
                     ( 0.00    -0.0675)  ( 0.00    -0.0354)  ( 0.00    -0.0318)  ( 0.00    -0.0160)
                     ( 0.00    -0.0090)  ( 0.00     0.0010)  ( 0.00     0.0110)  ( 0.00     0.0182)
                     ( 0.00     0.0580)

 CYCLE    2
   MIX coefficients:  0.8000  0.2000
 SCF Error: norm([F,P])=      1.125667884474, max([F,P])=      0.230013210985
 orbitals (Q,E):
 ---------------
 A :24...35          ( 2.00    -0.5388)  ( 2.00    -0.5187)  ( 2.00    -0.4973)  ( 2.00    -0.4702)
                     ( 2.00    -0.4396)  ( 2.00    -0.4276)  ( 2.00    -0.3855)  ( 2.00    -0.3161)
                     ( 2.00    -0.2927)  ( 2.00    -0.2902)  ( 1.00    -0.2390)  ( 0.00    -0.1104)

 CYCLE    3
  SDIIS (wt  0.000): -0.6467  1.6467
 A-DIIS (wt  1.000):  0.0000  1.0000
  DIIS coefficients:  0.0000  1.0000
 SCF Error: norm([F,P])=      0.515671340091, max([F,P])=      0.100501043393
 orbitals (Q,E):
 ---------------
 A :24...35          ( 2.00    -0.3844)  ( 2.00    -0.3640)  ( 2.00    -0.3410)  ( 2.00    -0.3080)
                     ( 2.00    -0.2806)  ( 2.00    -0.2661)  ( 2.00    -0.2595)  ( 2.00    -0.2192)
                     ( 2.00    -0.2150)  ( 2.00    -0.1440)  ( 1.00    -0.1285)  ( 0.00    -0.0103)

 CYCLE    4
  SDIIS (wt  0.000): -0.1850  0.9538  0.2312
 A-DIIS (wt  1.000):  0.0000  0.8357  0.1643
  DIIS coefficients:  0.0000  0.8357  0.1643
 SCF Error: norm([F,P])=      1.147882987703, max([F,P])=      0.281872395907
 orbitals (Q,E):
 ---------------
 A :24...35          ( 2.00    -0.4465)  ( 2.00    -0.3910)  ( 2.00    -0.3695)  ( 2.00    -0.3345)
                     ( 2.00    -0.3021)  ( 2.00    -0.2911)  ( 2.00    -0.2861)  ( 2.00    -0.2162)
                     ( 2.00    -0.2109)  ( 2.00    -0.2065)  ( 1.00    -0.1512)  ( 0.00    -0.0194)

 CYCLE    5
  SDIIS (wt  0.000):  0.0603  0.3996  0.1253  0.4148
 A-DIIS (wt  1.000):  0.0000  0.3843  0.0000  0.6157
  DIIS coefficients:  0.0000  0.3843  0.0000  0.6157
 SCF Error: norm([F,P])=      0.402437714196, max([F,P])=      0.114522847784
 orbitals (Q,E):
 ---------------
 A :24...35          ( 2.00    -0.4534)  ( 2.00    -0.4443)  ( 2.00    -0.4295)  ( 2.00    -0.3936)
                     ( 2.00    -0.3593)  ( 2.00    -0.3540)  ( 2.00    -0.3403)  ( 2.00    -0.2458)
                     ( 2.00    -0.2423)  ( 2.00    -0.2102)  ( 1.00    -0.2027)  ( 0.00    -0.0702)

 CYCLE    6
  SDIIS (wt  0.337): -0.0288  0.2911 -0.0226  0.4072  0.3530
 A-DIIS (wt  0.663):  0.0000  0.0391  0.0000  0.3266  0.6343
  DIIS coefficients: -0.0097  0.1240 -0.0076  0.3537  0.5396
 SCF Error: norm([F,P])=      0.287110841172, max([F,P])=      0.066662288157
 orbitals (Q,E):
 ---------------
 A :24...35          ( 2.00    -0.4735)  ( 2.00    -0.4333)  ( 2.00    -0.4094)  ( 2.00    -0.3827)
                     ( 2.00    -0.3495)  ( 2.00    -0.3374)  ( 2.00    -0.3266)  ( 2.00    -0.2490)
                     ( 2.00    -0.2430)  ( 2.00    -0.2406)  ( 1.00    -0.1826)  ( 0.00    -0.0516)

 CYCLE    7
  SDIIS (wt  0.498):  0.0105  0.0735  0.0031  0.2362  0.3565  0.3203
 A-DIIS (wt  0.502):  0.0000  0.0000  0.0000  0.0000  0.3552  0.6448
  DIIS coefficients:  0.0052  0.0366  0.0015  0.1177  0.3558  0.4831
 SCF Error: norm([F,P])=      0.215507103157, max([F,P])=      0.050661409648
 orbitals (Q,E):
 ---------------
 A :24...35          ( 2.00    -0.4569)  ( 2.00    -0.4312)  ( 2.00    -0.4102)  ( 2.00    -0.3769)
                     ( 2.00    -0.3423)  ( 2.00    -0.3361)  ( 2.00    -0.3227)  ( 2.00    -0.2369)
                     ( 2.00    -0.2331)  ( 2.00    -0.2221)  ( 1.00    -0.1850)  ( 0.00    -0.0519)

 CYCLE    8
  SDIIS (wt  0.874): -0.0129  0.0262 -0.0055  0.0344  0.1923  0.2905  0.4751
 A-DIIS (wt  0.126):  0.0000  0.0000  0.0000  0.0000  0.0000  0.0506  0.9494
  DIIS coefficients: -0.0113  0.0229 -0.0048  0.0301  0.1682  0.2603  0.5347
 SCF Error: norm([F,P])=      0.066948772927, max([F,P])=      0.013451351729
 orbitals (Q,E):
 ---------------
 A :24...35          ( 2.00    -0.4601)  ( 2.00    -0.4342)  ( 2.00    -0.4131)  ( 2.00    -0.3822)
                     ( 2.00    -0.3472)  ( 2.00    -0.3400)  ( 2.00    -0.3271)  ( 2.00    -0.2419)
                     ( 2.00    -0.2380)  ( 2.00    -0.2267)  ( 1.00    -0.1871)  ( 0.00    -0.0550)

 CYCLE    9
  SDIIS (wt  0.984): -0.0018  0.0003  0.0007 -0.0068  0.0301  0.0692  0.2591  0.6492
 A-DIIS (wt  0.016):  0.0000  0.0000  0.0000  0.0000  0.0000  0.0000  0.0000  1.0000
  DIIS coefficients: -0.0018  0.0003  0.0007 -0.0067  0.0296  0.0681  0.2549  0.6549
 SCF Error: norm([F,P])=      0.013213777120, max([F,P])=      0.002602158729
 orbitals (Q,E):
 ---------------
 A :24...35          ( 2.00    -0.4598)  ( 2.00    -0.4337)  ( 2.00    -0.4126)  ( 2.00    -0.3813)
                     ( 2.00    -0.3464)  ( 2.00    -0.3394)  ( 2.00    -0.3264)  ( 2.00    -0.2412)
                     ( 2.00    -0.2374)  ( 2.00    -0.2261)  ( 1.00    -0.1871)  ( 0.00    -0.0546)

 CYCLE   10
  SDIIS (wt  1.000): -0.0012 -0.0002  0.0004 -0.0061  0.0051  0.0172  0.1170  0.3980  0.4698
  DIIS coefficients: -0.0012 -0.0002  0.0004 -0.0061  0.0051  0.0172  0.1170  0.3980  0.4698
 SCF Error: norm([F,P])=      0.002739993677, max([F,P])=      0.000596503918
 orbitals (Q,E):
 ---------------
 A :24...35          ( 2.00    -0.4595)  ( 2.00    -0.4337)  ( 2.00    -0.4126)  ( 2.00    -0.3813)
                     ( 2.00    -0.3464)  ( 2.00    -0.3394)  ( 2.00    -0.3265)  ( 2.00    -0.2413)
                     ( 2.00    -0.2375)  ( 2.00    -0.2258)  ( 1.00    -0.1869)  ( 0.00    -0.0546)

 CYCLE   11
  SDIIS (wt  1.000): -0.0001 -0.0007  0.0003 -0.0024  0.0004  0.0025  0.0388  0.1541  0.2774  0.5296
  DIIS coefficients: -0.0001 -0.0007  0.0003 -0.0024  0.0004  0.0025  0.0388  0.1541  0.2774  0.5296
 SCF Error: norm([F,P])=      0.000915882630, max([F,P])=      0.000257583783
 orbitals (Q,E):
 ---------------
 A :24...35          ( 2.00    -0.4596)  ( 2.00    -0.4337)  ( 2.00    -0.4126)  ( 2.00    -0.3814)
                     ( 2.00    -0.3464)  ( 2.00    -0.3394)  ( 2.00    -0.3265)  ( 2.00    -0.2413)
                     ( 2.00    -0.2374)  ( 2.00    -0.2259)  ( 1.00    -0.1870)  ( 0.00    -0.0546)

 CYCLE   12
  SDIIS (wt  1.000): -0.0003  0.0001 -0.0008  0.0001  0.0001  0.0109  0.0453  0.0959  0.2696  0.5790
  DIIS coefficients: -0.0003  0.0001 -0.0008  0.0001  0.0001  0.0109  0.0453  0.0959  0.2696  0.5790
 SCF Error: norm([F,P])=      0.000265640468, max([F,P])=      0.000043360816
 orbitals (Q,E):
 ---------------
 A :24...35          ( 2.00    -0.4595)  ( 2.00    -0.4337)  ( 2.00    -0.4127)  ( 2.00    -0.3813)
                     ( 2.00    -0.3464)  ( 2.00    -0.3394)  ( 2.00    -0.3265)  ( 2.00    -0.2413)
                     ( 2.00    -0.2374)  ( 2.00    -0.2259)  ( 1.00    -0.1870)  ( 0.00    -0.0546)

 CYCLE   13
  SDIIS (wt  1.000):  0.0000 -0.0000  0.0001 -0.0004 -0.0003  0.0002  0.0098  0.0778  0.3311  0.5816
  DIIS coefficients:  0.0000 -0.0000  0.0001 -0.0004 -0.0003  0.0002  0.0098  0.0778  0.3311  0.5816
 SCF Error: norm([F,P])=      0.000102040156, max([F,P])=      0.000017680146
 orbitals (Q,E):
 ---------------
 A :24...35          ( 2.00    -0.4595)  ( 2.00    -0.4337)  ( 2.00    -0.4127)  ( 2.00    -0.3813)
                     ( 2.00    -0.3464)  ( 2.00    -0.3394)  ( 2.00    -0.3265)  ( 2.00    -0.2413)
                     ( 2.00    -0.2374)  ( 2.00    -0.2258)  ( 1.00    -0.1870)  ( 0.00    -0.0546)

 CYCLE   14
  SDIIS (wt  1.000):  0.0000  0.0000 -0.0002 -0.0012 -0.0046 -0.0064  0.0059  0.0800  0.2237  0.7027
  DIIS coefficients:  0.0000  0.0000 -0.0002 -0.0012 -0.0046 -0.0064  0.0059  0.0800  0.2237  0.7027
 SCF Error: norm([F,P])=      0.000028580317, max([F,P])=      0.000006585609
 orbitals (Q,E):
 ---------------
 A :24...35          ( 2.00    -0.4595)  ( 2.00    -0.4337)  ( 2.00    -0.4127)  ( 2.00    -0.3813)
                     ( 2.00    -0.3464)  ( 2.00    -0.3394)  ( 2.00    -0.3265)  ( 2.00    -0.2413)
                     ( 2.00    -0.2374)  ( 2.00    -0.2258)  ( 1.00    -0.1870)  ( 0.00    -0.0546)

 CYCLE   15
  SDIIS (wt  1.000):  0.0000 -0.0001 -0.0002 -0.0011 -0.0016  0.0024  0.0270  0.0711  0.2761  0.6264
  DIIS coefficients:  0.0000 -0.0001 -0.0002 -0.0011 -0.0016  0.0024  0.0270  0.0711  0.2761  0.6264
 SCF Error: norm([F,P])=      0.000005865466, max([F,P])=      0.000001474537
 orbitals (Q,E):
 ---------------
 A :24...35          ( 2.00    -0.4595)  ( 2.00    -0.4337)  ( 2.00    -0.4127)  ( 2.00    -0.3813)
                     ( 2.00    -0.3464)  ( 2.00    -0.3394)  ( 2.00    -0.3265)  ( 2.00    -0.2413)
                     ( 2.00    -0.2374)  ( 2.00    -0.2258)  ( 1.00    -0.1870)  ( 0.00    -0.0546)

 CYCLE   16
  SDIIS (wt  1.000): -0.0000 -0.0001 -0.0004 -0.0006  0.0001  0.0054  0.0184  0.0866  0.2672  0.6232
  DIIS coefficients: -0.0000 -0.0001 -0.0004 -0.0006  0.0001  0.0054  0.0184  0.0866  0.2672  0.6232
 SCF Error: norm([F,P])=      0.000001620215, max([F,P])=      0.000000364219
 orbitals (Q,E):
 ---------------
 A :24...35          ( 2.00    -0.4595)  ( 2.00    -0.4337)  ( 2.00    -0.4127)  ( 2.00    -0.3813)
                     ( 2.00    -0.3464)  ( 2.00    -0.3394)  ( 2.00    -0.3265)  ( 2.00    -0.2413)
                     ( 2.00    -0.2374)  ( 2.00    -0.2258)  ( 1.00    -0.1870)  ( 0.00    -0.0546)

 SCF CONVERGED

 CYCLE   17
 ***************************************************************************************************



                                                *******************
                                                *  R E S U L T S  *
                                                *******************
  
 *** Using FIT density in Focky
  SDIIS (wt  1.000): -0.0000 -0.0000 -0.0001 -0.0002 -0.0005  0.0004  0.0087  0.0479  0.1917  0.7521
  DIIS coefficients: -0.0000 -0.0000 -0.0001 -0.0002 -0.0005  0.0004  0.0087  0.0479  0.1917  0.7521
 SCF Error: norm([F,P])=      0.000000236611, max([F,P])=      0.000000048201

 Scaled ZORA Orbital Energies, per Irrep and Spin:
 =================================================
                        Occup              E (au)              E (eV)       Diff (eV) with prev. cycle
                        -----      --------------------        ------       --------------------------
 A
              24        2.000     -0.45953712243497E+00       -12.505               4.60E-08
              25        2.000     -0.43369528731605E+00       -11.801              -4.43E-07
              26        2.000     -0.41265316012207E+00       -11.229              -6.98E-07
              27        2.000     -0.38133993597688E+00       -10.377              -2.91E-07
              28        2.000     -0.34639924891299E+00        -9.426              -7.28E-07
              29        2.000     -0.33942449492111E+00        -9.236              -4.97E-07
              30        2.000     -0.32650190852194E+00        -8.885              -4.83E-07
              31        2.000     -0.24127437484293E+00        -6.565              -5.27E-07
              32        2.000     -0.23741924416545E+00        -6.461              -5.34E-07
              33        2.000     -0.22584694607575E+00        -6.146              -2.46E-07
              34        1.000     -0.18698426365112E+00        -5.088              -2.03E-07
              35        0.000     -0.54617491083744E-01        -1.486
              36        0.000     -0.19506027733559E-01        -0.531
              37        0.000      0.12378167185086E-01         0.337
              38        0.000      0.30332885618136E-01         0.825
              39        0.000      0.39366866579963E-01         1.071
              40        0.000      0.40650142801754E-01         1.106
              41        0.000      0.66674415448833E-01         1.814
              42        0.000      0.77208694460288E-01         2.101
              43        0.000      0.10093926463419E+00         2.747
              44        0.000      0.12918101234797E+00         3.515


 Partially Occupied:
              34 A                -0.18698426365112E+00
  
 HOMO :       33 A                -0.22584694607575E+00
 LUMO :       35 A                -0.54617491083744E-01
  


 All Electron Calculation, thus no Orbital Energies of the Core Orbitals are calculated

 Integrated fractional orbital density (NFOD):         1.000


 Fit test: (difference of exact and fit density, squared integrated, result summed over spins)
         Sum-of-Fragments:                             0.00000000379836
         Orthogonalized Fragments:                     0.00101425994012
         SCF:                                          0.00110156491480



 ==========================
 Electron Density at Nuclei
 ==========================
  
 The electron density is calculated at points on a small sphere around the center of a nucleus.
 The printed electron density is the average electron density on these points.
 The radius of the sphere is the printed approximate finite nuclear radius.
 Note: ZORA-4 density is used, which includes small component density

         Atom        Nuclear Radius (Angstrom)             Electron Density (a.u.)
         ----        -------------------------             -----------------------
     1)   C                 0.0000320678                              127.21187
     2)   C                 0.0000320678                              127.18571
     3)   Br                0.0000536685                            33512.89329
     4)   H                 0.0000181514                                0.51025
     5)   H                 0.0000181514                                0.51176
     6)   N                 0.0000333706                              206.02231
     7)   H                 0.0000181514                                0.50216
     8)   H                 0.0000181514                                0.49453
     9)   C                 0.0000320678                              127.01375
    10)   H                 0.0000181514                                0.49693
    11)   H                 0.0000181514                                0.50743
    12)   H                 0.0000181514                                0.50898



 =======================================
 M U L L I K E N   P O P U L A T I O N S
 =======================================
  
 The survey below gives for each atom:
 a) the total charge (Z minus electrons)
 b) the net spin polarization (nr of electrons spin-A minus spin-B)
 c) for each spin the atomic electron valence density (integrated) per L-value.

 Atom              Charge    Spin density          S         P         D         F
 ----              ------    ------------       ------    ------    ------    ------
 1 C               0.5522                       2.9763    2.4175    0.0510    0.0029
 2 C               0.1148                       3.2313    2.5533    0.0944    0.0062
 3 Br             -0.3107                       7.9915   17.2540   10.0514    0.0138
 4 H              -0.1670                       1.0796    0.0816    0.0059    0.0000
 5 H              -0.1741                       1.0858    0.0823    0.0060    0.0000
 6 N              -0.0523                       3.3714    3.6347    0.0432    0.0030
 7 H              -0.0419                       0.9101    0.1224    0.0094    0.0000
 8 H              -0.0295                       0.8955    0.1243    0.0097    0.0000
 9 C               0.7119                       2.8108    2.4350    0.0402    0.0022
 10 H             -0.1744                       1.0786    0.0894    0.0063    0.0000
 11 H             -0.2042                       1.1156    0.0825    0.0060    0.0000
 12 H             -0.2247                       1.1371    0.0817    0.0059    0.0000

 Populations of individual BAS functions
 ----------------------------------------
 1 C            0.5066  1.4828  0.0986  0.9293 -0.0410 -0.0412 -0.1774 -0.1703  0.6598  0.8353
                0.7729  0.1438  0.2049  0.1898 -0.0034  0.0078  0.0122  0.0050  0.0118  0.0177
               -0.0021 -0.0006 -0.0021 -0.0000  0.0003  0.0030 -0.0007 -0.0018  0.0019  0.0050
 2 C            0.5047  1.4845  0.4101  0.8645 -0.0325  0.1716 -0.1164 -0.0872  0.5868  0.7453
                0.7447  0.1477  0.1758  0.1850 -0.0058  0.0171  0.0114  0.0217  0.0258  0.0243
               -0.0040 -0.0014 -0.0030  0.0026  0.0008  0.0028  0.0024  0.0009  0.0015  0.0035
 9 C            0.5072  1.4822 -0.0620  0.9263 -0.0430 -0.1590 -0.1597 -0.1807  0.7707  0.7738
                0.8105  0.1901  0.1907  0.1987  0.0069  0.0082  0.0033  0.0089  0.0075  0.0053
                0.0009 -0.0002 -0.0008  0.0011  0.0003 -0.0013  0.0017  0.0010 -0.0009  0.0005
 3 Br           0.7968  1.1334  2.0967  0.8032  0.8037  0.8035  1.1704  1.1697  1.1699  1.6449
                0.2362  1.1635  1.1729  1.1688  0.8712  0.8629  0.8668  0.2683  0.4024  0.4024
                0.2683  0.4025  0.2683  0.7648  1.1483  1.1480  0.7663  1.1488  0.7657  0.3016
                0.4493  0.4500  0.2976  0.4486  0.2993  0.4403  1.2471  0.3962  0.5083  0.6449
                0.5809  0.8224  1.0131  0.9378  0.1774  0.2915  0.2513  0.0212  0.0092  0.0191
               -0.0058  0.0040  0.0031  0.0138  0.0098  0.0125 -0.0097  0.0018  0.0004 -0.0103
               -0.0058  0.0031 -0.0018
 4 H            0.1309  0.6313  0.3174  0.0225  0.0343  0.0248 -0.0044  0.0012  0.0006  0.0087
                0.0014 -0.0017
 5 H            0.1376  0.6328  0.3154  0.0243  0.0342  0.0239  0.0001  0.0014  0.0008  0.0068
                0.0013 -0.0043
 7 H           -0.0074  0.5905  0.3270  0.0408  0.0333  0.0483  0.0091  0.0020  0.0023  0.0015
                0.0013 -0.0068
 8 H           -0.0307  0.6053  0.3210  0.0369  0.0320  0.0553  0.0035  0.0018  0.0018 -0.0003
                0.0015  0.0014
 10 H           0.1245  0.6438  0.3103  0.0372  0.0243  0.0279  0.0135  0.0020  0.0020 -0.0057
                0.0001 -0.0057
 11 H           0.1480  0.6577  0.3099  0.0236  0.0220  0.0370 -0.0059  0.0001  0.0020 -0.0062
                0.0020  0.0140
 12 H           0.1849  0.6415  0.3108  0.0247  0.0295  0.0275 -0.0042  0.0015  0.0005  0.0089
                0.0015 -0.0024
 6 N            0.5502  1.4306 -0.0333  0.9958  0.4281  0.1782  0.1640  0.2205  0.8171  0.8116
                0.8805  0.1018  0.0322  0.4289  0.0073  0.0137  0.0067  0.0132  0.0110 -0.0087
               -0.0003  0.0012  0.0018  0.0034  0.0005 -0.0025  0.0014  0.0043 -0.0016 -0.0052

 Gross Charges per Atom (Z minus electrons)
 ==========================================
             0.5522    0.1148   -0.3107   -0.1670   -0.1741   -0.0523   -0.0419   -0.0295    0.7119   -0.1744
            -0.2042   -0.2247
 Net Total:  0.00000000


 Atom-Atom Population Matrix (off-diagonal elements not doubled)
 ===============================================================

     1 :     4.2352
     2 :     0.4492    5.0618
     3 :     0.2101   -0.0544   35.2613
     4 :     0.3578   -0.0394   -0.0541    1.0055
     5 :     0.3626   -0.0478   -0.0570   -0.0808    1.0298
     6 :    -0.0587    0.3328   -0.0145    0.0123   -0.0186    5.9941
     7 :    -0.0115   -0.0526   -0.0031   -0.0003   -0.0011    0.4309    0.7241
     8 :    -0.0230   -0.0641    0.0218    0.0004   -0.0131    0.4381   -0.0431    0.7106
     9 :    -0.0500    0.4046   -0.0066   -0.0161    0.0038   -0.0474    0.0011    0.0016    3.9404
    10 :    -0.0202   -0.0524    0.0111   -0.0087    0.0008   -0.0155   -0.0010    0.0047    0.3790    0.9866
    11 :     0.0009   -0.0235   -0.0007    0.0040   -0.0072   -0.0110    0.0026   -0.0035    0.3421   -0.0478
             1.0151
    12 :    -0.0047   -0.0289   -0.0031   -0.0138    0.0025    0.0097   -0.0041   -0.0009    0.3357   -0.0623
            -0.0668    1.0616



 =================================================
 H I R S H F E L D   C H A R G E   A N A L Y S I S
 =================================================
  
 For each fragment: the (numerical) integral of rho(scf) * rho(fragment)/rho(sum-of-fragments)
 (nuclear charges are included, electrons are counted negative)

 The fragments and their ordering are defined in the early G E O M E T R Y output section.
 If you use single-atom fragments, this usually implies that all atoms of the same
 chemical type are grouped together. This may not be the order in which you listed them
 in the input file!

  Fragment                       Charge
 ------------------------------------------
    1  C                        -0.0565
    2  C                         0.0830
    3  C                        -0.1058
    4  Br                       -0.1175
    5  H                         0.0430
    6  H                         0.0392
    7  H                         0.1030
    8  H                         0.0964
    9  H                         0.0505
   10  H                         0.0425
   11  H                         0.0399
   12  N                        -0.2178

 Sum of these charges =         -0.00013082
 (accuracy NumInt/Tails)



 =============================
 V O R O N O I   C H A R G E S
 =============================
  
 For each atom: the (numerical) integral of the total electronic charge density in its Voronoi cell,
 i.e. the region of space that is closer to that atom than to any other atom.
 (cf. Wigner-Seitz cells in crystals)

 Within the Voronoi cell the subintegrals over the atomic sphere and the remaining part are evaluated
[...]
                                   -4.19%     2 P:z             4.589  0.00     3 C
                                    4.02%     1 S              -6.532  1.00     5 H
                                   -3.41%     2 P:x             7.649  0.00    12 N
                                    2.78%     2 S               2.394  0.00    10 H
                                    2.64%     1 P:y            -5.239  0.67     3 C
                                    2.04%     1 P:x            -5.239  0.67     1 C
                                   -1.91%     2 S               2.394  0.00    11 H
                                    1.61%     2 S             -18.450  2.00    12 N
                                    1.44%     3 S              40.869  0.00     6 H
                                    1.38%     3 S              40.869  0.00     8 H
                                   -1.31%     3 S              14.073  0.00    12 N
                                   -1.22%     2 P:z             4.589  0.00     1 C
                                    1.14%     1 P:z            -5.239  0.67     3 C
                                    1.12%     2 D:yz            7.341  0.00     4 Br
       1.814  0.00    41 A         34.64%     1 S              -6.532  1.00    10 H
                                  -28.47%     2 P:z             4.589  0.00     3 C
                                   18.70%     1 S              -6.532  1.00     9 H
                                   12.00%     2 S               2.394  0.00    10 H
                                   11.95%     2 S               2.394  0.00     9 H
                                   11.81%     1 P:z            -5.239  0.67     3 C
                                    7.63%     1 S              -6.532  1.00    11 H
                                    7.60%     1 S              -6.532  1.00     8 H
                                    6.68%     1 S              -6.532  1.00     7 H
                                    5.91%     1 S              -6.532  1.00     5 H
                                   -4.07%     2 P:x             4.589  0.00     3 C
                                    3.79%     2 S               2.394  0.00    11 H
                                   -3.38%     2 S               2.394  0.00     7 H
                                    2.38%     3 S              40.869  0.00    10 H
                                    2.14%     1 P:x            -7.062  1.00    12 N
                                   -2.03%     2 P:x             7.649  0.00    12 N
                                    1.84%     2 P:z             4.589  0.00     2 C
                                    1.74%     3 S              40.869  0.00     9 H
                                   -1.39%     2 P:y             4.589  0.00     1 C
                                    1.04%     1 P:y            -5.239  0.67     1 C
       2.101  0.00    42 A         24.61%     1 S              -6.532  1.00    11 H
                                   18.15%     1 S              -6.532  1.00     9 H
                                   14.71%     1 S              -6.532  1.00     5 H
                                  -14.37%     2 P:x             4.589  0.00     3 C
                                  -12.20%     2 P:y             4.589  0.00     1 C
                                   10.56%     1 S              -6.532  1.00     6 H
                                   10.30%     1 P:x            -5.239  0.67     3 C
                                    9.70%     2 S               2.394  0.00    11 H
                                    7.92%     1 S              -6.532  1.00     8 H
                                    6.39%     1 S              -6.532  1.00     7 H
                                    6.00%     2 S               2.394  0.00     5 H
                                    5.02%     2 S               2.394  0.00     9 H
                                    3.79%     1 P:y            -5.239  0.67     1 C
                                    2.90%     3 S              40.869  0.00    11 H
                                   -2.83%     2 P:x             7.649  0.00    12 N
                                   -2.25%     2 S               2.394  0.00     6 H
                                    1.78%     1 P:x            -7.062  1.00    12 N
                                   -1.75%     2 P:y             4.589  0.00     3 C
                                    1.64%     1 P:z            -5.239  0.67     3 C
                                    1.52%     4 P:y             3.720  0.00     4 Br
                                   -1.43%     2 P:z             4.589  0.00     3 C
                                    1.30%     4 P:x             3.720  0.00     4 Br
                                    1.16%     3 S              40.869  0.00     9 H
                                    1.04%     1 P:y            11.051  0.00     8 H
       2.747  0.00    43 A        -29.61%     3 S              10.158  0.00     2 C
                                   20.24%     2 S             -13.620  2.00     2 C
                                   16.05%     1 P:y            -5.239  0.67     3 C
                                   13.97%     2 P:z             4.589  0.00     1 C
                                   13.75%     2 P:y             4.589  0.00     3 C
                                   11.29%     1 P:x            -5.239  0.67     3 C
                                   10.64%     1 P:z            -5.239  0.67     1 C
                                   10.06%     2 P:x             4.589  0.00     3 C
                                    4.94%     1 S              -6.532  1.00     9 H
                                    4.26%     1 P:y            -7.062  1.00    12 N
                                    2.58%     2 P:z             4.589  0.00     3 C
                                   -2.58%     2 P:y             4.589  0.00     2 C
                                    2.25%     2 P:x             4.589  0.00     2 C
                                    2.04%     2 P:y             7.649  0.00    12 N
                                    1.99%     1 S              -6.532  1.00    11 H
                                    1.86%     1 S              -6.532  1.00     6 H
                                   -1.77%     2 S               2.394  0.00     9 H
                                    1.73%     1 P:y            -5.239  0.67     1 C
                                    1.54%     1 S              -6.532  1.00     8 H
                                    1.51%     1 S              -6.532  1.00     5 H
                                    1.27%     1 S              -6.532  1.00     7 H
                                    1.10%     1 P:x            -5.239  0.67     2 C
                                    1.05%     4 P:z             3.720  0.00     4 Br
       3.515  0.00    44 A         34.07%     2 P:x             4.589  0.00     1 C
                                   27.48%     4 P:z             3.720  0.00     4 Br
                                   22.30%     4 P:x             3.720  0.00     4 Br
                                   -7.80%     5 S               6.099  0.00     4 Br
                                    6.63%     1 S              -6.532  1.00     9 H
                                   -6.20%     2 P:x             4.589  0.00     2 C
                                    4.60%     1 P:z            -5.239  0.67     3 C
                                    4.55%     2 P:z             4.589  0.00     3 C
                                    4.42%     1 P:y            -5.239  0.67     3 C
                                    3.80%     2 P:z             4.589  0.00     1 C
                                   -3.47%     2 P:y             4.589  0.00     3 C
                                   -3.46%     2 S               2.394  0.00    10 H
                                    2.62%     1 S              -6.532  1.00    10 H
                                    2.12%     1 S              -6.532  1.00     8 H
                                    2.12%     1 S              -6.532  1.00     5 H
                                    1.95%     1 P:x            -5.239  0.67     2 C
                                    1.81%     1 P:x            -5.239  0.67     3 C
                                    1.77%     1 S              -6.532  1.00    11 H
                                   -1.69%     2 S               2.394  0.00     9 H
                                   -1.50%     1 P:x            -5.239  0.67     1 C
                                    1.34%     2 D:x2-y2         7.341  0.00     4 Br
                                    1.31%     1 S              -6.532  1.00     7 H
                                   -1.27%     3 P:x            -7.716  1.67     4 Br
       3.686  0.00    45 A         16.67%     4 P:x             3.720  0.00     4 Br
                                   10.98%     2 P:z             4.589  0.00     3 C
                                   10.82%     4 P:y             3.720  0.00     4 Br
                                   10.30%     2 P:x             4.589  0.00     3 C
                                   -9.48%     2 P:z             4.589  0.00     2 C
                                    8.18%     1 P:z            -5.239  0.67     1 C
                                    7.32%     2 P:x             4.589  0.00     1 C
                                    6.39%     1 P:z            -5.239  0.67     3 C
                                    6.05%     1 S              -6.532  1.00     5 H
                                    5.95%     1 P:z            -5.239  0.67     2 C
                                    4.90%     4 P:z             3.720  0.00     4 Br
                                    4.52%     2 P:x             4.589  0.00     2 C
                                    4.30%     2 D:x2-y2         7.341  0.00     4 Br
                                    3.92%     1 S              -6.532  1.00     6 H
                                    3.85%     1 P:x            -5.239  0.67     1 C
                                   -2.64%     2 P:z             4.589  0.00     1 C
                                    2.31%     1 S              -6.532  1.00    10 H
                                    2.17%     2 S               2.394  0.00     8 H
                                   -2.16%     2 S               2.394  0.00     5 H
                                   -2.14%     1 S              -6.532  1.00     9 H
                                    1.61%     1 P:z            11.051  0.00    11 H
                                    1.59%     1 P:x            11.051  0.00     5 H
                                   -1.39%     2 S               2.394  0.00    11 H
                                    1.33%     1 S              -6.532  1.00    11 H
                                    1.06%     1 P:y            11.051  0.00     5 H



 =======================================================================
 Electrostatic potential at the Nuclei due to electrons and other nuclei
 =======================================================================
  
         Atom                  Potential
         ----                  ---------
     1)   C                  14.74303883
     2)   C                  14.71877403
     3)   Br                180.54962243
     4)   H                   1.08644529
     5)   H                   1.08613319
     6)   N                  18.41686074
     7)   H                   1.03845463
     8)   H                   1.03410285
     9)   C                  14.78076316
    10)   H                   1.08862074
    11)   H                   1.10683023
    12)   H                   1.10603814
 Mulliken charges used for AMS results%charges...


    =====================
     CALCULATION RESULTS
    =====================

Energy (hartree)            -2.14929860


--------------
Atomic charges
--------------
  Index   Atom    Charge
      1      C    0.5522
      2      C    0.1148
      3     Br   -0.3107
      4      H   -0.1670
      5      H   -0.1741
      6      N   -0.0523
      7      H   -0.0419
      8      H   -0.0295
      9      C    0.7119
     10      H   -0.1744
     11      H   -0.2042
     12      H   -0.2247


Dipole moment vector    (Debye):    -1.94157265   -0.28895181    0.90301779
              magnitude (Debye):     2.16070327


-----------------------
Molecular orbitals info
-----------------------
n orbitals:              237
n spin:                    1

Note: only printing virtual orbitals with
      energy smaller than HOMO + 100. eV

Note: fractional orbital occupations. HOMO and LUMO labels are not well defined!

HOMO (eV):              -6.1456
LUMO (eV):              -5.0881
HOMO-LUMO gap (eV):      1.0575

   Index   Energy (eV)    Occupation
     160       93.4224         0.000       
     159       92.8136         0.000       
     158       92.6141         0.000       
     157       90.6778         0.000       
     156       88.8107         0.000       
     155       87.6064         0.000       
     154       85.2594         0.000       
     153       84.1487         0.000       
     152       83.5618         0.000       
     151       83.0665         0.000       
     150       82.7938         0.000       
     149       82.2348         0.000       
     148       81.4391         0.000       
     147       80.4512         0.000       
     146       80.1312         0.000       
     145       79.4953         0.000       
     144       79.2000         0.000       
     143       78.5543         0.000       
     142       77.6186         0.000       
     141       76.8682         0.000       
     140       76.6450         0.000       
     139       76.0018         0.000       
     138       74.9267         0.000       
     137       73.7266         0.000       
     136       73.3679         0.000       
     135       71.8949         0.000       
     134       71.4897         0.000       
     133       68.9560         0.000       
     132       67.8350         0.000       
     131       67.1725         0.000       
     130       65.8937         0.000       
     129       64.9368         0.000       
     128       63.4155         0.000       
     127       62.0879         0.000       
     126       60.3107         0.000       
     125       59.6348         0.000       
     124       57.9898         0.000       
     123       57.4487         0.000       
     122       55.7795         0.000       
     121       55.0236         0.000       
     120       52.7800         0.000       
     119       52.2139         0.000       
     118       51.5402         0.000       
     117       50.7938         0.000       
     116       49.7806         0.000       
     115       49.3119         0.000       
     114       48.6191         0.000       
     113       45.9249         0.000       
     112       44.0371         0.000       
     111       43.4073         0.000       
     110       41.9215         0.000       
     109       41.6128         0.000       
     108       40.8817         0.000       
     107       39.9555         0.000       
     106       38.4267         0.000       
     105       37.5855         0.000       
     104       36.9739         0.000       
     103       36.4786         0.000       
     102       35.6024         0.000       
     101       34.8606         0.000       
     100       34.1273         0.000       
      99       33.6347         0.000       
      98       33.4214         0.000       
      97       32.7106         0.000       
      96       31.9324         0.000       
      95       31.4074         0.000       
      94       30.7628         0.000       
      93       29.5896         0.000       
      92       29.5251         0.000       
      91       28.5801         0.000       
      90       27.8614         0.000       
      89       27.7271         0.000       
      88       27.2571         0.000       
      87       26.8229         0.000       
      86       26.5171         0.000       
      85       26.0264         0.000       
      84       25.2981         0.000       
      83       24.6080         0.000       
      82       24.4045         0.000       
      81       23.9604         0.000       
      80       23.5467         0.000       
      79       22.4282         0.000       
      78       20.8503         0.000       
      77       19.5049         0.000       
      76       18.5468         0.000       
      75       17.8446         0.000       
      74       16.8108         0.000       
      73       16.5419         0.000       
      72       15.5710         0.000       
      71       14.2527         0.000       
      70       14.0953         0.000       
      69       12.9452         0.000       
      68       12.5824         0.000       
      67       12.1526         0.000       
      66       11.5287         0.000       
      65       11.1374         0.000       
      64       10.8366         0.000       
      63       10.4694         0.000       
      62       10.0982         0.000       
      61        9.3109         0.000       
      60        9.1018         0.000       
      59        8.9142         0.000       
      58        8.5754         0.000       
      57        8.2364         0.000       
      56        7.4157         0.000       
      55        7.1747         0.000       
      54        6.8276         0.000       
      53        6.3481         0.000       
      52        5.7213         0.000       
      51        5.3906         0.000       
      50        5.2666         0.000       
      49        5.0841         0.000       
      48        4.7593         0.000       
      47        4.6063         0.000       
      46        4.3676         0.000       
      45        3.6861         0.000       
      44        3.5152         0.000       
      43        2.7467         0.000       
      42        2.1010         0.000       
      41        1.8143         0.000       
      40        1.1061         0.000       
      39        1.0712         0.000       
      38        0.8254         0.000       
      37        0.3368         0.000       
      36       -0.5308         0.000       
      35       -1.4862         0.000       
      34       -5.0881         1.000 < LUMO
      33       -6.1456         2.000 < HOMO
      32       -6.4605         2.000       
      31       -6.5654         2.000       
      30       -8.8846         2.000       
      29       -9.2362         2.000       
      28       -9.4260         2.000       
      27      -10.3768         2.000       
      26      -11.2289         2.000       
      25      -11.8014         2.000       
      24      -12.5046         2.000       
      23      -13.9357         2.000       
      22      -17.2047         2.000       
      21      -18.6844         2.000       
      20      -19.7366         2.000       
      19      -22.6755         2.000       
      18      -65.1669         2.000       
      17      -65.1673         2.000       
      16      -65.4060         2.000       
      15      -65.4129         2.000       
      14      -65.4968         2.000       
      13     -171.7400         2.000       
      12     -171.7483         2.000       
      11     -172.0761         2.000       
      10     -235.6267         2.000       
       9     -270.1564         2.000       
       8     -271.3166         2.000       
       7     -271.9279         2.000       
       6     -381.5681         2.000       
       5    -1525.8598         2.000       
       4    -1525.8628         2.000       
       3    -1525.9731         2.000       
       2    -1728.9858         2.000       
       1   -13295.4860         2.000       

AMS application finished. Exiting.
NORMAL TERMINATION
     Total cpu time:      36.74
  Total system time:       0.34
 Total elapsed time:      37.20
NORMAL TERMINATION with warnings
