
 *******************************************************************************
 *                                                                             *
 *  --------------------------------                                           *
 *   Amsterdam Modeling Suite (AMS)              2026.103                      *
 *  --------------------------------                                           *
 *                                               r260501 2026-05-01 873454b5   *
 *                                                                             *
 *                                                                             *
 *                              =================                              *
 *                              |               |                              *
 *                              |     A M S     |                              *
 *                              |               |                              *
 *                              =================                              *
 *                                                                             *
 *                                                                             *
 *   Online information and documentation:  https://www.scm.com/support/       *
 *   E-mail:  support@scm.com   info@scm.com                                   *
 *                                                                             *
 *   Scientific publications using AMS results must be properly referenced     *
 *   See the User Manuals (or the web site) for recommended citations          *
 *   The terms and conditions of the End User License Agreement apply to       *
 *   the use of AMS, https://www.scm.com/license-terms/                        *
 *                                                                             *
 **********************  x86_64_linux_intel / intelmpi  ************************
 
 Licensed to: Jong-June Jeon / University of Seoul 2026-06-02 13:44:15
 SCM User ID: u30731
  
 AMS 2026.103  RunTime: Jun03-2026 02:59:44  ShM Nodes: 1  Procs: 1

 AMS jobname: c1_fragA_ts
 AMS jobid  : 1645639068

 Start   directory: /gpfs/home1/yeseo1ee/projects/eda-asm-prediction/ADF_800/adf_outputs/batch_000/dipolar_000387/
 Results directory: /gpfs/home1/yeseo1ee/projects/eda-asm-prediction/ADF_800/adf_outputs/batch_000/dipolar_000387/c1_fragA_ts.results/
 Scratch directory: /tmp/amstmp_c1_fragA_ts_kid0.1645639068/

 RNG seed: -1864860984 2005066752 250230275 -259105751 -1999761440 495753620 1959789207 753553273



                      ************************************************************************
                      *  ADF 2026.103  RunTime: Jun03-2026 02:59:44  ShM Nodes: 1  Procs: 1  *
                      ************************************************************************
  

       ****************************
       * SINGLE POINT CALCULATION *
       ****************************

--------
Geometry
--------
Formula: C4H7N
Atoms
  Index Symbol   x (angstrom)   y (angstrom)   z (angstrom)
      1      C    -1.89098000    -2.15775000     2.24663000
      2      C    -1.89948000    -1.46648000     0.93260000
      3      N    -2.79759000    -0.83316000     0.39811000
      4      C    -3.46651000    -0.02212000    -0.34065000
      5      C    -3.42490000     1.46146000    -0.13021000
      6      H    -1.72685000    -3.23499000     2.08031000
      7      H    -2.81010000    -2.01682000     2.84256000
      8      H    -1.02021000    -1.80644000     2.82144000
      9      H    -4.16470000    -0.45498000    -1.06621000
     10      H    -3.39858000     1.98804000    -1.09828000
     11      H    -2.53406000     1.74631000     0.44942000
     12      H    -4.31807000     1.82696000     0.40940000

Total System Charge              0.00000


----------------
ADF Engine Input
----------------
 
   Basis
     Type TZ2P
     Core None
   End
   XC
     GGA BLYP
     Dispersion GRIMME3 BJDAMP
   End
   Symmetry NOSYM
   NumericalQuality Normal
   Unrestricted No
   SCF
     Iterations 200
     Converge 1.0e-6
   End
   Save TAPE21
 

 Title: *** (NO TITLE) ***

 *** adf ***



 ===========================
 A T T A C H E D   F I L E S
 ===========================
  



 ===============================
 M O D E L   P A R A M E T E R S
 ===============================
  
 DENSITY FUNCTIONAL POTENTIAL (scf)
    LDA:                               Exchange only                           == Not Default ==
    Gradient Corrections:              Becke88 LYP                             == Not Default ==

 SPIN  (restricted / unrestr.)
    Molecule:                          Restricted                               
    Fragments:                         Restricted                               

 OTHER ASPECTS
    Relativistic Corrections:          scalar (ZORA,MAPA)                       

    Nuclear Charge Density Model:      Point Charge Nuclei                      
    Core Treatment:                    Frozen Orbital(s)                        

    Hyperfine or Zeeman Interaction:   ---                                      

 Settings for Grimme D3 dispersion correction

      damping                        BJ
      s6                          1.000
      s8                          2.700
      a1                          0.430
      a2                          4.236

 Other (technical) parameters

      alpha                      14.000
      version                         4
 


 Fragment File(s)
 ----------------
 C:
         file : /gpfs/home1/yeseo1ee/projects/eda-asm-prediction/ADF_800/adf_outputs/batch_000/dipolar_000387/c1_fragA_ts.results/t21.50BA88D5.C
         jobid: 0
         title: Carbon (TZ2P)
 N:
         file : /gpfs/home1/yeseo1ee/projects/eda-asm-prediction/ADF_800/adf_outputs/batch_000/dipolar_000387/c1_fragA_ts.results/t21.44EAA48D.N
         jobid: 0
         title: Nitrogen (TZ2P)
 H:
         file : /gpfs/home1/yeseo1ee/projects/eda-asm-prediction/ADF_800/adf_outputs/batch_000/dipolar_000387/c1_fragA_ts.results/t21.6F35CCAB.H
         jobid: 0
         title: Hydrogen (TZ2P)



 ===============
 G E O M E T R Y  ***  3D  Molecule  ***
 ===============
  

 ATOMS
 =====                            X Y Z                    CHARGE
                                (Angstrom)             Nucl     +Core       At.Mass
                       --------------------------    ----------------       -------
    1  C              -1.8910   -2.1578    2.2466      6.00      6.00       12.0000
    2  C              -1.8995   -1.4665    0.9326      6.00      6.00       12.0000
    3  N              -2.7976   -0.8332    0.3981      7.00      7.00       14.0031
    4  C              -3.4665   -0.0221   -0.3407      6.00      6.00       12.0000
    5  C              -3.4249    1.4615   -0.1302      6.00      6.00       12.0000
    6  H              -1.7268   -3.2350    2.0803      1.00      1.00        1.0078
    7  H              -2.8101   -2.0168    2.8426      1.00      1.00        1.0078
    8  H              -1.0202   -1.8064    2.8214      1.00      1.00        1.0078
    9  H              -4.1647   -0.4550   -1.0662      1.00      1.00        1.0078
   10  H              -3.3986    1.9880   -1.0983      1.00      1.00        1.0078
   11  H              -2.5341    1.7463    0.4494      1.00      1.00        1.0078
   12  H              -4.3181    1.8270    0.4094      1.00      1.00        1.0078


 FRAGMENTS
 =========                                     Atoms in this Fragment     Cart. coord.s (Angstrom)
                                               -------------------------------------------------------
    1  C                                                 1  C           -1.8910   -2.1578    2.2466
    2  C                                                 2  C           -1.8995   -1.4665    0.9326
    3  C                                                 4  C           -3.4665   -0.0221   -0.3407
    4  C                                                 5  C           -3.4249    1.4615   -0.1302
    5  N                                                 3  N           -2.7976   -0.8332    0.3981
    6  H                                                 6  H           -1.7268   -3.2350    2.0803
    7  H                                                 7  H           -2.8101   -2.0168    2.8426
    8  H                                                 8  H           -1.0202   -1.8064    2.8214
    9  H                                                 9  H           -4.1647   -0.4550   -1.0662
   10  H                                                10  H           -3.3986    1.9880   -1.0983
   11  H                                                11  H           -2.5341    1.7463    0.4494
   12  H                                                12  H           -4.3181    1.8270    0.4094


 Interatomic Distance Matrix (Angstrom)
 --------------------------------------

   1)     0.000
   2)     1.485   0.000
   3)     2.448   1.222   0.000
   4)     3.706   2.483   1.285   0.000
   5)     4.594   3.468   2.437   1.499   0.000
   6)     1.102   2.115   3.122   4.383   5.461   0.000
   7)     1.104   2.186   2.716   3.813   4.617   1.800   0.000
   8)     1.101   2.111   3.159   4.378   5.017   1.758   1.802   0.000
   9)     4.364   3.186   2.039   1.096   2.257   4.855   4.422   5.180   0.000
  10)     5.536   4.278   3.250   2.149   1.102   6.339   5.649   5.951   2.561   0.000
  11)     4.346   3.310   2.593   2.150   1.100   5.303   4.468   4.532   3.131   1.789
          0.000
  12)     5.014   4.119   3.064   2.170   1.106   5.927   4.793   5.468   2.722   1.773
          1.786   0.000

 Min. Distance =    1.0960
 Max. Distance =    6.3386



 =====================================
 S Y M M E T R Y ,   E L E C T R O N S
 =====================================
  
 Symmetry: NOSYM

 Irreducible Representations, including subspecies
 -------------------------------------------------
 A


 Configuration of Valence Electrons
 ==================================
 ( determined in the SCF procedure )

 Total:   38

 Net Charge: 0 (Nuclei minus Electrons)

 Aufbau principle for MO occupations will be applied through SCF cycle no.     100
 Thereafter, the program will assign electrons to MOs that are spatially
 similar to the occupied MOs in a "reference" cycle ("KeepOrbitals").
 The reference cycle is always the PREVIOUS cycle: it will evolve with
 the SCF procedure.
 ***************************************************************************************************



                                      ****************************************
                                      *  B U I L D : (Fragments, Functions)  *
                                      ****************************************
  



 =======
 S F O s  ***  (Symmetrized Fragment Orbitals)  ***
 =======
  
 SFOs are linear combinations of (valence) Fragment Orbitals (FOs), such that the SFOs transform as the
 irreducible representations of the (molecular) symmetry group. Each SFO is therefore characterized by
 an irrep of the molecule and by a few (or only one) generating FOs.
 The SFOs constitute a symmetry-adapted basis for the Fock matrix. The MO eigenvector coefficients in
 this basis provide a direct interpretation of the MOs in terms of Frontier Orbital Theory.

 The SFOs are combined with auxiliary Core Functions (CFs) to ensure orthogonalization on the (frozen)
 Core Orbitals (COs). The Core-orthogonalized SFOs (CSFOs) constitute the true Fock basis.

 The FOs, and hence also the (C)SFOs are combinations of the elementary basis functions (BAS). The basis
 functions that participate in the description of the SFOs depend on the irrep. The indices of the
 involved functions are printed below for each irrep.
 (The complete list of primitive basis functions is printed in another section)

 Total nr. of (C)SFOs (summation over all irreps) :   207

 NOTE: a (C)SFO that is defined as a combination of more than one FO is usually NOT normalized.



                                       === A ===
 Nr. of SFOs :  207
 Cartesian basis functions that participate in this irrep (total number =   234) :
      1     2     3     4     5     6     9    12     7    10
     13     8    11    14    15    16    17    18    19    20
     21    22    23    24    25    26    27    28    29    30
     31    32    33    34    35    36    39    42    37    40
     43    38    41    44    45    46    47    48    49    50
     51    52    53    54    55    56    57    58    59    60
     61    62    63    64    65    66    69    72    67    70
     73    68    71    74    75    76    77    78    79    80
     81    82    83    84    85    86    87    88    89    90
     91    92    93    94    95    96    99   102    97   100
    103    98   101   104   105   106   107   108   109   110
    111   112   113   114   115   116   117   118   119   120
    121   122   123   124   125   126   129   132   127   130
    133   128   131   134   135   136   137   138   139   140
    141   142   143   144   145   146   147   148   149   150
    151   152   153   154   155   156   157   158   159   160
    161   162   163   164   165   166   167   168   169   170
    171   172   173   174   175   176   177   178   179   180
    181   182   183   184   185   186   187   188   189   190
    191   192   193   194   195   196   197   198   199   200
    201   202   203   204   205   206   207   208   209   210
    211   212   213   214   215   216   217   218   219   220
    221   222   223   224   225   226   227   228   229   230
    231   232   233   234

    SFO  (index         Fragment          Generating    Expansion in Fragment Orbitals
  indx  incl.CFs)   Occup   Orb.Energy   FragmentType  Coeff.   Orbital     on Fragment
 --------------------------------------------------------------------------------------
     1       1      2.000     -10.066 au  C             1.00      1 S               1
                        (    -273.921 eV)
     2       2      2.000      -0.501 au  C             1.00      2 S               1
                        (     -13.620 eV)
     3       3       --         0.373 au  C             1.00      3 S               1
                        (      10.158 eV)
     4       4       --         5.405 au  C             1.00      4 S               1
                        (     147.073 eV)
     5       5       --        49.848 au  C             1.00      5 S               1
                        (    1356.422 eV)
     6       6      0.667      -0.193 au  C             1.00      1 P:x             1
                        (      -5.239 eV)
     7       7       --         0.169 au  C             1.00      2 P:x             1
                        (       4.589 eV)
     8       8       --         2.013 au  C             1.00      3 P:x             1
                        (      54.789 eV)
     9       9      0.667      -0.193 au  C             1.00      1 P:y             1
                        (      -5.239 eV)
    10      10       --         0.169 au  C             1.00      2 P:y             1
                        (       4.589 eV)
    11      11       --         2.013 au  C             1.00      3 P:y             1
                        (      54.789 eV)
    12      12      0.667      -0.193 au  C             1.00      1 P:z             1
                        (      -5.239 eV)
    13      13       --         0.169 au  C             1.00      2 P:z             1
                        (       4.589 eV)
    14      14       --         2.013 au  C             1.00      3 P:z             1
                        (      54.789 eV)
    15      15       --         1.243 au  C             1.00      1 D:z2            1
                        (      33.824 eV)
    16      16       --         1.243 au  C             1.00      1 D:x2-y2         1
                        (      33.824 eV)
    17      17       --         1.243 au  C             1.00      1 D:xy            1
                        (      33.824 eV)
    18      18       --         1.243 au  C             1.00      1 D:xz            1
                        (      33.824 eV)
    19      19       --         1.243 au  C             1.00      1 D:yz            1
                        (      33.824 eV)
    20      20       --         4.016 au  C             1.00      1 F:z3            1
                        (     109.271 eV)
    21      21       --         4.016 au  C             1.00      1 F:z             1
                        (     109.271 eV)
    22      22       --         4.016 au  C             1.00      1 F:xyz           1
                        (     109.271 eV)
    23      23       --         4.016 au  C             1.00      1 F:z2x           1
                        (     109.271 eV)
    24      24       --         4.016 au  C             1.00      1 F:z2y           1
                        (     109.271 eV)
    25      25       --         4.016 au  C             1.00      1 F:x             1
                        (     109.271 eV)
    26      26       --         4.016 au  C             1.00      1 F:y             1
                        (     109.271 eV)
    27      27      2.000     -10.066 au  C             1.00      1 S               2
                        (    -273.921 eV)
    28      28      2.000      -0.501 au  C             1.00      2 S               2
                        (     -13.620 eV)
    29      29       --         0.373 au  C             1.00      3 S               2
                        (      10.158 eV)
    30      30       --         5.405 au  C             1.00      4 S               2
                        (     147.073 eV)
    31      31       --        49.848 au  C             1.00      5 S               2
                        (    1356.422 eV)
    32      32      0.667      -0.193 au  C             1.00      1 P:x             2
                        (      -5.239 eV)
    33      33       --         0.169 au  C             1.00      2 P:x             2
                        (       4.589 eV)
    34      34       --         2.013 au  C             1.00      3 P:x             2
                        (      54.789 eV)
    35      35      0.667      -0.193 au  C             1.00      1 P:y             2
                        (      -5.239 eV)
    36      36       --         0.169 au  C             1.00      2 P:y             2
                        (       4.589 eV)
    37      37       --         2.013 au  C             1.00      3 P:y             2
                        (      54.789 eV)
    38      38      0.667      -0.193 au  C             1.00      1 P:z             2
                        (      -5.239 eV)
    39      39       --         0.169 au  C             1.00      2 P:z             2
                        (       4.589 eV)
    40      40       --         2.013 au  C             1.00      3 P:z             2
                        (      54.789 eV)
    41      41       --         1.243 au  C             1.00      1 D:z2            2
                        (      33.824 eV)
    42      42       --         1.243 au  C             1.00      1 D:x2-y2         2
                        (      33.824 eV)
    43      43       --         1.243 au  C             1.00      1 D:xy            2
                        (      33.824 eV)
    44      44       --         1.243 au  C             1.00      1 D:xz            2
                        (      33.824 eV)
    45      45       --         1.243 au  C             1.00      1 D:yz            2
                        (      33.824 eV)
    46      46       --         4.016 au  C             1.00      1 F:z3            2
                        (     109.271 eV)
    47      47       --         4.016 au  C             1.00      1 F:z             2
                        (     109.271 eV)
    48      48       --         4.016 au  C             1.00      1 F:xyz           2
                        (     109.271 eV)
    49      49       --         4.016 au  C             1.00      1 F:z2x           2
                        (     109.271 eV)
    50      50       --         4.016 au  C             1.00      1 F:z2y           2
                        (     109.271 eV)
    51      51       --         4.016 au  C             1.00      1 F:x             2
                        (     109.271 eV)
    52      52       --         4.016 au  C             1.00      1 F:y             2
                        (     109.271 eV)
    53      53      2.000     -10.066 au  C             1.00      1 S               3
                        (    -273.921 eV)
    54      54      2.000      -0.501 au  C             1.00      2 S               3
                        (     -13.620 eV)
    55      55       --         0.373 au  C             1.00      3 S               3
                        (      10.158 eV)
    56      56       --         5.405 au  C             1.00      4 S               3
                        (     147.073 eV)
    57      57       --        49.848 au  C             1.00      5 S               3
                        (    1356.422 eV)
    58      58      0.667      -0.193 au  C             1.00      1 P:x             3
                        (      -5.239 eV)
    59      59       --         0.169 au  C             1.00      2 P:x             3
                        (       4.589 eV)
    60      60       --         2.013 au  C             1.00      3 P:x             3
                        (      54.789 eV)
    61      61      0.667      -0.193 au  C             1.00      1 P:y             3
                        (      -5.239 eV)
    62      62       --         0.169 au  C             1.00      2 P:y             3
                        (       4.589 eV)
    63      63       --         2.013 au  C             1.00      3 P:y             3
                        (      54.789 eV)
    64      64      0.667      -0.193 au  C             1.00      1 P:z             3
                        (      -5.239 eV)
    65      65       --         0.169 au  C             1.00      2 P:z             3
                        (       4.589 eV)
    66      66       --         2.013 au  C             1.00      3 P:z             3
                        (      54.789 eV)
    67      67       --         1.243 au  C             1.00      1 D:z2            3
                        (      33.824 eV)
    68      68       --         1.243 au  C             1.00      1 D:x2-y2         3
                        (      33.824 eV)
    69      69       --         1.243 au  C             1.00      1 D:xy            3
                        (      33.824 eV)
    70      70       --         1.243 au  C             1.00      1 D:xz            3
                        (      33.824 eV)
    71      71       --         1.243 au  C             1.00      1 D:yz            3
                        (      33.824 eV)
    72      72       --         4.016 au  C             1.00      1 F:z3            3
                        (     109.271 eV)
    73      73       --         4.016 au  C             1.00      1 F:z             3
                        (     109.271 eV)
    74      74       --         4.016 au  C             1.00      1 F:xyz           3
                        (     109.271 eV)
    75      75       --         4.016 au  C             1.00      1 F:z2x           3
                        (     109.271 eV)
    76      76       --         4.016 au  C             1.00      1 F:z2y           3
                        (     109.271 eV)
    77      77       --         4.016 au  C             1.00      1 F:x             3
                        (     109.271 eV)
    78      78       --         4.016 au  C             1.00      1 F:y             3
                        (     109.271 eV)
    79      79      2.000     -10.066 au  C             1.00      1 S               4
                        (    -273.921 eV)
    80      80      2.000      -0.501 au  C             1.00      2 S               4
                        (     -13.620 eV)
    81      81       --         0.373 au  C             1.00      3 S               4
                        (      10.158 eV)
    82      82       --         5.405 au  C             1.00      4 S               4
                        (     147.073 eV)
    83      83       --        49.848 au  C             1.00      5 S               4
                        (    1356.422 eV)
    84      84      0.667      -0.193 au  C             1.00      1 P:x             4
                        (      -5.239 eV)
    85      85       --         0.169 au  C             1.00      2 P:x             4
                        (       4.589 eV)
    86      86       --         2.013 au  C             1.00      3 P:x             4
                        (      54.789 eV)
    87      87      0.667      -0.193 au  C             1.00      1 P:y             4
                        (      -5.239 eV)
    88      88       --         0.169 au  C             1.00      2 P:y             4
                        (       4.589 eV)
    89      89       --         2.013 au  C             1.00      3 P:y             4
                        (      54.789 eV)
    90      90      0.667      -0.193 au  C             1.00      1 P:z             4
                        (      -5.239 eV)
    91      91       --         0.169 au  C             1.00      2 P:z             4
                        (       4.589 eV)
    92      92       --         2.013 au  C             1.00      3 P:z             4
                        (      54.789 eV)
    93      93       --         1.243 au  C             1.00      1 D:z2            4
                        (      33.824 eV)
    94      94       --         1.243 au  C             1.00      1 D:x2-y2         4
                        (      33.824 eV)
    95      95       --         1.243 au  C             1.00      1 D:xy            4
                        (      33.824 eV)
    96      96       --         1.243 au  C             1.00      1 D:xz            4
                        (      33.824 eV)
    97      97       --         1.243 au  C             1.00      1 D:yz            4
                        (      33.824 eV)
    98      98       --         4.016 au  C             1.00      1 F:z3            4
                        (     109.271 eV)
    99      99       --         4.016 au  C             1.00      1 F:z             4
                        (     109.271 eV)
   100     100       --         4.016 au  C             1.00      1 F:xyz           4
                        (     109.271 eV)
   101     101       --         4.016 au  C             1.00      1 F:z2x           4
                        (     109.271 eV)
   102     102       --         4.016 au  C             1.00      1 F:z2y           4
                        (     109.271 eV)
   103     103       --         4.016 au  C             1.00      1 F:x             4
                        (     109.271 eV)
   104     104       --         4.016 au  C             1.00      1 F:y             4
                        (     109.271 eV)
   105     105      2.000     -14.160 au  N             1.00      1 S               5
                        (    -385.319 eV)
   106     106      2.000      -0.678 au  N             1.00      2 S               5
                        (     -18.450 eV)
   107     107       --         0.517 au  N             1.00      3 S               5
                        (      14.073 eV)
   108     108       --         6.872 au  N             1.00      4 S               5
                        (     186.990 eV)
   109     109       --        63.432 au  N             1.00      5 S               5
                        (    1726.082 eV)
   110     110      1.000      -0.260 au  N             1.00      1 P:x             5
                        (      -7.062 eV)
   111     111       --         0.281 au  N             1.00      2 P:x             5
                        (       7.649 eV)
   112     112       --         3.275 au  N             1.00      3 P:x             5
                        (      89.105 eV)
   113     113      1.000      -0.260 au  N             1.00      1 P:y             5
                        (      -7.062 eV)
   114     114       --         0.281 au  N             1.00      2 P:y             5
                        (       7.649 eV)
   115     115       --         3.275 au  N             1.00      3 P:y             5
                        (      89.105 eV)
   116     116      1.000      -0.260 au  N             1.00      1 P:z             5
                        (      -7.062 eV)
   117     117       --         0.281 au  N             1.00      2 P:z             5
                        (       7.649 eV)
   118     118       --         3.275 au  N             1.00      3 P:z             5
                        (      89.105 eV)
   119     119       --         1.250 au  N             1.00      1 D:z2            5
                        (      34.005 eV)
   120     120       --         1.250 au  N             1.00      1 D:x2-y2         5
                        (      34.005 eV)
   121     121       --         1.250 au  N             1.00      1 D:xy            5
                        (      34.005 eV)
   122     122       --         1.250 au  N             1.00      1 D:xz            5
                        (      34.005 eV)
   123     123       --         1.250 au  N             1.00      1 D:yz            5
                        (      34.005 eV)
   124     124       --         4.013 au  N             1.00      1 F:z3            5
                        (     109.190 eV)
   125     125       --         4.013 au  N             1.00      1 F:z             5
                        (     109.190 eV)
   126     126       --         4.013 au  N             1.00      1 F:xyz           5
                        (     109.190 eV)
   127     127       --         4.013 au  N             1.00      1 F:z2x           5
                        (     109.190 eV)
   128     128       --         4.013 au  N             1.00      1 F:z2y           5
                        (     109.190 eV)
   129     129       --         4.013 au  N             1.00      1 F:x             5
                        (     109.190 eV)
   130     130       --         4.013 au  N             1.00      1 F:y             5
                        (     109.190 eV)
   131     131      1.000      -0.240 au  H             1.00      1 S               6
                        (      -6.532 eV)
   132     132       --         0.088 au  H             1.00      2 S               6
                        (       2.394 eV)
   133     133       --         1.502 au  H             1.00      3 S               6
                        (      40.869 eV)
   134     134       --         0.406 au  H             1.00      1 P:x             6
                        (      11.051 eV)
   135     135       --         0.406 au  H             1.00      1 P:y             6
                        (      11.051 eV)
   136     136       --         0.406 au  H             1.00      1 P:z             6
                        (      11.051 eV)
   137     137       --         2.569 au  H             1.00      1 D:z2            6
                        (      69.917 eV)
   138     138       --         2.569 au  H             1.00      1 D:x2-y2         6
                        (      69.917 eV)
   139     139       --         2.569 au  H             1.00      1 D:xy            6
                        (      69.917 eV)
   140     140       --         2.569 au  H             1.00      1 D:xz            6
                        (      69.917 eV)
   141     141       --         2.569 au  H             1.00      1 D:yz            6
                        (      69.917 eV)
   142     142      1.000      -0.240 au  H             1.00      1 S               7
                        (      -6.532 eV)
   143     143       --         0.088 au  H             1.00      2 S               7
                        (       2.394 eV)
   144     144       --         1.502 au  H             1.00      3 S               7
                        (      40.869 eV)
   145     145       --         0.406 au  H             1.00      1 P:x             7
                        (      11.051 eV)
   146     146       --         0.406 au  H             1.00      1 P:y             7
                        (      11.051 eV)
   147     147       --         0.406 au  H             1.00      1 P:z             7
                        (      11.051 eV)
   148     148       --         2.569 au  H             1.00      1 D:z2            7
                        (      69.917 eV)
   149     149       --         2.569 au  H             1.00      1 D:x2-y2         7
                        (      69.917 eV)
   150     150       --         2.569 au  H             1.00      1 D:xy            7
                        (      69.917 eV)
   151     151       --         2.569 au  H             1.00      1 D:xz            7
                        (      69.917 eV)
   152     152       --         2.569 au  H             1.00      1 D:yz            7
                        (      69.917 eV)
   153     153      1.000      -0.240 au  H             1.00      1 S               8
                        (      -6.532 eV)
   154     154       --         0.088 au  H             1.00      2 S               8
                        (       2.394 eV)
   155     155       --         1.502 au  H             1.00      3 S               8
                        (      40.869 eV)
   156     156       --         0.406 au  H             1.00      1 P:x             8
                        (      11.051 eV)
   157     157       --         0.406 au  H             1.00      1 P:y             8
                        (      11.051 eV)
   158     158       --         0.406 au  H             1.00      1 P:z             8
                        (      11.051 eV)
   159     159       --         2.569 au  H             1.00      1 D:z2            8
                        (      69.917 eV)
   160     160       --         2.569 au  H             1.00      1 D:x2-y2         8
                        (      69.917 eV)
   161     161       --         2.569 au  H             1.00      1 D:xy            8
                        (      69.917 eV)
   162     162       --         2.569 au  H             1.00      1 D:xz            8
                        (      69.917 eV)
   163     163       --         2.569 au  H             1.00      1 D:yz            8
                        (      69.917 eV)
   164     164      1.000      -0.240 au  H             1.00      1 S               9
                        (      -6.532 eV)
   165     165       --         0.088 au  H             1.00      2 S               9
                        (       2.394 eV)
   166     166       --         1.502 au  H             1.00      3 S               9
                        (      40.869 eV)
   167     167       --         0.406 au  H             1.00      1 P:x             9
                        (      11.051 eV)
   168     168       --         0.406 au  H             1.00      1 P:y             9
                        (      11.051 eV)
   169     169       --         0.406 au  H             1.00      1 P:z             9
                        (      11.051 eV)
   170     170       --         2.569 au  H             1.00      1 D:z2            9
                        (      69.917 eV)
   171     171       --         2.569 au  H             1.00      1 D:x2-y2         9
                        (      69.917 eV)
   172     172       --         2.569 au  H             1.00      1 D:xy            9
                        (      69.917 eV)
   173     173       --         2.569 au  H             1.00      1 D:xz            9
                        (      69.917 eV)
   174     174       --         2.569 au  H             1.00      1 D:yz            9
                        (      69.917 eV)
   175     175      1.000      -0.240 au  H             1.00      1 S              10
                        (      -6.532 eV)
   176     176       --         0.088 au  H             1.00      2 S              10
                        (       2.394 eV)
   177     177       --         1.502 au  H             1.00      3 S              10
                        (      40.869 eV)
   178     178       --         0.406 au  H             1.00      1 P:x            10
                        (      11.051 eV)
   179     179       --         0.406 au  H             1.00      1 P:y            10
                        (      11.051 eV)
   180     180       --         0.406 au  H             1.00      1 P:z            10
                        (      11.051 eV)
   181     181       --         2.569 au  H             1.00      1 D:z2           10
                        (      69.917 eV)
   182     182       --         2.569 au  H             1.00      1 D:x2-y2        10
                        (      69.917 eV)
   183     183       --         2.569 au  H             1.00      1 D:xy           10
                        (      69.917 eV)
   184     184       --         2.569 au  H             1.00      1 D:xz           10
                        (      69.917 eV)
   185     185       --         2.569 au  H             1.00      1 D:yz           10
                        (      69.917 eV)
   186     186      1.000      -0.240 au  H             1.00      1 S              11
                        (      -6.532 eV)
   187     187       --         0.088 au  H             1.00      2 S              11
                        (       2.394 eV)
   188     188       --         1.502 au  H             1.00      3 S              11
                        (      40.869 eV)
   189     189       --         0.406 au  H             1.00      1 P:x            11
                        (      11.051 eV)
   190     190       --         0.406 au  H             1.00      1 P:y            11
                        (      11.051 eV)
   191     191       --         0.406 au  H             1.00      1 P:z            11
                        (      11.051 eV)
   192     192       --         2.569 au  H             1.00      1 D:z2           11
                        (      69.917 eV)
   193     193       --         2.569 au  H             1.00      1 D:x2-y2        11
                        (      69.917 eV)
   194     194       --         2.569 au  H             1.00      1 D:xy           11
                        (      69.917 eV)
   195     195       --         2.569 au  H             1.00      1 D:xz           11
                        (      69.917 eV)
   196     196       --         2.569 au  H             1.00      1 D:yz           11
                        (      69.917 eV)
   197     197      1.000      -0.240 au  H             1.00      1 S              12
                        (      -6.532 eV)
   198     198       --         0.088 au  H             1.00      2 S              12
                        (       2.394 eV)
   199     199       --         1.502 au  H             1.00      3 S              12
                        (      40.869 eV)
   200     200       --         0.406 au  H             1.00      1 P:x            12
                        (      11.051 eV)
   201     201       --         0.406 au  H             1.00      1 P:y            12
                        (      11.051 eV)
   202     202       --         0.406 au  H             1.00      1 P:z            12
                        (      11.051 eV)
   203     203       --         2.569 au  H             1.00      1 D:z2           12
                        (      69.917 eV)
   204     204       --         2.569 au  H             1.00      1 D:x2-y2        12
                        (      69.917 eV)
   205     205       --         2.569 au  H             1.00      1 D:xy           12
                        (      69.917 eV)
   206     206       --         2.569 au  H             1.00      1 D:xz           12
                        (      69.917 eV)
   207     207       --         2.569 au  H             1.00      1 D:yz           12
                        (      69.917 eV)



 ================================
 (Slater-type)  F U N C T I O N S  ***  (Basis and Fit)  ***
 ================================
  

 Atom Type    1  (C)
 ==============

 Valence Basis Sets:  10
 -----------------------
   1 S    7.680000
   1 S    5.000000
   2 S    1.280000
   2 S    2.100000
   2 S    4.600000
   2 P    0.820000
   2 P    1.480000
   2 P    2.940000
   3 D    2.200000
   4 F    3.300000

 Atom Type    2  (N)
 ==============

 Valence Basis Sets:  10
 -----------------------
   1 S    8.740000
   1 S    5.900000
   2 S    5.150000
   2 S    2.500000
   2 S    1.500000
   2 P    3.680000
   2 P    1.880000
   2 P    1.000000
   3 D    2.200000
   4 F    3.300000

 Atom Type    3  (H)
 ==============

 Valence Basis Sets:   5
 -----------------------
   1 S    0.690000
   1 S    0.920000
   1 S    1.580000
   2 P    1.250000
   3 D    2.500000


 BAS: List of all Elementary Cartesian Basis Functions
 =====================================================

 The numbering in the list below (to the right of the function characteristics) is referred
 to in print-outs of MO eigenvectors and Mulliken populations in the BAS representation
 (as contrasted to the SFO representation).

 Notes:
 1. The functions are characterized by a polynomial prefactor (powers of x,y,z and r) and
    an exponential decay factor alpha.
 2. Since the basis sets are specific for an atom TYPE, the individual functions occur on
    all atoms of that type.
 3. The word 'Core' in the left margin signals that it is a Core Function (CF) : not a
    degree of freedom in the valence set, but only used to ensure orthogonalization of
    the other valence basis functions on the frozen Core Orbitals.


 (power of) X  Y  Z  R     Alpha  on Atom
            ==========     =====     ==========

 C                                    1    2    3    4
                                  ---------------------------------------------------------------------------
            0  0  0  0     7.680      1   31   61   91
            0  0  0  0     5.000      2   32   62   92
            0  0  0  1     1.280      3   33   63   93
            0  0  0  1     2.100      4   34   64   94
            0  0  0  1     4.600      5   35   65   95
            1  0  0  0     0.820      6   36   66   96
            0  1  0  0     0.820      7   37   67   97
            0  0  1  0     0.820      8   38   68   98
            1  0  0  0     1.480      9   39   69   99
            0  1  0  0     1.480     10   40   70  100
            0  0  1  0     1.480     11   41   71  101
            1  0  0  0     2.940     12   42   72  102
            0  1  0  0     2.940     13   43   73  103
            0  0  1  0     2.940     14   44   74  104
            2  0  0  0     2.200     15   45   75  105
            1  1  0  0     2.200     16   46   76  106
            1  0  1  0     2.200     17   47   77  107
            0  2  0  0     2.200     18   48   78  108
            0  1  1  0     2.200     19   49   79  109
            0  0  2  0     2.200     20   50   80  110
            3  0  0  0     3.300     21   51   81  111
            2  1  0  0     3.300     22   52   82  112
            2  0  1  0     3.300     23   53   83  113
            1  2  0  0     3.300     24   54   84  114
            1  1  1  0     3.300     25   55   85  115
            1  0  2  0     3.300     26   56   86  116
            0  3  0  0     3.300     27   57   87  117
            0  2  1  0     3.300     28   58   88  118
            0  1  2  0     3.300     29   59   89  119
            0  0  3  0     3.300     30   60   90  120

 N                                    5
                                  ---------------------------------------------------------------------------
            0  0  0  0     8.740    121
            0  0  0  0     5.900    122
            0  0  0  1     5.150    123
            0  0  0  1     2.500    124
            0  0  0  1     1.500    125
            1  0  0  0     3.680    126
            0  1  0  0     3.680    127
            0  0  1  0     3.680    128
            1  0  0  0     1.880    129
            0  1  0  0     1.880    130
            0  0  1  0     1.880    131
            1  0  0  0     1.000    132
            0  1  0  0     1.000    133
            0  0  1  0     1.000    134
            2  0  0  0     2.200    135
            1  1  0  0     2.200    136
            1  0  1  0     2.200    137
            0  2  0  0     2.200    138
            0  1  1  0     2.200    139
            0  0  2  0     2.200    140
            3  0  0  0     3.300    141
            2  1  0  0     3.300    142
            2  0  1  0     3.300    143
            1  2  0  0     3.300    144
            1  1  1  0     3.300    145
            1  0  2  0     3.300    146
            0  3  0  0     3.300    147
            0  2  1  0     3.300    148
            0  1  2  0     3.300    149
            0  0  3  0     3.300    150

 H                                    6    7    8    9   10   11   12
                                  ---------------------------------------------------------------------------
            0  0  0  0     0.690    151  163  175  187  199  211  223
            0  0  0  0     0.920    152  164  176  188  200  212  224
            0  0  0  0     1.580    153  165  177  189  201  213  225
            1  0  0  0     1.250    154  166  178  190  202  214  226
            0  1  0  0     1.250    155  167  179  191  203  215  227
            0  0  1  0     1.250    156  168  180  192  204  216  228
            2  0  0  0     2.500    157  169  181  193  205  217  229
            1  1  0  0     2.500    158  170  182  194  206  218  230
            1  0  1  0     2.500    159  171  183  195  207  219  231
            0  2  0  0     2.500    160  172  184  196  208  220  232
            0  1  1  0     2.500    161  173  185  197  209  221  233
            0  0  2  0     2.500    162  174  186  198  210  222  234

 Total number of charge fitting functions (nprimf)       770
 Total number of Cartesian basis functions (naos)        234
 Total number of Cartesian core functions  (ncos)          0

 ***************************************************************************************************



                                              ***********************
                                              *  T E C H N I C A L  *
                                              ***********************
  



 =============================================================
 P A R A L L E L I Z A T I O N  and  V E C T O R I Z A T I O N
 =============================================================
  
 Nr of parallel processes:                                1
 Maximum vector length in NumInt loops:                 128



 =====================
 S C F   U P D A T E S
 =====================
  
 Max. nr. of cycles:                               200
 Convergence criterion:                              0.0000010000
   secondary criterion:                              0.0010000000

 Mix parameter (when DIIS does not apply):           0.2000000000
 Mixed ADIIS+SDIIS will be used                  
    Max number of expansion vectors:                10
    Pure ADIIS when Max([F,P]) is above              0.1000000000
    Pure SDIIS when Max([F,P]) is below              0.0010000000
 Automatic ElectronSmearing (in case of problematic SCF convergence) disabled



 =================
 P R E C I S I O N  ***  (General: NumInt, NeglectFunctionTails, ...)  ***
 =================
  

 NumInt:           Target precision:                 4.0000000000
 -------           Initial precision:                4.0000000000
                   Min. precision (optimization):    4.0000000000

 Neglect Functions:          Basis functions:        0.1000000000E-05
 ------------------          Fit functions:          0.1000000000E-05



 ===========================
 L I N E A R   S C A L I N G
 ===========================
  

 Cut-off radii density fit:                        0.1000000000E-07
 Overlap cut-off criterion AO matrix elements:     0.1000000000E-05
 Cut-offs for Coulomb potential and fitted density:0.1000000000E-07
 Cut-off criterion for Coulomb multipole terms:    0.1000000000E-07
 Progressive Convergence parameter:                 0.000000000    
 ***************************************************************************************************



                                            ***************************
                                            *  C O M P U T A T I O N  *
                                            ***************************
  

 Number of elements of the density matrix on this node (used, total):     27495     27495



 ===========================================
 Numerical Integration : Fuzzy Cells (Becke)
 ===========================================
  
 Becke grid quality: NORMAL         
  
 Lebedev angular grid order:             min:  11 max:  23
 Nr. of radial points:                   min:  46 max:  52

 Total nr. of points:      76820
 Nr. of blocks:              601
 Block length:               128
 Nr. of dummy points:        108


 Test of Precision of the Numerical Integration Grid
 ===================================================

 Integral of the Total Core Density:                   0.00000000000000



 ========================
 Density Fitting (zlmFit)
 ========================
  
 ZlmFit Fit Quality: NORMAL         
  
 Max L-expansion:                        min:   6 max:   7
 Nr. of radial interpolation points:     min:  39 max:  48



 =====
 S C F  ***  ScaSCF  ***
 =====
  
 Initial density matrix is calculated as sum of fragments

 CYCLE    1
 SCF Error: norm([F,P])=      5.529556754784, max([F,P])=      1.423342924564
 orbitals (Q,E):
 ---------------
 A :10...29          ( 2.00    -0.6360)  ( 2.00    -0.5908)  ( 2.00    -0.5807)  ( 2.00    -0.5560)
                     ( 2.00    -0.5413)  ( 2.00    -0.5390)  ( 2.00    -0.5156)  ( 2.00    -0.4796)
                     ( 2.00    -0.4338)  ( 2.00    -0.3051)  ( 0.00    -0.1801)  ( 0.00    -0.1740)
                     ( 0.00    -0.0548)  ( 0.00    -0.0410)  ( 0.00    -0.0276)  ( 0.00    -0.0128)
                     ( 0.00    -0.0109)  ( 0.00    -0.0015)  ( 0.00    -0.0006)  ( 0.00     0.0309)

 CYCLE    2
   MIX coefficients:  0.8000  0.2000
 SCF Error: norm([F,P])=      1.001974663773, max([F,P])=      0.196383803083
 orbitals (Q,E):
 ---------------
 A :10...20          ( 2.00    -0.5715)  ( 2.00    -0.5242)  ( 2.00    -0.5092)  ( 2.00    -0.4938)
                     ( 2.00    -0.4799)  ( 2.00    -0.4730)  ( 2.00    -0.4494)  ( 2.00    -0.4158)
                     ( 2.00    -0.3708)  ( 2.00    -0.2504)  ( 0.00    -0.1227)

 CYCLE    3
  SDIIS (wt  0.000): -0.9578  1.9578
 A-DIIS (wt  1.000):  0.0000  1.0000
  DIIS coefficients:  0.0000  1.0000
 SCF Error: norm([F,P])=      0.542425248431, max([F,P])=      0.101582056677
 orbitals (Q,E):
 ---------------
 A :10...20          ( 2.00    -0.3961)  ( 2.00    -0.3244)  ( 2.00    -0.3150)  ( 2.00    -0.3117)
                     ( 2.00    -0.2960)  ( 2.00    -0.2877)  ( 2.00    -0.2709)  ( 2.00    -0.2365)
                     ( 2.00    -0.1923)  ( 2.00    -0.0839)  ( 0.00     0.0068)

 CYCLE    4
  SDIIS (wt  0.000):  0.0787  0.4809  0.4403
 A-DIIS (wt  1.000):  0.0000  0.6423  0.3577
  DIIS coefficients:  0.0000  0.6423  0.3577
 SCF Error: norm([F,P])=      0.763154079856, max([F,P])=      0.170573901312
 orbitals (Q,E):
 ---------------
 A :10...20          ( 2.00    -0.4533)  ( 2.00    -0.4035)  ( 2.00    -0.3918)  ( 2.00    -0.3833)
                     ( 2.00    -0.3633)  ( 2.00    -0.3555)  ( 2.00    -0.3320)  ( 2.00    -0.3077)
                     ( 2.00    -0.2654)  ( 2.00    -0.1470)  ( 0.00    -0.0328)

 CYCLE    5
  SDIIS (wt  0.847):  0.0017  0.2179  0.0844  0.6960
 A-DIIS (wt  0.153):  0.0000  0.0000  0.0000  1.0000
  DIIS coefficients:  0.0014  0.1847  0.0715  0.7424
 SCF Error: norm([F,P])=      0.095779866030, max([F,P])=      0.016106852927
 orbitals (Q,E):
 ---------------
 A :10...20          ( 2.00    -0.4692)  ( 2.00    -0.4146)  ( 2.00    -0.4034)  ( 2.00    -0.3919)
                     ( 2.00    -0.3756)  ( 2.00    -0.3687)  ( 2.00    -0.3451)  ( 2.00    -0.3144)
                     ( 2.00    -0.2725)  ( 2.00    -0.1576)  ( 0.00    -0.0392)

 CYCLE    6
  SDIIS (wt  0.847): -0.0178  0.1284  0.0155  0.5523  0.3215
 A-DIIS (wt  0.153):  0.0000  0.0000  0.0000  0.4010  0.5990
  DIIS coefficients: -0.0151  0.1088  0.0131  0.5292  0.3639
 SCF Error: norm([F,P])=      0.082068742600, max([F,P])=      0.021643861571
 orbitals (Q,E):
 ---------------
 A :10...20          ( 2.00    -0.4646)  ( 2.00    -0.4142)  ( 2.00    -0.4019)  ( 2.00    -0.3921)
                     ( 2.00    -0.3744)  ( 2.00    -0.3658)  ( 2.00    -0.3417)  ( 2.00    -0.3161)
                     ( 2.00    -0.2738)  ( 2.00    -0.1562)  ( 0.00    -0.0388)

 CYCLE    7
  SDIIS (wt  0.950):  0.0111  0.0161  0.0105  0.2010  0.2351  0.5262
 A-DIIS (wt  0.050):  0.0000  0.0000  0.0000  0.0000  0.1178  0.8822
  DIIS coefficients:  0.0105  0.0153  0.0100  0.1909  0.2292  0.5441
 SCF Error: norm([F,P])=      0.023573430257, max([F,P])=      0.005968897334
 orbitals (Q,E):
 ---------------
 A :10...20          ( 2.00    -0.4659)  ( 2.00    -0.4135)  ( 2.00    -0.4020)  ( 2.00    -0.3917)
                     ( 2.00    -0.3738)  ( 2.00    -0.3663)  ( 2.00    -0.3429)  ( 2.00    -0.3158)
                     ( 2.00    -0.2735)  ( 2.00    -0.1560)  ( 0.00    -0.0390)

 CYCLE    8
  SDIIS (wt  0.987): -0.0016  0.0141  0.0005  0.1043  0.1401  0.3868  0.3557
 A-DIIS (wt  0.013):  0.0000  0.0000  0.0000  0.0000  0.0000  0.2290  0.7710
  DIIS coefficients: -0.0016  0.0140  0.0005  0.1030  0.1383  0.3848  0.3609
 SCF Error: norm([F,P])=      0.010402481313, max([F,P])=      0.002253031367
 orbitals (Q,E):
 ---------------
 A :10...20          ( 2.00    -0.4652)  ( 2.00    -0.4136)  ( 2.00    -0.4018)  ( 2.00    -0.3917)
                     ( 2.00    -0.3741)  ( 2.00    -0.3662)  ( 2.00    -0.3424)  ( 2.00    -0.3155)
                     ( 2.00    -0.2732)  ( 2.00    -0.1558)  ( 0.00    -0.0387)

 CYCLE    9
  SDIIS (wt  1.000): -0.0006  0.0043 -0.0002  0.0337  0.0481  0.1536  0.2010  0.5601
  DIIS coefficients: -0.0006  0.0043 -0.0002  0.0337  0.0481  0.1536  0.2010  0.5601
 SCF Error: norm([F,P])=      0.001457162000, max([F,P])=      0.000298379976
 orbitals (Q,E):
 ---------------
 A :10...20          ( 2.00    -0.4653)  ( 2.00    -0.4136)  ( 2.00    -0.4019)  ( 2.00    -0.3917)
                     ( 2.00    -0.3741)  ( 2.00    -0.3662)  ( 2.00    -0.3424)  ( 2.00    -0.3156)
                     ( 2.00    -0.2733)  ( 2.00    -0.1559)  ( 0.00    -0.0388)

 CYCLE   10
  SDIIS (wt  1.000):  0.0001  0.0004 -0.0001  0.0063  0.0096  0.0345  0.0584  0.2377  0.6531
  DIIS coefficients:  0.0001  0.0004 -0.0001  0.0063  0.0096  0.0345  0.0584  0.2377  0.6531
 SCF Error: norm([F,P])=      0.000280175311, max([F,P])=      0.000067225916
 orbitals (Q,E):
 ---------------
 A :10...20          ( 2.00    -0.4653)  ( 2.00    -0.4136)  ( 2.00    -0.4019)  ( 2.00    -0.3917)
                     ( 2.00    -0.3741)  ( 2.00    -0.3662)  ( 2.00    -0.3424)  ( 2.00    -0.3156)
                     ( 2.00    -0.2733)  ( 2.00    -0.1559)  ( 0.00    -0.0388)

 CYCLE   11
  SDIIS (wt  1.000):  0.0001 -0.0001 -0.0000  0.0008  0.0015  0.0062  0.0140  0.0794  0.3162  0.5820
  DIIS coefficients:  0.0001 -0.0001 -0.0000  0.0008  0.0015  0.0062  0.0140  0.0794  0.3162  0.5820
 SCF Error: norm([F,P])=      0.000084303298, max([F,P])=      0.000019828271
 orbitals (Q,E):
 ---------------
 A :10...20          ( 2.00    -0.4653)  ( 2.00    -0.4136)  ( 2.00    -0.4019)  ( 2.00    -0.3917)
                     ( 2.00    -0.3741)  ( 2.00    -0.3662)  ( 2.00    -0.3424)  ( 2.00    -0.3156)
                     ( 2.00    -0.2733)  ( 2.00    -0.1559)  ( 0.00    -0.0388)

 CYCLE   12
  SDIIS (wt  1.000): -0.0000 -0.0000 -0.0001 -0.0000  0.0001  0.0018  0.0188  0.0925  0.2881  0.5989
  DIIS coefficients: -0.0000 -0.0000 -0.0001 -0.0000  0.0001  0.0018  0.0188  0.0925  0.2881  0.5989
 SCF Error: norm([F,P])=      0.000027320962, max([F,P])=      0.000006582195
 orbitals (Q,E):
 ---------------
 A :10...20          ( 2.00    -0.4653)  ( 2.00    -0.4136)  ( 2.00    -0.4019)  ( 2.00    -0.3917)
                     ( 2.00    -0.3741)  ( 2.00    -0.3662)  ( 2.00    -0.3424)  ( 2.00    -0.3156)
                     ( 2.00    -0.2733)  ( 2.00    -0.1559)  ( 0.00    -0.0388)

 CYCLE   13
  SDIIS (wt  1.000): -0.0000  0.0000  0.0000  0.0001  0.0003  0.0042  0.0195  0.0818  0.2263  0.6677
  DIIS coefficients: -0.0000  0.0000  0.0000  0.0001  0.0003  0.0042  0.0195  0.0818  0.2263  0.6677
 SCF Error: norm([F,P])=      0.000004318103, max([F,P])=      0.000000973723
 orbitals (Q,E):
 ---------------
 A :10...20          ( 2.00    -0.4653)  ( 2.00    -0.4136)  ( 2.00    -0.4019)  ( 2.00    -0.3917)
                     ( 2.00    -0.3741)  ( 2.00    -0.3662)  ( 2.00    -0.3424)  ( 2.00    -0.3156)
                     ( 2.00    -0.2733)  ( 2.00    -0.1559)  ( 0.00    -0.0388)

 SCF CONVERGED

 CYCLE   14
 ***************************************************************************************************



                                                *******************
                                                *  R E S U L T S  *
                                                *******************
  
 *** Using FIT density in Focky
  SDIIS (wt  1.000): -0.0000 -0.0000 -0.0000 -0.0001  0.0003  0.0019  0.0129  0.0434  0.2443  0.6973
  DIIS coefficients: -0.0000 -0.0000 -0.0000 -0.0001  0.0003  0.0019  0.0129  0.0434  0.2443  0.6973
 SCF Error: norm([F,P])=      0.000001036405, max([F,P])=      0.000000202415

 Scaled ZORA Orbital Energies, per Irrep and Spin:
 =================================================
                        Occup              E (au)              E (eV)       Diff (eV) with prev. cycle
                        -----      --------------------        ------       --------------------------
 A
              10        2.000     -0.46530555713589E+00       -12.662              -5.25E-07
              11        2.000     -0.41361597482047E+00       -11.255              -2.42E-06
              12        2.000     -0.40187615254006E+00       -10.936              -2.64E-06
              13        2.000     -0.39172037859670E+00       -10.659              -2.21E-06
              14        2.000     -0.37405861587071E+00       -10.179              -9.39E-07
              15        2.000     -0.36617552546511E+00        -9.964              -1.38E-06
              16        2.000     -0.34243335313961E+00        -9.318              -1.16E-06
              17        2.000     -0.31557475127465E+00        -8.587              -3.07E-06
              18        2.000     -0.27330489714794E+00        -7.437              -3.12E-06
              19        2.000     -0.15591036332771E+00        -4.243              -3.74E-06
              20        0.000     -0.38757985784223E-01        -1.055
              21        0.000     -0.33670610885107E-01        -0.916
              22        0.000      0.66209644897509E-02         0.180
              23        0.000      0.16253243152159E-01         0.442
              24        0.000      0.27712335039753E-01         0.754
              25        0.000      0.44383374614999E-01         1.208
              26        0.000      0.54505873318838E-01         1.483
              27        0.000      0.61052065485885E-01         1.661
              28        0.000      0.69126191719347E-01         1.881
              29        0.000      0.10144284514623E+00         2.760
  
 HOMO :       19 A                -0.15591036332771E+00
 LUMO :       20 A                -0.38757985784223E-01
  


 All Electron Calculation, thus no Orbital Energies of the Core Orbitals are calculated


 Fit test: (difference of exact and fit density, squared integrated, result summed over spins)
         Sum-of-Fragments:                             0.00000000032355
         Orthogonalized Fragments:                     0.00005602663832
         SCF:                                          0.00014273433433



 ==========================
 Electron Density at Nuclei
 ==========================
  
 The electron density is calculated at points on a small sphere around the center of a nucleus.
 The printed electron density is the average electron density on these points.
 The radius of the sphere is the printed approximate finite nuclear radius.
 Note: ZORA-4 density is used, which includes small component density

         Atom        Nuclear Radius (Angstrom)             Electron Density (a.u.)
         ----        -------------------------             -----------------------
     1)   C                 0.0000320678                              126.99172
     2)   C                 0.0000320678                              127.33315
     3)   N                 0.0000333706                              206.13356
     4)   C                 0.0000320678                              126.94330
     5)   C                 0.0000320678                              126.97620
     6)   H                 0.0000181514                                0.50037
     7)   H                 0.0000181514                                0.50421
     8)   H                 0.0000181514                                0.50234
     9)   H                 0.0000181514                                0.50121
    10)   H                 0.0000181514                                0.50545
    11)   H                 0.0000181514                                0.50530
    12)   H                 0.0000181514                                0.50415



 =======================================
 M U L L I K E N   P O P U L A T I O N S
 =======================================
  
 The survey below gives for each atom:
 a) the total charge (Z minus electrons)
 b) the net spin polarization (nr of electrons spin-A minus spin-B)
 c) for each spin the atomic electron valence density (integrated) per L-value.

 Atom              Charge    Spin density          S         P         D         F
 ----              ------    ------------       ------    ------    ------    ------
 1 C               0.6009                       2.8081    2.5455    0.0432    0.0023
 2 C              -0.0090                       3.3167    2.6065    0.0790    0.0068
 3 N              -0.1226                       3.3736    3.6589    0.0816    0.0084
 4 C               0.2292                       3.0413    2.6458    0.0777    0.0060
 5 C               0.5848                       2.8349    2.5349    0.0430    0.0024
 6 H              -0.1567                       1.0679    0.0828    0.0060    0.0000
 7 H              -0.2361                       1.1516    0.0789    0.0057    0.0000
 8 H              -0.1595                       1.0714    0.0822    0.0059    0.0000
 9 H              -0.1826                       1.1008    0.0762    0.0056    0.0000
 10 H             -0.1832                       1.0968    0.0806    0.0058    0.0000
 11 H             -0.1979                       1.1133    0.0787    0.0059    0.0000
 12 H             -0.1672                       1.0795    0.0819    0.0058    0.0000

 Populations of individual BAS functions
 ----------------------------------------
 1 C            0.5069  1.4832 -0.0708  0.9333 -0.0444 -0.1577 -0.0880 -0.1045  0.8003  0.7699
                0.7438  0.2002  0.1956  0.1860  0.0019  0.0035  0.0142  0.0060  0.0077  0.0097
               -0.0008 -0.0015 -0.0006 -0.0009  0.0003  0.0021  0.0009 -0.0005  0.0014  0.0019
 2 C            0.5030  1.4840  0.5172  0.8388 -0.0263  0.1628 -0.0125 -0.0196  0.6749  0.5605
                0.7006  0.2058  0.1441  0.1899  0.0045  0.0148  0.0169  0.0099  0.0117  0.0211
                0.0010  0.0017 -0.0001  0.0005  0.0010  0.0007 -0.0019  0.0003  0.0019  0.0017
 4 C            0.5049  1.4833  0.2469  0.8371 -0.0311  0.0068 -0.1465  0.0400  0.7331  0.7403
                0.7020  0.1924  0.1906  0.1870 -0.0001  0.0180  0.0099  0.0279  0.0201  0.0020
               -0.0029 -0.0023 -0.0002  0.0040  0.0010  0.0006  0.0053  0.0039 -0.0014 -0.0019
 5 C            0.5068  1.4830 -0.0339  0.9215 -0.0424 -0.1289 -0.0955 -0.1248  0.7862  0.7315
                0.7838  0.1981  0.1862  0.1983  0.0021  0.0087  0.0069  0.0135  0.0106  0.0011
               -0.0007 -0.0022  0.0004  0.0010  0.0002  0.0001  0.0046  0.0018 -0.0015 -0.0013
 3 N            0.5498  1.4307 -0.0321  0.9828  0.4425  0.1822  0.1910  0.1855  0.8413  0.8587
                0.8457  0.1677  0.1943  0.1925  0.0248  0.0118  0.0105  0.0114  0.0142  0.0090
                0.0022  0.0025  0.0028  0.0011  0.0014 -0.0006  0.0001  0.0017 -0.0003 -0.0024
 6 H            0.0707  0.6871  0.3101  0.0246  0.0361  0.0222 -0.0061  0.0020  0.0002  0.0135
                0.0019 -0.0055
 7 H            0.2235  0.6131  0.3149  0.0330  0.0212  0.0247  0.0082  0.0013  0.0014 -0.0059
                0.0006  0.0000
 8 H            0.0810  0.6788  0.3115  0.0329  0.0254  0.0239  0.0068  0.0012  0.0014 -0.0039
                0.0007 -0.0003
 9 H            0.1664  0.6140  0.3204  0.0298  0.0183  0.0281  0.0025  0.0009  0.0012 -0.0032
                0.0010  0.0032
 10 H           0.1219  0.6615  0.3134  0.0237  0.0226  0.0343 -0.0065  0.0005  0.0016 -0.0009
                0.0014  0.0097
 11 H           0.1390  0.6613  0.3129  0.0327  0.0191  0.0269  0.0073  0.0013  0.0014 -0.0043
                0.0007 -0.0006
 12 H           0.1068  0.6581  0.3146  0.0321  0.0231  0.0268  0.0074  0.0012  0.0014 -0.0036
                0.0006 -0.0012

 Gross Charges per Atom (Z minus electrons)
 ==========================================
             0.6009   -0.0090   -0.1226    0.2292    0.5848   -0.1567   -0.2361   -0.1595   -0.1826   -0.1832
            -0.1979   -0.1672
 Net Total:  0.00000000


 Atom-Atom Population Matrix (off-diagonal elements not doubled)
 ===============================================================

     1 :     3.9470
     2 :     0.4126    5.1427
     3 :    -0.0327    0.7072    6.0624
     4 :    -0.0098   -0.1233    0.5307    4.6857
     5 :     0.0003   -0.0063   -0.0277    0.4166    3.9893
     6 :     0.3685   -0.0269   -0.0071   -0.0028   -0.0007    0.9207
     7 :     0.3452   -0.0567   -0.0258    0.0157   -0.0001   -0.0676    1.0994
     8 :     0.3724   -0.0346   -0.0071   -0.0036    0.0012   -0.0283   -0.0727    0.9345
     9 :    -0.0024   -0.0089   -0.0515    0.3969   -0.0752    0.0012   -0.0007   -0.0012    0.9556
    10 :    -0.0002    0.0014   -0.0037   -0.0509    0.3724   -0.0000    0.0013   -0.0001   -0.0222    0.9912
    11 :    -0.0028   -0.0005   -0.0227   -0.0362    0.3651   -0.0004    0.0024   -0.0012    0.0101   -0.0301
             0.9857
    12 :     0.0011    0.0023    0.0006   -0.0482    0.3803    0.0001   -0.0045    0.0001   -0.0192   -0.0759
            -0.0714    1.0019



 =================================================
 H I R S H F E L D   C H A R G E   A N A L Y S I S
 =================================================
  
 For each fragment: the (numerical) integral of rho(scf) * rho(fragment)/rho(sum-of-fragments)
 (nuclear charges are included, electrons are counted negative)

 The fragments and their ordering are defined in the early G E O M E T R Y output section.
 If you use single-atom fragments, this usually implies that all atoms of the same
 chemical type are grouped together. This may not be the order in which you listed them
 in the input file!

  Fragment                       Charge
 ------------------------------------------
    1  C                        -0.0986
    2  C                        -0.0389
    3  C                        -0.0125
    4  C                        -0.1002
    5  N                        -0.0442
    6  H                         0.0521
    7  H                         0.0319
    8  H                         0.0504
    9  H                         0.0405
   10  H                         0.0410
   11  H                         0.0411
   12  H                         0.0374

 Sum of these charges =         -0.00001590
 (accuracy NumInt/Tails)



 =============================
 V O R O N O I   C H A R G E S
 =============================
  
 For each atom: the (numerical) integral of the total electronic charge density in its Voronoi cell,
 i.e. the region of space that is closer to that atom than to any other atom.
 (cf. Wigner-Seitz cells in crystals)

 Within the Voronoi cell the subintegrals over the atomic sphere and the remaining part are evaluated
 separately to give the numbers of electrons (negative charge) in these regions.
 The net total charge in the cell (including the nuclear charge) is also given.

 Values are provided for
    a) the Initial (sum-of-fragments) density
    b) the Orthogonalized-Fragments density
    c) the SCF density
    d) the Voronoi Deformation Density (VDD): the difference SCF-Initial for the complete atomic cell

  Atom                Initial                    OrthFrag                   SCF
             Sphere RestCell NetTotal   Sphere RestCell NetTotal   Sphere RestCell NetTotal      VDD
 -------     ------------------------   ------------------------   ------------------------    -----
    1 C      -2.273   -2.260    1.468   -2.456   -2.498    1.046   -2.306   -2.309    1.385   -0.083
    2 C      -2.271   -3.629    0.100   -2.402   -3.482    0.116   -2.300   -3.690    0.010   -0.090
    3 N      -2.599   -4.490   -0.089   -2.901   -4.193   -0.094   -2.638   -4.483   -0.121   -0.032
    4 C      -2.274   -3.107    0.619   -2.442   -3.080    0.478   -2.307   -3.117    0.575   -0.044
    5 C      -2.272   -2.262    1.466   -2.454   -2.491    1.055   -2.306   -2.307    1.387   -0.079
    6 H      -0.075   -1.418   -0.493   -0.098   -1.261   -0.359   -0.107   -1.325   -0.433    0.060
    7 H      -0.075   -1.434   -0.509   -0.097   -1.268   -0.366   -0.108   -1.362   -0.471    0.038
    8 H      -0.076   -1.438   -0.513   -0.098   -1.277   -0.376   -0.109   -1.348   -0.457    0.057
    9 H      -0.075   -1.454   -0.529   -0.096   -1.305   -0.401   -0.108   -1.379   -0.487    0.042
   10 H      -0.076   -1.416   -0.492   -0.098   -1.261   -0.359   -0.110   -1.343   -0.453    0.039
   11 H      -0.075   -1.445   -0.520   -0.098   -1.272   -0.370   -0.109   -1.358   -0.467    0.053
   12 H      -0.075   -1.432   -0.507   -0.098   -1.271   -0.369   -0.109   -1.361   -0.470    0.038
 ---------------------------------------------------------------------------------------------------
 Total NetCharge:              -0.000                     -0.000                     -0.000    0.000
 (accuracy NumInt/Tails)

 Remark: the 'NetTotal' Voronoi charges often do not match the Mulliken and/or Hirshfeld charges very
 well. This is caused by the fact that chemically different atoms are not treated in accordance with
 their relative sizes. (Voronoi cells are defined by boundary planes halfway between the atoms.)
 However, the CHANGES in charge, comparing 'Initial' to 'SCF' for instance, do give a fair indication
 of the flow of charge caused by the relaxation from sum-of-fragments to self-consistency.

 Warning: the absolute accuracy of the VDD charges obtained using the Fuzzy Cells (Becke) integration
 scheme is much poorer than the one obtained with an 'equivalent' Voronoi integration grid. 



 =================================================================
 M U L T I P O L E   D E R I V E D   C H A R G E   A N A L Y S I S
 =================================================================

 This charge analysis uses the atomic multipoles (obtained from the fitted density) up to some level X,
 and reconstructs these multipoles exactly (up to level X) by distributing charges over all atoms.
 This is achieved by using Lagrange multipliers and a weight function to keep the multipoles local.

 Dummy atoms can be included (by setting INCDUM in MDC-block to 1) to obtain a fractional charge.
 This is generally useful and necessary only for small symmetrical molecules, when there are not
 enough degrees of freedom to reconstruct the multipoles.

 Since the atomic multipoles are reconstructed up to level X,
 the molecular multipoles are represented also up to level X.
 The recommended level is to reconstruct up to quadrupole : -> MDC-q charges.

 See: M. Swart, P.Th. van Duijnen, J.G. Snijders, J.Comput.Chem., (2001), p. 79-88.

 ------------------------------------------------------------- 
 Atomic electronic multipole moments from SCF equations (a.u.)
 ------------------------------------------------------------- 

   atom        charge        dip-x     dip-y     dip-z      quad-xx   quad-xy   quad-xz   quad-yy   quad-yz   quad-zz
 --------------------------------------------------------------------------------------------------------------------
    1 C      0.239010     0.016607 -0.032958  0.045976    -0.017362 -0.011359  0.027954  0.013794 -0.017410  0.003568
    2 C     -0.044617    -0.483162  0.043484  0.292490    -0.514451 -0.116157  0.501249  0.283378 -0.300373  0.231073
    3 N     -0.101971     0.048924  0.055445 -0.047463    -0.051592 -0.343375  0.403126  0.089432 -0.329375 -0.037840
    4 C      0.112748    -0.005939 -0.037306  0.025213    -0.279048 -0.051681  0.441463  0.448691  0.002865 -0.169643
    5 C      0.233663     0.001680  0.055844  0.003058    -0.014494 -0.011541  0.039963  0.027269  0.003027 -0.012775
    6 H     -0.050853     0.001482 -0.009706  0.003962    -0.101125 -0.030918  0.006993  0.199078  0.028935 -0.097953
    7 H     -0.074854     0.011220  0.001562 -0.013599     0.092924 -0.027232 -0.070197 -0.080269  0.006003 -0.012655
    8 H     -0.053015     0.005574 -0.001673  0.008355     0.084177  0.049146  0.095979 -0.061723  0.033032 -0.022453
    9 H     -0.059619    -0.005257 -0.006912 -0.014651    -0.020603  0.034078  0.131356  0.018903  0.051152  0.001700
   10 H     -0.066691    -0.002209 -0.001298  0.000452    -0.105553  0.006622 -0.001944 -0.026783 -0.076483  0.132336
   11 H     -0.063935    -0.000837 -0.002788 -0.001084     0.079685  0.038848  0.083558 -0.052659  0.026544 -0.027025
   12 H     -0.069865     0.002447 -0.000235 -0.003082     0.098036 -0.048838 -0.077025 -0.071831  0.030910 -0.026205

 --------------------------------------- 
 Multipole derived atomic charges (a.u.)
 --------------------------------------- 

 The MDC-m charges are just the Monopole terms in the multipole expansion, while for the MDC-d charges
 also the Dipoles are reconstructed. The usually preferred charges are the MDC-q charges.
 These reconstruct the Monopoles, Dipoles and Quadrupoles (both atomic AND molecular).

        Atom    Level:     MDC-m        MDC-d        MDC-q
 ---------------------------------------------------------
     1     C            0.239010     0.298946    -0.545551
     2     C           -0.044617    -0.412627    -0.608934
     3     N           -0.101971     0.064445     1.110628
     4     C            0.112748     0.110099    -0.845780
     5     C            0.233663     0.196857    -0.133052
     6     H           -0.050853    -0.017192     0.183378
     7     H           -0.074854    -0.016981     0.137637
     8     H           -0.053015    -0.026585     0.258147
     9     H           -0.059619    -0.047627     0.171265
    10     H           -0.066691    -0.051547     0.152055
    11     H           -0.063935    -0.045669     0.027055
    12     H           -0.069865    -0.052119     0.093151

 ------------------------------------------------ 
 Average absolute deviations in atomic multipoles
 ------------------------------------------------ 

 Stated here are the average differences between the atomic multipoles
 and the reconstructed atomic multipoles (from the distributed charges).
 If these values are not zero, this means there are not enough degrees of freedom,
 to be able to reconstruct the atomic multipoles. (This usually happens only
 for small and/or highly symmetric molecules). If this is the case, one could add
 dummy atoms as extra point charges (and setting INCDUM in MDC-block to 1).

 Level:                                 MDC-d        MDC-q
 ---------------------------------------------------------
 Charge   (a.u.)                       0.0000       0.0000
 Dipole   (Debye)                      0.0000       0.0000
 Quad.    (a.u.)                       0.1253       0.0000

 --------------------------------------- 
 Represented molecular multipole moments
 --------------------------------------- 

 Given here are the Molecular multipole moments from the atomic charges, and from the Fit Density.
 Note that the atomic charges represent the latter, NOT the ones from the Exact density.

            Q (a.u.)             Dipole moment (Debye)                                          Quadrupole moment (a.u.)
                                 x         y         z              xx        xy        xz        yy        yz        zz
------------------------------------------------------------------------------------------------------------------------
MDC-m        -0.0000        0.0857    0.1929   -0.0132         -0.2296   -0.9747    0.1630    0.0686   -0.2763    0.1609
MDC-d        -0.0000       -0.9551    0.3542    0.7484          1.6219   -0.6764   -2.0294   -2.1813   -3.1053    0.5594
MDC-q         0.0000       -0.9551    0.3542    0.7484          1.0358   -0.0514   -1.4321   -0.9581   -1.9759   -0.0776
 
Fit.Dens.    -0.0000       -0.9551    0.3542    0.7484          1.0358   -0.3076   -0.6409   -0.9581   -2.2465   -0.0776



 =============
 Dipole Moment  ***  (Debye)  ***
 =============
  
 Vector   :        -0.95710073      0.35978374      0.75432928
 Magnitude:         1.27062929

 This molecular dipole moment is calculated with analytic integration



 =========================================
 Quadrupole Moment (Buckingham convention)  ***  (a.u.)  ***
 =========================================
  
      quad-xx        quad-xy        quad-xz        quad-yy        quad-yz        quad-zz
      1.02543361    -0.59425599     0.14653962    -0.95172097    -2.54383673    -0.07371264

 This molecular quadrupole moment is calculated with analytic integration



 ===========================
 B O N D I N G   E N E R G Y  ***  (decomposition)  ***
 ===========================
  
*** IMPORTANT NOTE ***

The bond energy is computed as an energy difference between molecule and
fragments. In particular when the fragments are single atoms, they are usually
computed as SPHERICALLY SYMMETRIC and SPIN-RESTRICTED. Obviously, this usually
does NOT represent the true atomic groundstate.

To obtain the 'real' bond energy, (atomic) correction terms must be applied
for the true (multiplet) fragment ground state. See ref: E.J.Baerends,
V.Branchadell, M.Sodupe, Chem.Phys.Lett.265 (1997) 481

General theoretical background on the bond energy decomposition scheme used
here (Morokuma-Ziegler) can be found in the review paper:
F.M. Bickelhaupt and E.J. Baerends,
"Kohn-Sham Density Functional Theory: Predicting and Understanding Chemistry"
In: Rev. Comput. Chem.; Lipkowitz, K. B. and Boyd, D. B., Eds.;
Wiley-VCH: New York, 2000, Vol. 15, 1-86.

Symbols used in the Bickelhaupt-Baerends (BB) paper are given below to make
[...]
                                  -19.61%     2 P:x             4.589  0.00     4 C
                                   18.92%     1 S              -6.532  1.00     8 H
                                   15.68%     2 S               2.394  0.00    11 H
                                   14.47%     2 S               2.394  0.00     8 H
                                   10.53%     1 S              -6.532  1.00    12 H
                                  -10.40%     2 P:x             4.589  0.00     1 C
                                    5.36%     1 P:x            -5.239  0.67     4 C
                                    4.86%     1 P:y            -5.239  0.67     1 C
                                    4.26%     2 S               2.394  0.00    12 H
                                   -4.12%     2 P:y             4.589  0.00     1 C
                                    3.60%     1 S              -6.532  1.00     7 H
                                    3.05%     2 S               2.394  0.00     7 H
                                    2.86%     1 S              -6.532  1.00     6 H
                                    2.36%     2 P:z             4.589  0.00     1 C
                                    2.36%     3 S              40.869  0.00     8 H
                                    2.32%     1 S              -6.532  1.00    10 H
                                   -2.13%     3 S              10.158  0.00     2 C
                                    1.93%     3 S              40.869  0.00    11 H
                                   -1.71%     2 P:z             4.589  0.00     4 C
                                    1.57%     1 P:x            -5.239  0.67     1 C
                                    1.48%     1 P:z            -5.239  0.67     2 C
                                    1.41%     2 S               2.394  0.00    10 H
                                    1.40%     2 S             -13.620  2.00     2 C
                                    1.19%     2 P:z             4.589  0.00     2 C
                                    1.15%     1 P:y            -5.239  0.67     2 C
                                    1.00%     2 S               2.394  0.00     6 H
       2.760  0.00    29 A         26.72%     2 P:z             4.589  0.00     1 C
                                   18.07%     1 P:z            -5.239  0.67     1 C
                                  -13.40%     3 S              10.158  0.00     2 C
                                   12.88%     1 S              -6.532  1.00    11 H
                                   11.71%     2 P:y             4.589  0.00     1 C
                                   11.20%     2 P:y             4.589  0.00     4 C
                                    8.07%     1 S              -6.532  1.00     9 H
                                   -7.90%     2 S               2.394  0.00    10 H
                                    7.62%     1 P:y            -5.239  0.67     3 C
                                    7.47%     1 S              -6.532  1.00    10 H
                                    5.76%     1 P:z            -5.239  0.67     4 C
                                   -5.74%     2 P:z             4.589  0.00     3 C
                                   -5.29%     2 P:x             4.589  0.00     3 C
                                    5.24%     1 P:x            -5.239  0.67     4 C
                                    5.16%     1 P:z            -5.239  0.67     2 C
                                    4.91%     2 P:y             4.589  0.00     3 C
                                    4.71%     1 P:y            -5.239  0.67     1 C
                                    3.36%     1 P:y            -5.239  0.67     4 C
                                   -3.29%     2 S               2.394  0.00    11 H
                                    3.14%     2 S             -13.620  2.00     2 C
                                   -2.93%     3 S              14.073  0.00     5 N
                                    2.37%     2 S               2.394  0.00     9 H
                                   -2.30%     1 P:z            -5.239  0.67     3 C
                                    2.19%     2 P:z             4.589  0.00     2 C
                                    1.87%     3 S              40.869  0.00     9 H
                                    1.69%     1 S              -6.532  1.00     8 H
                                   -1.55%     2 S               2.394  0.00    12 H
                                    1.42%     1 P:y            -5.239  0.67     2 C
                                    1.15%     1 P:x            -5.239  0.67     2 C
                                   -1.12%     2 S               2.394  0.00     8 H
       3.620  0.00    30 A         40.07%     2 P:y             4.589  0.00     4 C
                                   28.42%     1 P:y            -5.239  0.67     4 C
                                  -10.82%     3 S              10.158  0.00     3 C
                                    8.12%     2 P:y             7.649  0.00     5 N
                                    8.01%     1 P:z            -5.239  0.67     1 C
                                    7.32%     2 P:z             4.589  0.00     1 C
                                    5.54%     2 S             -13.620  2.00     3 C
                                    5.08%     1 S              -6.532  1.00    10 H
                                    4.37%     1 P:y            -5.239  0.67     1 C
                                    4.29%     2 P:y             4.589  0.00     1 C
                                   -4.13%     2 S               2.394  0.00     6 H
                                   -3.80%     2 S               2.394  0.00    10 H
                                   -3.76%     2 P:z             4.589  0.00     3 C
                                    3.36%     1 P:y            -7.062  1.00     5 N
                                    3.24%     1 S              -6.532  1.00     8 H
                                   -2.80%     3 S              10.158  0.00     2 C
                                    2.49%     1 S              -6.532  1.00     6 H
                                    2.26%     1 S              -6.532  1.00     7 H
                                   -2.15%     2 P:x             7.649  0.00     5 N
                                    2.09%     2 S             -13.620  2.00     2 C
                                   -1.99%     2 S               2.394  0.00     8 H
                                    1.83%     2 S               2.394  0.00     9 H
                                    1.83%     2 P:y             4.589  0.00     3 C
                                    1.65%     2 P:x             4.589  0.00     1 C
                                    1.60%     2 P:z             4.589  0.00     4 C
                                    1.30%     1 S              -6.532  1.00    11 H
                                   -1.25%     2 P:z             7.649  0.00     5 N
                                   -1.15%     3 S              40.869  0.00    10 H
                                    1.12%     1 S              -6.532  1.00    12 H
                                   -1.10%     2 P:z             4.589  0.00     2 C
       3.716  0.00    31 A         14.54%     2 P:x             4.589  0.00     4 C
                                   14.10%     1 P:z            -5.239  0.67     1 C
                                   12.70%     2 P:y             4.589  0.00     3 C
                                   10.77%     1 S              -6.532  1.00     7 H
                                   10.05%     2 S             -13.620  2.00     2 C
                                   -9.38%     3 S              14.073  0.00     5 N
                                    9.31%     1 P:y            -5.239  0.67     3 C
                                   -6.78%     2 S               2.394  0.00     7 H
                                    6.77%     2 P:x             4.589  0.00     1 C
                                    6.33%     1 P:x            -5.239  0.67     4 C
                                    5.30%     2 S             -18.450  2.00     5 N
                                    5.22%     2 P:z             4.589  0.00     1 C
                                    5.12%     1 P:x            -5.239  0.67     1 C
                                   -4.55%     3 S              10.158  0.00     2 C
                                    4.54%     2 P:z             4.589  0.00     4 C
                                    3.98%     2 P:x             4.589  0.00     2 C
                                    2.80%     2 S               2.394  0.00    11 H
                                    2.74%     1 S              -6.532  1.00    11 H
                                    2.63%     2 S             -13.620  2.00     3 C
                                    2.04%     1 P:y            11.051  0.00     9 H
                                    1.83%     1 P:z            -5.239  0.67     4 C
                                    1.82%     1 P:x            -5.239  0.67     2 C
                                   -1.46%     3 S              40.869  0.00    11 H
                                    1.42%     1 P:z            -5.239  0.67     3 C
                                   -1.38%     3 S              40.869  0.00     7 H
                                    1.09%     1 P:y            -5.239  0.67     1 C
       3.930  0.00    32 A         24.03%     2 P:y             4.589  0.00     1 C
                                   21.35%     2 P:z             4.589  0.00     4 C
                                   14.47%     1 P:z            -5.239  0.67     4 C
                                   13.85%     1 P:y            -5.239  0.67     1 C
                                   11.86%     2 P:y             4.589  0.00     4 C
                                    7.46%     1 S              -6.532  1.00    12 H
                                   -6.79%     2 S               2.394  0.00    12 H
                                    6.19%     1 S              -6.532  1.00     6 H
                                    5.85%     1 P:y            -5.239  0.67     4 C
                                    5.56%     2 P:x             4.589  0.00     4 C
                                   -4.37%     2 S               2.394  0.00     6 H
                                    3.44%     2 P:x             4.589  0.00     1 C
                                    2.88%     1 S              -6.532  1.00    11 H
                                   -2.57%     2 P:y             4.589  0.00     3 C
                                    2.47%     1 S              -6.532  1.00     9 H
                                   -2.35%     2 P:x             4.589  0.00     3 C
                                   -2.31%     2 S               2.394  0.00     9 H
                                    2.16%     1 S              -6.532  1.00     8 H
                                   -2.16%     3 S              40.869  0.00    12 H
                                   -2.08%     3 S              40.869  0.00     6 H
                                    2.07%     1 P:x            -5.239  0.67     4 C
                                   -1.70%     2 S               2.394  0.00     8 H
                                    1.52%     1 P:y            -5.239  0.67     3 C
                                   -1.47%     3 S              40.869  0.00     8 H
                                   -1.46%     2 P:z             4.589  0.00     3 C
                                    1.37%     1 P:x            -5.239  0.67     1 C
                                   -1.37%     2 P:y             4.589  0.00     2 C
                                    1.35%     2 P:z             4.589  0.00     2 C
                                    1.25%     1 P:z            -5.239  0.67     1 C
                                   -1.20%     3 S              10.158  0.00     3 C
                                   -1.12%     1 P:y            11.051  0.00    10 H



 =======================================================================
 Electrostatic potential at the Nuclei due to electrons and other nuclei
 =======================================================================
  
         Atom                  Potential
         ----                  ---------
     1)   C                  14.77566901
     2)   C                  14.77399589
     3)   N                  18.37940484
     4)   C                  14.75898367
     5)   C                  14.78400606
     6)   H                   1.09815887
     7)   H                   1.11211097
     8)   H                   1.10032484
     9)   H                   1.09900654
    10)   H                   1.11322012
    11)   H                   1.11208128
    12)   H                   1.11376090
 Mulliken charges used for AMS results%charges...


    =====================
     CALCULATION RESULTS
    =====================

Energy (hartree)            -2.40129500


--------------
Atomic charges
--------------
  Index   Atom    Charge
      1      C    0.6009
      2      C   -0.0090
      3      N   -0.1226
      4      C    0.2292
      5      C    0.5848
      6      H   -0.1567
      7      H   -0.2361
      8      H   -0.1595
      9      H   -0.1826
     10      H   -0.1832
     11      H   -0.1979
     12      H   -0.1672


Dipole moment vector    (Debye):    -0.95710073    0.35978374    0.75432928
              magnitude (Debye):     1.27062929


-----------------------
Molecular orbitals info
-----------------------
n orbitals:              207
n spin:                    1

Note: only printing virtual orbitals with
      energy smaller than HOMO + 100. eV

HOMO (eV):              -4.2425
LUMO (eV):              -1.0547
HOMO-LUMO gap (eV):      3.1879

   Index   Energy (eV)    Occupation
     136       95.2563         0.000       
     135       94.5300         0.000       
     134       94.2995         0.000       
     133       93.4757         0.000       
     132       92.0268         0.000       
     131       91.4201         0.000       
     130       90.6715         0.000       
     129       89.8644         0.000       
     128       87.4706         0.000       
     127       85.1928         0.000       
     126       84.3264         0.000       
     125       82.6063         0.000       
     124       81.9520         0.000       
     123       80.8955         0.000       
     122       78.8960         0.000       
     121       78.4937         0.000       
     120       78.3119         0.000       
     119       78.0571         0.000       
     118       77.8257         0.000       
     117       77.4748         0.000       
     116       77.1497         0.000       
     115       76.0660         0.000       
     114       75.9629         0.000       
     113       75.7247         0.000       
     112       74.3657         0.000       
     111       72.4975         0.000       
     110       70.9269         0.000       
     109       67.6315         0.000       
     108       66.0733         0.000       
     107       65.1134         0.000       
     106       63.0487         0.000       
     105       60.7632         0.000       
     104       59.6517         0.000       
     103       58.2540         0.000       
     102       58.0322         0.000       
     101       57.1787         0.000       
     100       56.5898         0.000       
      99       56.1571         0.000       
      98       55.4242         0.000       
      97       53.6231         0.000       
      96       52.5844         0.000       
      95       51.6004         0.000       
      94       51.4848         0.000       
      93       50.5412         0.000       
      92       49.8744         0.000       
      91       48.5873         0.000       
      90       48.1342         0.000       
      89       47.2904         0.000       
      88       46.2147         0.000       
      87       45.1343         0.000       
      86       42.9566         0.000       
      85       42.6872         0.000       
      84       40.4132         0.000       
      83       39.1869         0.000       
      82       38.2881         0.000       
      81       37.5264         0.000       
      80       35.6859         0.000       
      79       34.9517         0.000       
      78       34.5226         0.000       
      77       34.3997         0.000       
      76       32.7565         0.000       
      75       32.4638         0.000       
      74       31.3746         0.000       
      73       30.1777         0.000       
      72       29.9986         0.000       
      71       29.6642         0.000       
      70       29.0153         0.000       
      69       28.5181         0.000       
      68       28.2050         0.000       
      67       27.3542         0.000       
      66       27.0454         0.000       
      65       26.9094         0.000       
      64       26.2324         0.000       
      63       25.2343         0.000       
      62       23.5239         0.000       
      61       22.6902         0.000       
      60       22.3241         0.000       
      59       22.0848         0.000       
      58       21.8045         0.000       
      57       19.3099         0.000       
      56       18.0389         0.000       
      55       17.3456         0.000       
      54       15.8873         0.000       
      53       15.2585         0.000       
      52       13.6774         0.000       
      51       13.5169         0.000       
      50       11.8672         0.000       
      49       11.5825         0.000       
      48       11.2318         0.000       
      47       10.4693         0.000       
      46       10.2635         0.000       
      45        9.9377         0.000       
      44        9.6536         0.000       
      43        9.4213         0.000       
      42        9.2879         0.000       
      41        8.8514         0.000       
      40        7.6794         0.000       
      39        7.2183         0.000       
      38        6.7379         0.000       
      37        6.2749         0.000       
      36        5.8454         0.000       
      35        5.3458         0.000       
      34        5.1400         0.000       
      33        4.5003         0.000       
      32        3.9295         0.000       
      31        3.7156         0.000       
      30        3.6202         0.000       
      29        2.7604         0.000       
      28        1.8810         0.000       
      27        1.6613         0.000       
      26        1.4832         0.000       
      25        1.2077         0.000       
      24        0.7541         0.000       
      23        0.4423         0.000       
      22        0.1802         0.000       
      21       -0.9162         0.000       
      20       -1.0547         0.000 < LUMO
      19       -4.2425         2.000 < HOMO
      18       -7.4370         2.000       
      17       -8.5872         2.000       
      16       -9.3181         2.000       
      15       -9.9641         2.000       
      14      -10.1787         2.000       
      13      -10.6593         2.000       
      12      -10.9356         2.000       
      11      -11.2551         2.000       
      10      -12.6616         2.000       
       9      -16.4848         2.000       
       8      -17.8109         2.000       
       7      -19.4067         2.000       
       6      -23.7811         2.000       
       5     -270.0340         2.000       
       4     -270.2698         2.000       
       3     -270.6240         2.000       
       2     -270.7097         2.000       
       1     -382.7074         2.000       

AMS application finished. Exiting.
NORMAL TERMINATION
     Total cpu time:      20.88
  Total system time:       0.22
 Total elapsed time:      21.25
NORMAL TERMINATION
