
 *******************************************************************************
 *                                                                             *
 *  --------------------------------                                           *
 *   Amsterdam Modeling Suite (AMS)              2026.103                      *
 *  --------------------------------                                           *
 *                                               r260501 2026-05-01 873454b5   *
 *                                                                             *
 *                                                                             *
 *                              =================                              *
 *                              |               |                              *
 *                              |     A M S     |                              *
 *                              |               |                              *
 *                              =================                              *
 *                                                                             *
 *                                                                             *
 *   Online information and documentation:  https://www.scm.com/support/       *
 *   E-mail:  support@scm.com   info@scm.com                                   *
 *                                                                             *
 *   Scientific publications using AMS results must be properly referenced     *
 *   See the User Manuals (or the web site) for recommended citations          *
 *   The terms and conditions of the End User License Agreement apply to       *
 *   the use of AMS, https://www.scm.com/license-terms/                        *
 *                                                                             *
 **********************  x86_64_linux_intel / intelmpi  ************************
 
 Licensed to: Jong-June Jeon / University of Seoul 2026-05-13 16:10:32
 SCM User ID: u30731
  
 AMS 2026.103  RunTime: May31-2026 20:28:27  ShM Nodes: 1  Procs: 1

 AMS jobname: c2_fragB_ts
 AMS jobid  : 2037221326

 Start   directory: /gpfs/home1/yeseo1ee/projects/eda-asm-prediction/adf_outputs/batch_001/dipolar_002175/
 Results directory: /gpfs/home1/yeseo1ee/projects/eda-asm-prediction/adf_outputs/batch_001/dipolar_002175/c2_fragB_ts.results/
 Scratch directory: /tmp/amstmp_c2_fragB_ts_kid0.2037221326/

 RNG seed: -1358612817 -802603611 357589102 1079214807 2116195235 1576745310 -188251149 -2131725596



                      ************************************************************************
                      *  ADF 2026.103  RunTime: May31-2026 20:28:27  ShM Nodes: 1  Procs: 1  *
                      ************************************************************************
  

       ****************************
       * SINGLE POINT CALCULATION *
       ****************************

--------
Geometry
--------
Formula: C7H5F3O
Atoms
  Index Symbol   x (angstrom)   y (angstrom)   z (angstrom)
      1      C     1.30165000    -1.62650000    -0.57625000
      2      C     2.69263000    -1.88215000     0.09759000
      3      C     3.19571000    -0.61283000     0.77209000
      4      C     2.35795000    -0.40775000     1.79373000
      5      C     1.36607000    -1.56615000     1.74361000
      6      O     2.23979000    -2.63104000     1.25040000
      7      C     0.42193000    -1.43869000     0.51040000
      8      C    -0.80899000    -2.24671000     0.59928000
      9      F    -1.78870000    -1.68464000     1.35626000
     10      F    -1.34902000    -2.52106000    -0.61266000
     11      F    -0.60325000    -3.46793000     1.18132000
     12      H     1.02517000    -2.28024000    -1.40461000
     13      H     3.39976000    -2.45506000    -0.51111000
     14      H     4.03761000    -0.00862000     0.44810000
     15      H     2.34839000     0.40860000     2.51043000
     16      H     0.88147000    -1.84881000     2.68376000

Total System Charge              0.00000


----------------
ADF Engine Input
----------------
 
   Basis
     Type TZ2P
     Core None
   End
   XC
     GGA BLYP
     Dispersion GRIMME3 BJDAMP
   End
   Symmetry NOSYM
   NumericalQuality Normal
   Unrestricted No
   SCF
     Iterations 200
     Converge 1.0e-6
   End
   Save TAPE21
 

 Title: *** (NO TITLE) ***

 *** adf ***



 ===========================
 A T T A C H E D   F I L E S
 ===========================
  



 ===============================
 M O D E L   P A R A M E T E R S
 ===============================
  
 DENSITY FUNCTIONAL POTENTIAL (scf)
    LDA:                               Exchange only                           == Not Default ==
    Gradient Corrections:              Becke88 LYP                             == Not Default ==

 SPIN  (restricted / unrestr.)
    Molecule:                          Restricted                               
    Fragments:                         Restricted                               

 OTHER ASPECTS
    Relativistic Corrections:          scalar (ZORA,MAPA)                       

    Nuclear Charge Density Model:      Point Charge Nuclei                      
    Core Treatment:                    Frozen Orbital(s)                        

    Hyperfine or Zeeman Interaction:   ---                                      

 Settings for Grimme D3 dispersion correction

      damping                        BJ
      s6                          1.000
      s8                          2.700
      a1                          0.430
      a2                          4.236

 Other (technical) parameters

      alpha                      14.000
      version                         4
 


 Fragment File(s)
 ----------------
 C:
         file : /gpfs/home1/yeseo1ee/projects/eda-asm-prediction/adf_outputs/batch_001/dipolar_002175/c2_fragB_ts.results/t21.50BA88D5.C
         jobid: 0
         title: Carbon (TZ2P)
 O:
         file : /gpfs/home1/yeseo1ee/projects/eda-asm-prediction/adf_outputs/batch_001/dipolar_002175/c2_fragB_ts.results/t21.6E90ABAE.O
         jobid: 0
         title: Oxygen (TZ2P)
 F:
         file : /gpfs/home1/yeseo1ee/projects/eda-asm-prediction/adf_outputs/batch_001/dipolar_002175/c2_fragB_ts.results/t21.CCE1280.F
         jobid: 0
         title: Fluorine (TZ2P)
 H:
         file : /gpfs/home1/yeseo1ee/projects/eda-asm-prediction/adf_outputs/batch_001/dipolar_002175/c2_fragB_ts.results/t21.6F35CCAB.H
         jobid: 0
         title: Hydrogen (TZ2P)



 ===============
 G E O M E T R Y  ***  3D  Molecule  ***
 ===============
  

 ATOMS
 =====                            X Y Z                    CHARGE
                                (Angstrom)             Nucl     +Core       At.Mass
                       --------------------------    ----------------       -------
    1  C               1.3016   -1.6265   -0.5763      6.00      6.00       12.0000
    2  C               2.6926   -1.8821    0.0976      6.00      6.00       12.0000
    3  C               3.1957   -0.6128    0.7721      6.00      6.00       12.0000
    4  C               2.3580   -0.4078    1.7937      6.00      6.00       12.0000
    5  C               1.3661   -1.5661    1.7436      6.00      6.00       12.0000
    6  O               2.2398   -2.6310    1.2504      8.00      8.00       15.9949
    7  C               0.4219   -1.4387    0.5104      6.00      6.00       12.0000
    8  C              -0.8090   -2.2467    0.5993      6.00      6.00       12.0000
    9  F              -1.7887   -1.6846    1.3563      9.00      9.00       18.9984
   10  F              -1.3490   -2.5211   -0.6127      9.00      9.00       18.9984
   11  F              -0.6032   -3.4679    1.1813      9.00      9.00       18.9984
   12  H               1.0252   -2.2802   -1.4046      1.00      1.00        1.0078
   13  H               3.3998   -2.4551   -0.5111      1.00      1.00        1.0078
   14  H               4.0376   -0.0086    0.4481      1.00      1.00        1.0078
   15  H               2.3484    0.4086    2.5104      1.00      1.00        1.0078
   16  H               0.8815   -1.8488    2.6838      1.00      1.00        1.0078


 FRAGMENTS
 =========                                     Atoms in this Fragment     Cart. coord.s (Angstrom)
                                               -------------------------------------------------------
    1  C                                                 1  C            1.3016   -1.6265   -0.5763
    2  C                                                 2  C            2.6926   -1.8821    0.0976
    3  C                                                 3  C            3.1957   -0.6128    0.7721
    4  C                                                 4  C            2.3580   -0.4078    1.7937
    5  C                                                 5  C            1.3661   -1.5661    1.7436
    6  C                                                 7  C            0.4219   -1.4387    0.5104
    7  C                                                 8  C           -0.8090   -2.2467    0.5993
    8  O                                                 6  O            2.2398   -2.6310    1.2504
    9  F                                                 9  F           -1.7887   -1.6846    1.3563
   10  F                                                10  F           -1.3490   -2.5211   -0.6127
   11  F                                                11  F           -0.6032   -3.4679    1.1813
   12  H                                                12  H            1.0252   -2.2802   -1.4046
   13  H                                                13  H            3.3998   -2.4551   -0.5111
   14  H                                                14  H            4.0376   -0.0086    0.4481
   15  H                                                15  H            2.3484    0.4086    2.5104
   16  H                                                16  H            0.8815   -1.8488    2.6838


 Interatomic Distance Matrix (Angstrom)
 --------------------------------------

   1)     0.000
   2)     1.567   0.000
   3)     2.536   1.523   0.000
   4)     2.867   2.272   1.337   0.000
   5)     2.322   2.138   2.280   1.526   0.000
   6)     2.286   1.447   2.284   2.292   1.463   0.000
   7)     1.411   2.350   2.906   2.541   1.558   2.297   0.000
   8)     2.494   3.556   4.329   3.852   2.550   3.141   1.475   0.000
   9)     3.645   4.659   5.132   4.361   3.181   4.140   2.380   1.360   0.000
  10)     2.798   4.153   5.120   4.899   3.720   4.045   2.360   1.355   2.184   0.000
  11)     3.179   3.815   4.770   4.302   2.795   2.964   2.370   1.368   2.148   2.161
          0.000
  12)     1.091   2.279   3.497   3.939   3.246   2.941   2.177   2.717   3.987   2.514
          3.279   0.000
  13)     2.257   1.095   2.254   3.254   3.164   2.116   3.308   4.358   5.568   4.750
          4.463   2.543   0.000
  14)     3.340   2.333   1.086   2.189   3.353   3.279   3.889   5.341   6.130   6.038
          5.835   4.203   2.704   0.000
  15)     3.843   3.345   2.187   1.086   2.335   3.292   3.335   4.547   4.778   5.658
          5.050   4.930   4.294   2.698   0.000
  16)     3.294   3.157   3.246   2.247   1.095   2.124   2.259   2.713   2.986   4.037
          2.661   4.114   4.113   4.283   2.698   0.000

 Min. Distance =    1.0857
 Max. Distance =    6.1302



 =====================================
 S Y M M E T R Y ,   E L E C T R O N S
 =====================================
  
 Symmetry: NOSYM

 Irreducible Representations, including subspecies
 -------------------------------------------------
 A


 Configuration of Valence Electrons
 ==================================
 ( determined in the SCF procedure )

 Total:   82

 Net Charge: 0 (Nuclei minus Electrons)

 Aufbau principle for MO occupations will be applied through SCF cycle no.     100
 Thereafter, the program will assign electrons to MOs that are spatially
 similar to the occupied MOs in a "reference" cycle ("KeepOrbitals").
 The reference cycle is always the PREVIOUS cycle: it will evolve with
 the SCF procedure.
 ***************************************************************************************************



                                      ****************************************
                                      *  B U I L D : (Fragments, Functions)  *
                                      ****************************************
  



 =======
 S F O s  ***  (Symmetrized Fragment Orbitals)  ***
 =======
  
 SFOs are linear combinations of (valence) Fragment Orbitals (FOs), such that the SFOs transform as the
 irreducible representations of the (molecular) symmetry group. Each SFO is therefore characterized by
 an irrep of the molecule and by a few (or only one) generating FOs.
 The SFOs constitute a symmetry-adapted basis for the Fock matrix. The MO eigenvector coefficients in
 this basis provide a direct interpretation of the MOs in terms of Frontier Orbital Theory.

 The SFOs are combined with auxiliary Core Functions (CFs) to ensure orthogonalization on the (frozen)
 Core Orbitals (COs). The Core-orthogonalized SFOs (CSFOs) constitute the true Fock basis.

 The FOs, and hence also the (C)SFOs are combinations of the elementary basis functions (BAS). The basis
 functions that participate in the description of the SFOs depend on the irrep. The indices of the
 involved functions are printed below for each irrep.
 (The complete list of primitive basis functions is printed in another section)

 Total nr. of (C)SFOs (summation over all irreps) :   341

 NOTE: a (C)SFO that is defined as a combination of more than one FO is usually NOT normalized.



                                       === A ===
 Nr. of SFOs :  341
 Cartesian basis functions that participate in this irrep (total number =   390) :
      1     2     3     4     5     6     9    12     7    10
     13     8    11    14    15    16    17    18    19    20
     21    22    23    24    25    26    27    28    29    30
     31    32    33    34    35    36    39    42    37    40
     43    38    41    44    45    46    47    48    49    50
     51    52    53    54    55    56    57    58    59    60
     61    62    63    64    65    66    69    72    67    70
     73    68    71    74    75    76    77    78    79    80
     81    82    83    84    85    86    87    88    89    90
     91    92    93    94    95    96    99   102    97   100
    103    98   101   104   105   106   107   108   109   110
    111   112   113   114   115   116   117   118   119   120
    121   122   123   124   125   126   129   132   127   130
    133   128   131   134   135   136   137   138   139   140
    141   142   143   144   145   146   147   148   149   150
    151   152   153   154   155   156   159   162   157   160
    163   158   161   164   165   166   167   168   169   170
    171   172   173   174   175   176   177   178   179   180
    181   182   183   184   185   186   189   192   187   190
    193   188   191   194   195   196   197   198   199   200
    201   202   203   204   205   206   207   208   209   210
    211   212   213   214   215   216   219   222   217   220
    223   218   221   224   225   226   227   228   229   230
    231   232   233   234   235   236   237   238   239   240
    241   242   243   244   245   246   249   252   247   250
    253   248   251   254   255   256   257   258   259   260
    261   262   263   264   265   266   267   268   269   270
    271   272   273   274   275   276   279   282   277   280
    283   278   281   284   285   286   287   288   289   290
    291   292   293   294   295   296   297   298   299   300
    301   302   303   304   305   306   309   312   307   310
    313   308   311   314   315   316   317   318   319   320
    321   322   323   324   325   326   327   328   329   330
    331   332   333   334   335   336   337   338   339   340
    341   342   343   344   345   346   347   348   349   350
    351   352   353   354   355   356   357   358   359   360
    361   362   363   364   365   366   367   368   369   370
    371   372   373   374   375   376   377   378   379   380
    381   382   383   384   385   386   387   388   389   390

    SFO  (index         Fragment          Generating    Expansion in Fragment Orbitals
  indx  incl.CFs)   Occup   Orb.Energy   FragmentType  Coeff.   Orbital     on Fragment
 --------------------------------------------------------------------------------------
     1       1      2.000     -10.066 au  C             1.00      1 S               1
                        (    -273.921 eV)
     2       2      2.000      -0.501 au  C             1.00      2 S               1
                        (     -13.620 eV)
     3       3       --         0.373 au  C             1.00      3 S               1
                        (      10.158 eV)
     4       4       --         5.405 au  C             1.00      4 S               1
                        (     147.073 eV)
     5       5       --        49.848 au  C             1.00      5 S               1
                        (    1356.422 eV)
     6       6      0.667      -0.193 au  C             1.00      1 P:x             1
                        (      -5.239 eV)
     7       7       --         0.169 au  C             1.00      2 P:x             1
                        (       4.589 eV)
     8       8       --         2.013 au  C             1.00      3 P:x             1
                        (      54.789 eV)
     9       9      0.667      -0.193 au  C             1.00      1 P:y             1
                        (      -5.239 eV)
    10      10       --         0.169 au  C             1.00      2 P:y             1
                        (       4.589 eV)
    11      11       --         2.013 au  C             1.00      3 P:y             1
                        (      54.789 eV)
    12      12      0.667      -0.193 au  C             1.00      1 P:z             1
                        (      -5.239 eV)
    13      13       --         0.169 au  C             1.00      2 P:z             1
                        (       4.589 eV)
    14      14       --         2.013 au  C             1.00      3 P:z             1
                        (      54.789 eV)
    15      15       --         1.243 au  C             1.00      1 D:z2            1
                        (      33.824 eV)
    16      16       --         1.243 au  C             1.00      1 D:x2-y2         1
                        (      33.824 eV)
    17      17       --         1.243 au  C             1.00      1 D:xy            1
                        (      33.824 eV)
    18      18       --         1.243 au  C             1.00      1 D:xz            1
                        (      33.824 eV)
    19      19       --         1.243 au  C             1.00      1 D:yz            1
                        (      33.824 eV)
    20      20       --         4.016 au  C             1.00      1 F:z3            1
                        (     109.271 eV)
    21      21       --         4.016 au  C             1.00      1 F:z             1
                        (     109.271 eV)
    22      22       --         4.016 au  C             1.00      1 F:xyz           1
                        (     109.271 eV)
    23      23       --         4.016 au  C             1.00      1 F:z2x           1
                        (     109.271 eV)
    24      24       --         4.016 au  C             1.00      1 F:z2y           1
                        (     109.271 eV)
    25      25       --         4.016 au  C             1.00      1 F:x             1
                        (     109.271 eV)
    26      26       --         4.016 au  C             1.00      1 F:y             1
                        (     109.271 eV)
    27      27      2.000     -10.066 au  C             1.00      1 S               2
                        (    -273.921 eV)
    28      28      2.000      -0.501 au  C             1.00      2 S               2
                        (     -13.620 eV)
    29      29       --         0.373 au  C             1.00      3 S               2
                        (      10.158 eV)
    30      30       --         5.405 au  C             1.00      4 S               2
                        (     147.073 eV)
    31      31       --        49.848 au  C             1.00      5 S               2
                        (    1356.422 eV)
    32      32      0.667      -0.193 au  C             1.00      1 P:x             2
                        (      -5.239 eV)
    33      33       --         0.169 au  C             1.00      2 P:x             2
                        (       4.589 eV)
    34      34       --         2.013 au  C             1.00      3 P:x             2
                        (      54.789 eV)
    35      35      0.667      -0.193 au  C             1.00      1 P:y             2
                        (      -5.239 eV)
    36      36       --         0.169 au  C             1.00      2 P:y             2
                        (       4.589 eV)
    37      37       --         2.013 au  C             1.00      3 P:y             2
                        (      54.789 eV)
    38      38      0.667      -0.193 au  C             1.00      1 P:z             2
                        (      -5.239 eV)
    39      39       --         0.169 au  C             1.00      2 P:z             2
                        (       4.589 eV)
    40      40       --         2.013 au  C             1.00      3 P:z             2
                        (      54.789 eV)
    41      41       --         1.243 au  C             1.00      1 D:z2            2
                        (      33.824 eV)
    42      42       --         1.243 au  C             1.00      1 D:x2-y2         2
                        (      33.824 eV)
    43      43       --         1.243 au  C             1.00      1 D:xy            2
                        (      33.824 eV)
    44      44       --         1.243 au  C             1.00      1 D:xz            2
                        (      33.824 eV)
    45      45       --         1.243 au  C             1.00      1 D:yz            2
                        (      33.824 eV)
    46      46       --         4.016 au  C             1.00      1 F:z3            2
                        (     109.271 eV)
    47      47       --         4.016 au  C             1.00      1 F:z             2
                        (     109.271 eV)
    48      48       --         4.016 au  C             1.00      1 F:xyz           2
                        (     109.271 eV)
    49      49       --         4.016 au  C             1.00      1 F:z2x           2
                        (     109.271 eV)
    50      50       --         4.016 au  C             1.00      1 F:z2y           2
                        (     109.271 eV)
    51      51       --         4.016 au  C             1.00      1 F:x             2
                        (     109.271 eV)
    52      52       --         4.016 au  C             1.00      1 F:y             2
                        (     109.271 eV)
    53      53      2.000     -10.066 au  C             1.00      1 S               3
                        (    -273.921 eV)
    54      54      2.000      -0.501 au  C             1.00      2 S               3
                        (     -13.620 eV)
    55      55       --         0.373 au  C             1.00      3 S               3
                        (      10.158 eV)
    56      56       --         5.405 au  C             1.00      4 S               3
                        (     147.073 eV)
    57      57       --        49.848 au  C             1.00      5 S               3
                        (    1356.422 eV)
    58      58      0.667      -0.193 au  C             1.00      1 P:x             3
                        (      -5.239 eV)
    59      59       --         0.169 au  C             1.00      2 P:x             3
                        (       4.589 eV)
    60      60       --         2.013 au  C             1.00      3 P:x             3
                        (      54.789 eV)
    61      61      0.667      -0.193 au  C             1.00      1 P:y             3
                        (      -5.239 eV)
    62      62       --         0.169 au  C             1.00      2 P:y             3
                        (       4.589 eV)
    63      63       --         2.013 au  C             1.00      3 P:y             3
                        (      54.789 eV)
    64      64      0.667      -0.193 au  C             1.00      1 P:z             3
                        (      -5.239 eV)
    65      65       --         0.169 au  C             1.00      2 P:z             3
                        (       4.589 eV)
    66      66       --         2.013 au  C             1.00      3 P:z             3
                        (      54.789 eV)
    67      67       --         1.243 au  C             1.00      1 D:z2            3
                        (      33.824 eV)
    68      68       --         1.243 au  C             1.00      1 D:x2-y2         3
                        (      33.824 eV)
    69      69       --         1.243 au  C             1.00      1 D:xy            3
                        (      33.824 eV)
    70      70       --         1.243 au  C             1.00      1 D:xz            3
                        (      33.824 eV)
    71      71       --         1.243 au  C             1.00      1 D:yz            3
                        (      33.824 eV)
    72      72       --         4.016 au  C             1.00      1 F:z3            3
                        (     109.271 eV)
    73      73       --         4.016 au  C             1.00      1 F:z             3
                        (     109.271 eV)
    74      74       --         4.016 au  C             1.00      1 F:xyz           3
                        (     109.271 eV)
    75      75       --         4.016 au  C             1.00      1 F:z2x           3
                        (     109.271 eV)
    76      76       --         4.016 au  C             1.00      1 F:z2y           3
                        (     109.271 eV)
    77      77       --         4.016 au  C             1.00      1 F:x             3
                        (     109.271 eV)
    78      78       --         4.016 au  C             1.00      1 F:y             3
                        (     109.271 eV)
    79      79      2.000     -10.066 au  C             1.00      1 S               4
                        (    -273.921 eV)
    80      80      2.000      -0.501 au  C             1.00      2 S               4
                        (     -13.620 eV)
    81      81       --         0.373 au  C             1.00      3 S               4
                        (      10.158 eV)
    82      82       --         5.405 au  C             1.00      4 S               4
                        (     147.073 eV)
    83      83       --        49.848 au  C             1.00      5 S               4
                        (    1356.422 eV)
    84      84      0.667      -0.193 au  C             1.00      1 P:x             4
                        (      -5.239 eV)
    85      85       --         0.169 au  C             1.00      2 P:x             4
                        (       4.589 eV)
    86      86       --         2.013 au  C             1.00      3 P:x             4
                        (      54.789 eV)
    87      87      0.667      -0.193 au  C             1.00      1 P:y             4
                        (      -5.239 eV)
    88      88       --         0.169 au  C             1.00      2 P:y             4
                        (       4.589 eV)
    89      89       --         2.013 au  C             1.00      3 P:y             4
                        (      54.789 eV)
    90      90      0.667      -0.193 au  C             1.00      1 P:z             4
                        (      -5.239 eV)
    91      91       --         0.169 au  C             1.00      2 P:z             4
                        (       4.589 eV)
    92      92       --         2.013 au  C             1.00      3 P:z             4
                        (      54.789 eV)
    93      93       --         1.243 au  C             1.00      1 D:z2            4
                        (      33.824 eV)
    94      94       --         1.243 au  C             1.00      1 D:x2-y2         4
                        (      33.824 eV)
    95      95       --         1.243 au  C             1.00      1 D:xy            4
                        (      33.824 eV)
    96      96       --         1.243 au  C             1.00      1 D:xz            4
                        (      33.824 eV)
    97      97       --         1.243 au  C             1.00      1 D:yz            4
                        (      33.824 eV)
    98      98       --         4.016 au  C             1.00      1 F:z3            4
                        (     109.271 eV)
    99      99       --         4.016 au  C             1.00      1 F:z             4
                        (     109.271 eV)
   100     100       --         4.016 au  C             1.00      1 F:xyz           4
                        (     109.271 eV)
   101     101       --         4.016 au  C             1.00      1 F:z2x           4
                        (     109.271 eV)
   102     102       --         4.016 au  C             1.00      1 F:z2y           4
                        (     109.271 eV)
   103     103       --         4.016 au  C             1.00      1 F:x             4
                        (     109.271 eV)
   104     104       --         4.016 au  C             1.00      1 F:y             4
                        (     109.271 eV)
   105     105      2.000     -10.066 au  C             1.00      1 S               5
                        (    -273.921 eV)
   106     106      2.000      -0.501 au  C             1.00      2 S               5
                        (     -13.620 eV)
   107     107       --         0.373 au  C             1.00      3 S               5
                        (      10.158 eV)
   108     108       --         5.405 au  C             1.00      4 S               5
                        (     147.073 eV)
   109     109       --        49.848 au  C             1.00      5 S               5
                        (    1356.422 eV)
   110     110      0.667      -0.193 au  C             1.00      1 P:x             5
                        (      -5.239 eV)
   111     111       --         0.169 au  C             1.00      2 P:x             5
                        (       4.589 eV)
   112     112       --         2.013 au  C             1.00      3 P:x             5
                        (      54.789 eV)
   113     113      0.667      -0.193 au  C             1.00      1 P:y             5
                        (      -5.239 eV)
   114     114       --         0.169 au  C             1.00      2 P:y             5
                        (       4.589 eV)
   115     115       --         2.013 au  C             1.00      3 P:y             5
                        (      54.789 eV)
   116     116      0.667      -0.193 au  C             1.00      1 P:z             5
                        (      -5.239 eV)
   117     117       --         0.169 au  C             1.00      2 P:z             5
                        (       4.589 eV)
   118     118       --         2.013 au  C             1.00      3 P:z             5
                        (      54.789 eV)
   119     119       --         1.243 au  C             1.00      1 D:z2            5
                        (      33.824 eV)
   120     120       --         1.243 au  C             1.00      1 D:x2-y2         5
                        (      33.824 eV)
   121     121       --         1.243 au  C             1.00      1 D:xy            5
                        (      33.824 eV)
   122     122       --         1.243 au  C             1.00      1 D:xz            5
                        (      33.824 eV)
   123     123       --         1.243 au  C             1.00      1 D:yz            5
                        (      33.824 eV)
   124     124       --         4.016 au  C             1.00      1 F:z3            5
                        (     109.271 eV)
   125     125       --         4.016 au  C             1.00      1 F:z             5
                        (     109.271 eV)
   126     126       --         4.016 au  C             1.00      1 F:xyz           5
                        (     109.271 eV)
   127     127       --         4.016 au  C             1.00      1 F:z2x           5
                        (     109.271 eV)
   128     128       --         4.016 au  C             1.00      1 F:z2y           5
                        (     109.271 eV)
   129     129       --         4.016 au  C             1.00      1 F:x             5
                        (     109.271 eV)
   130     130       --         4.016 au  C             1.00      1 F:y             5
                        (     109.271 eV)
   131     131      2.000     -10.066 au  C             1.00      1 S               6
                        (    -273.921 eV)
   132     132      2.000      -0.501 au  C             1.00      2 S               6
                        (     -13.620 eV)
   133     133       --         0.373 au  C             1.00      3 S               6
                        (      10.158 eV)
   134     134       --         5.405 au  C             1.00      4 S               6
                        (     147.073 eV)
   135     135       --        49.848 au  C             1.00      5 S               6
                        (    1356.422 eV)
   136     136      0.667      -0.193 au  C             1.00      1 P:x             6
                        (      -5.239 eV)
   137     137       --         0.169 au  C             1.00      2 P:x             6
                        (       4.589 eV)
   138     138       --         2.013 au  C             1.00      3 P:x             6
                        (      54.789 eV)
   139     139      0.667      -0.193 au  C             1.00      1 P:y             6
                        (      -5.239 eV)
   140     140       --         0.169 au  C             1.00      2 P:y             6
                        (       4.589 eV)
   141     141       --         2.013 au  C             1.00      3 P:y             6
                        (      54.789 eV)
   142     142      0.667      -0.193 au  C             1.00      1 P:z             6
                        (      -5.239 eV)
   143     143       --         0.169 au  C             1.00      2 P:z             6
                        (       4.589 eV)
   144     144       --         2.013 au  C             1.00      3 P:z             6
                        (      54.789 eV)
   145     145       --         1.243 au  C             1.00      1 D:z2            6
                        (      33.824 eV)
   146     146       --         1.243 au  C             1.00      1 D:x2-y2         6
                        (      33.824 eV)
   147     147       --         1.243 au  C             1.00      1 D:xy            6
                        (      33.824 eV)
   148     148       --         1.243 au  C             1.00      1 D:xz            6
                        (      33.824 eV)
   149     149       --         1.243 au  C             1.00      1 D:yz            6
                        (      33.824 eV)
   150     150       --         4.016 au  C             1.00      1 F:z3            6
                        (     109.271 eV)
   151     151       --         4.016 au  C             1.00      1 F:z             6
                        (     109.271 eV)
   152     152       --         4.016 au  C             1.00      1 F:xyz           6
                        (     109.271 eV)
   153     153       --         4.016 au  C             1.00      1 F:z2x           6
                        (     109.271 eV)
   154     154       --         4.016 au  C             1.00      1 F:z2y           6
                        (     109.271 eV)
   155     155       --         4.016 au  C             1.00      1 F:x             6
                        (     109.271 eV)
   156     156       --         4.016 au  C             1.00      1 F:y             6
                        (     109.271 eV)
   157     157      2.000     -10.066 au  C             1.00      1 S               7
                        (    -273.921 eV)
   158     158      2.000      -0.501 au  C             1.00      2 S               7
                        (     -13.620 eV)
   159     159       --         0.373 au  C             1.00      3 S               7
                        (      10.158 eV)
   160     160       --         5.405 au  C             1.00      4 S               7
                        (     147.073 eV)
   161     161       --        49.848 au  C             1.00      5 S               7
                        (    1356.422 eV)
   162     162      0.667      -0.193 au  C             1.00      1 P:x             7
                        (      -5.239 eV)
   163     163       --         0.169 au  C             1.00      2 P:x             7
                        (       4.589 eV)
   164     164       --         2.013 au  C             1.00      3 P:x             7
                        (      54.789 eV)
   165     165      0.667      -0.193 au  C             1.00      1 P:y             7
                        (      -5.239 eV)
   166     166       --         0.169 au  C             1.00      2 P:y             7
                        (       4.589 eV)
   167     167       --         2.013 au  C             1.00      3 P:y             7
                        (      54.789 eV)
   168     168      0.667      -0.193 au  C             1.00      1 P:z             7
                        (      -5.239 eV)
   169     169       --         0.169 au  C             1.00      2 P:z             7
                        (       4.589 eV)
   170     170       --         2.013 au  C             1.00      3 P:z             7
                        (      54.789 eV)
   171     171       --         1.243 au  C             1.00      1 D:z2            7
                        (      33.824 eV)
   172     172       --         1.243 au  C             1.00      1 D:x2-y2         7
                        (      33.824 eV)
   173     173       --         1.243 au  C             1.00      1 D:xy            7
                        (      33.824 eV)
   174     174       --         1.243 au  C             1.00      1 D:xz            7
                        (      33.824 eV)
   175     175       --         1.243 au  C             1.00      1 D:yz            7
                        (      33.824 eV)
   176     176       --         4.016 au  C             1.00      1 F:z3            7
                        (     109.271 eV)
   177     177       --         4.016 au  C             1.00      1 F:z             7
                        (     109.271 eV)
   178     178       --         4.016 au  C             1.00      1 F:xyz           7
                        (     109.271 eV)
   179     179       --         4.016 au  C             1.00      1 F:z2x           7
                        (     109.271 eV)
   180     180       --         4.016 au  C             1.00      1 F:z2y           7
                        (     109.271 eV)
   181     181       --         4.016 au  C             1.00      1 F:x             7
                        (     109.271 eV)
   182     182       --         4.016 au  C             1.00      1 F:y             7
                        (     109.271 eV)
   183     183      2.000     -18.941 au  O             1.00      1 S               8
                        (    -515.403 eV)
   184     184      2.000      -0.876 au  O             1.00      2 S               8
                        (     -23.838 eV)
   185     185       --         0.791 au  O             1.00      3 S               8
                        (      21.524 eV)
   186     186       --        13.422 au  O             1.00      4 S               8
                        (     365.226 eV)
   187     187       --       121.561 au  O             1.00      5 S               8
                        (    3307.838 eV)
   188     188      1.333      -0.331 au  O             1.00      1 P:x             8
                        (      -9.020 eV)
   189     189       --         0.347 au  O             1.00      2 P:x             8
                        (       9.437 eV)
   190     190       --         3.820 au  O             1.00      3 P:x             8
                        (     103.939 eV)
   191     191      1.333      -0.331 au  O             1.00      1 P:y             8
                        (      -9.020 eV)
   192     192       --         0.347 au  O             1.00      2 P:y             8
                        (       9.437 eV)
   193     193       --         3.820 au  O             1.00      3 P:y             8
                        (     103.939 eV)
   194     194      1.333      -0.331 au  O             1.00      1 P:z             8
                        (      -9.020 eV)
   195     195       --         0.347 au  O             1.00      2 P:z             8
                        (       9.437 eV)
   196     196       --         3.820 au  O             1.00      3 P:z             8
                        (     103.939 eV)
   197     197       --         1.071 au  O             1.00      1 D:z2            8
                        (      29.134 eV)
   198     198       --         1.071 au  O             1.00      1 D:x2-y2         8
                        (      29.134 eV)
   199     199       --         1.071 au  O             1.00      1 D:xy            8
                        (      29.134 eV)
   200     200       --         1.071 au  O             1.00      1 D:xz            8
                        (      29.134 eV)
   201     201       --         1.071 au  O             1.00      1 D:yz            8
                        (      29.134 eV)
   202     202       --         3.359 au  O             1.00      1 F:z3            8
                        (      91.410 eV)
   203     203       --         3.359 au  O             1.00      1 F:z             8
                        (      91.410 eV)
   204     204       --         3.359 au  O             1.00      1 F:xyz           8
                        (      91.410 eV)
   205     205       --         3.359 au  O             1.00      1 F:z2x           8
                        (      91.410 eV)
   206     206       --         3.359 au  O             1.00      1 F:z2y           8
                        (      91.410 eV)
   207     207       --         3.359 au  O             1.00      1 F:x             8
                        (      91.410 eV)
   208     208       --         3.359 au  O             1.00      1 F:y             8
                        (      91.410 eV)
   209     209      2.000     -24.402 au  F             1.00      1 S               9
                        (    -664.014 eV)
   210     210      2.000      -1.095 au  F             1.00      2 S               9
                        (     -29.785 eV)
   211     211       --         0.023 au  F             1.00      3 S               9
                        (       0.624 eV)
   212     212       --         1.576 au  F             1.00      4 S               9
                        (      42.880 eV)
   213     213       --        47.803 au  F             1.00      5 S               9
                        (    1300.785 eV)
   214     214      1.667      -0.409 au  F             1.00      1 P:x             9
                        (     -11.127 eV)
   215     215       --         0.428 au  F             1.00      2 P:x             9
                        (      11.654 eV)
   216     216       --         4.556 au  F             1.00      3 P:x             9
                        (     123.977 eV)
   217     217      1.667      -0.409 au  F             1.00      1 P:y             9
                        (     -11.127 eV)
   218     218       --         0.428 au  F             1.00      2 P:y             9
                        (      11.654 eV)
   219     219       --         4.556 au  F             1.00      3 P:y             9
                        (     123.977 eV)
   220     220      1.667      -0.409 au  F             1.00      1 P:z             9
                        (     -11.127 eV)
   221     221       --         0.428 au  F             1.00      2 P:z             9
                        (      11.654 eV)
   222     222       --         4.556 au  F             1.00      3 P:z             9
                        (     123.977 eV)
   223     223       --         1.117 au  F             1.00      1 D:z2            9
                        (      30.390 eV)
   224     224       --         1.117 au  F             1.00      1 D:x2-y2         9
                        (      30.390 eV)
   225     225       --         1.117 au  F             1.00      1 D:xy            9
                        (      30.390 eV)
   226     226       --         1.117 au  F             1.00      1 D:xz            9
                        (      30.390 eV)
   227     227       --         1.117 au  F             1.00      1 D:yz            9
                        (      30.390 eV)
   228     228       --         3.416 au  F             1.00      1 F:z3            9
                        (      92.949 eV)
   229     229       --         3.416 au  F             1.00      1 F:z             9
                        (      92.949 eV)
   230     230       --         3.416 au  F             1.00      1 F:xyz           9
                        (      92.949 eV)
   231     231       --         3.416 au  F             1.00      1 F:z2x           9
                        (      92.949 eV)
   232     232       --         3.416 au  F             1.00      1 F:z2y           9
                        (      92.949 eV)
   233     233       --         3.416 au  F             1.00      1 F:x             9
                        (      92.949 eV)
   234     234       --         3.416 au  F             1.00      1 F:y             9
                        (      92.949 eV)
   235     235      2.000     -24.402 au  F             1.00      1 S              10
                        (    -664.014 eV)
   236     236      2.000      -1.095 au  F             1.00      2 S              10
                        (     -29.785 eV)
   237     237       --         0.023 au  F             1.00      3 S              10
                        (       0.624 eV)
   238     238       --         1.576 au  F             1.00      4 S              10
                        (      42.880 eV)
   239     239       --        47.803 au  F             1.00      5 S              10
                        (    1300.785 eV)
   240     240      1.667      -0.409 au  F             1.00      1 P:x            10
                        (     -11.127 eV)
   241     241       --         0.428 au  F             1.00      2 P:x            10
                        (      11.654 eV)
   242     242       --         4.556 au  F             1.00      3 P:x            10
                        (     123.977 eV)
   243     243      1.667      -0.409 au  F             1.00      1 P:y            10
                        (     -11.127 eV)
   244     244       --         0.428 au  F             1.00      2 P:y            10
                        (      11.654 eV)
   245     245       --         4.556 au  F             1.00      3 P:y            10
                        (     123.977 eV)
   246     246      1.667      -0.409 au  F             1.00      1 P:z            10
                        (     -11.127 eV)
   247     247       --         0.428 au  F             1.00      2 P:z            10
                        (      11.654 eV)
   248     248       --         4.556 au  F             1.00      3 P:z            10
                        (     123.977 eV)
   249     249       --         1.117 au  F             1.00      1 D:z2           10
                        (      30.390 eV)
   250     250       --         1.117 au  F             1.00      1 D:x2-y2        10
                        (      30.390 eV)
   251     251       --         1.117 au  F             1.00      1 D:xy           10
                        (      30.390 eV)
   252     252       --         1.117 au  F             1.00      1 D:xz           10
                        (      30.390 eV)
   253     253       --         1.117 au  F             1.00      1 D:yz           10
                        (      30.390 eV)
   254     254       --         3.416 au  F             1.00      1 F:z3           10
                        (      92.949 eV)
   255     255       --         3.416 au  F             1.00      1 F:z            10
                        (      92.949 eV)
   256     256       --         3.416 au  F             1.00      1 F:xyz          10
                        (      92.949 eV)
   257     257       --         3.416 au  F             1.00      1 F:z2x          10
                        (      92.949 eV)
   258     258       --         3.416 au  F             1.00      1 F:z2y          10
                        (      92.949 eV)
   259     259       --         3.416 au  F             1.00      1 F:x            10
                        (      92.949 eV)
   260     260       --         3.416 au  F             1.00      1 F:y            10
                        (      92.949 eV)
   261     261      2.000     -24.402 au  F             1.00      1 S              11
                        (    -664.014 eV)
   262     262      2.000      -1.095 au  F             1.00      2 S              11
                        (     -29.785 eV)
   263     263       --         0.023 au  F             1.00      3 S              11
                        (       0.624 eV)
   264     264       --         1.576 au  F             1.00      4 S              11
                        (      42.880 eV)
   265     265       --        47.803 au  F             1.00      5 S              11
                        (    1300.785 eV)
   266     266      1.667      -0.409 au  F             1.00      1 P:x            11
                        (     -11.127 eV)
   267     267       --         0.428 au  F             1.00      2 P:x            11
                        (      11.654 eV)
   268     268       --         4.556 au  F             1.00      3 P:x            11
                        (     123.977 eV)
   269     269      1.667      -0.409 au  F             1.00      1 P:y            11
                        (     -11.127 eV)
   270     270       --         0.428 au  F             1.00      2 P:y            11
                        (      11.654 eV)
   271     271       --         4.556 au  F             1.00      3 P:y            11
                        (     123.977 eV)
   272     272      1.667      -0.409 au  F             1.00      1 P:z            11
                        (     -11.127 eV)
   273     273       --         0.428 au  F             1.00      2 P:z            11
                        (      11.654 eV)
   274     274       --         4.556 au  F             1.00      3 P:z            11
                        (     123.977 eV)
   275     275       --         1.117 au  F             1.00      1 D:z2           11
                        (      30.390 eV)
   276     276       --         1.117 au  F             1.00      1 D:x2-y2        11
                        (      30.390 eV)
   277     277       --         1.117 au  F             1.00      1 D:xy           11
                        (      30.390 eV)
   278     278       --         1.117 au  F             1.00      1 D:xz           11
                        (      30.390 eV)
   279     279       --         1.117 au  F             1.00      1 D:yz           11
                        (      30.390 eV)
   280     280       --         3.416 au  F             1.00      1 F:z3           11
                        (      92.949 eV)
   281     281       --         3.416 au  F             1.00      1 F:z            11
                        (      92.949 eV)
   282     282       --         3.416 au  F             1.00      1 F:xyz          11
                        (      92.949 eV)
   283     283       --         3.416 au  F             1.00      1 F:z2x          11
                        (      92.949 eV)
   284     284       --         3.416 au  F             1.00      1 F:z2y          11
                        (      92.949 eV)
   285     285       --         3.416 au  F             1.00      1 F:x            11
                        (      92.949 eV)
   286     286       --         3.416 au  F             1.00      1 F:y            11
                        (      92.949 eV)
   287     287      1.000      -0.240 au  H             1.00      1 S              12
                        (      -6.532 eV)
   288     288       --         0.088 au  H             1.00      2 S              12
                        (       2.394 eV)
   289     289       --         1.502 au  H             1.00      3 S              12
                        (      40.869 eV)
   290     290       --         0.406 au  H             1.00      1 P:x            12
                        (      11.051 eV)
   291     291       --         0.406 au  H             1.00      1 P:y            12
                        (      11.051 eV)
   292     292       --         0.406 au  H             1.00      1 P:z            12
                        (      11.051 eV)
   293     293       --         2.569 au  H             1.00      1 D:z2           12
                        (      69.917 eV)
   294     294       --         2.569 au  H             1.00      1 D:x2-y2        12
                        (      69.917 eV)
   295     295       --         2.569 au  H             1.00      1 D:xy           12
                        (      69.917 eV)
   296     296       --         2.569 au  H             1.00      1 D:xz           12
                        (      69.917 eV)
   297     297       --         2.569 au  H             1.00      1 D:yz           12
                        (      69.917 eV)
   298     298      1.000      -0.240 au  H             1.00      1 S              13
                        (      -6.532 eV)
   299     299       --         0.088 au  H             1.00      2 S              13
                        (       2.394 eV)
   300     300       --         1.502 au  H             1.00      3 S              13
                        (      40.869 eV)
   301     301       --         0.406 au  H             1.00      1 P:x            13
                        (      11.051 eV)
   302     302       --         0.406 au  H             1.00      1 P:y            13
                        (      11.051 eV)
   303     303       --         0.406 au  H             1.00      1 P:z            13
                        (      11.051 eV)
   304     304       --         2.569 au  H             1.00      1 D:z2           13
                        (      69.917 eV)
   305     305       --         2.569 au  H             1.00      1 D:x2-y2        13
                        (      69.917 eV)
   306     306       --         2.569 au  H             1.00      1 D:xy           13
                        (      69.917 eV)
   307     307       --         2.569 au  H             1.00      1 D:xz           13
                        (      69.917 eV)
   308     308       --         2.569 au  H             1.00      1 D:yz           13
                        (      69.917 eV)
   309     309      1.000      -0.240 au  H             1.00      1 S              14
                        (      -6.532 eV)
   310     310       --         0.088 au  H             1.00      2 S              14
                        (       2.394 eV)
   311     311       --         1.502 au  H             1.00      3 S              14
                        (      40.869 eV)
   312     312       --         0.406 au  H             1.00      1 P:x            14
                        (      11.051 eV)
   313     313       --         0.406 au  H             1.00      1 P:y            14
                        (      11.051 eV)
   314     314       --         0.406 au  H             1.00      1 P:z            14
                        (      11.051 eV)
   315     315       --         2.569 au  H             1.00      1 D:z2           14
                        (      69.917 eV)
   316     316       --         2.569 au  H             1.00      1 D:x2-y2        14
                        (      69.917 eV)
   317     317       --         2.569 au  H             1.00      1 D:xy           14
                        (      69.917 eV)
   318     318       --         2.569 au  H             1.00      1 D:xz           14
                        (      69.917 eV)
   319     319       --         2.569 au  H             1.00      1 D:yz           14
                        (      69.917 eV)
   320     320      1.000      -0.240 au  H             1.00      1 S              15
                        (      -6.532 eV)
   321     321       --         0.088 au  H             1.00      2 S              15
                        (       2.394 eV)
   322     322       --         1.502 au  H             1.00      3 S              15
                        (      40.869 eV)
   323     323       --         0.406 au  H             1.00      1 P:x            15
                        (      11.051 eV)
   324     324       --         0.406 au  H             1.00      1 P:y            15
                        (      11.051 eV)
   325     325       --         0.406 au  H             1.00      1 P:z            15
                        (      11.051 eV)
   326     326       --         2.569 au  H             1.00      1 D:z2           15
                        (      69.917 eV)
   327     327       --         2.569 au  H             1.00      1 D:x2-y2        15
                        (      69.917 eV)
   328     328       --         2.569 au  H             1.00      1 D:xy           15
                        (      69.917 eV)
   329     329       --         2.569 au  H             1.00      1 D:xz           15
                        (      69.917 eV)
   330     330       --         2.569 au  H             1.00      1 D:yz           15
                        (      69.917 eV)
   331     331      1.000      -0.240 au  H             1.00      1 S              16
                        (      -6.532 eV)
   332     332       --         0.088 au  H             1.00      2 S              16
                        (       2.394 eV)
   333     333       --         1.502 au  H             1.00      3 S              16
                        (      40.869 eV)
   334     334       --         0.406 au  H             1.00      1 P:x            16
                        (      11.051 eV)
   335     335       --         0.406 au  H             1.00      1 P:y            16
                        (      11.051 eV)
   336     336       --         0.406 au  H             1.00      1 P:z            16
                        (      11.051 eV)
   337     337       --         2.569 au  H             1.00      1 D:z2           16
                        (      69.917 eV)
   338     338       --         2.569 au  H             1.00      1 D:x2-y2        16
                        (      69.917 eV)
   339     339       --         2.569 au  H             1.00      1 D:xy           16
                        (      69.917 eV)
   340     340       --         2.569 au  H             1.00      1 D:xz           16
                        (      69.917 eV)
   341     341       --         2.569 au  H             1.00      1 D:yz           16
                        (      69.917 eV)



 ================================
 (Slater-type)  F U N C T I O N S  ***  (Basis and Fit)  ***
 ================================
  

 Atom Type    1  (C)
 ==============

 Valence Basis Sets:  10
 -----------------------
   1 S    7.680000
   1 S    5.000000
   2 S    1.280000
   2 S    2.100000
   2 S    4.600000
   2 P    0.820000
   2 P    1.480000
   2 P    2.940000
   3 D    2.200000
   4 F    3.300000

 Atom Type    2  (O)
 ==============

 Valence Basis Sets:  10
 -----------------------
   1 S    9.800000
   1 S    6.800000
   2 S    7.580000
   2 S    2.880000
   2 S    1.720000
   2 P    4.080000
   2 P    2.080000
   2 P    1.120000
   3 D    2.000000
   4 F    3.000000

 Atom Type    3  (F)
 ==============

 Valence Basis Sets:  10
 -----------------------
   1 S   10.880000
   1 S    7.700000
   2 S    3.240000
   2 S    1.940000
   2 S    0.740000
   2 P    4.540000
   2 P    2.300000
   2 P    1.240000
   3 D    2.000000
   4 F    3.000000

 Atom Type    4  (H)
 ==============

 Valence Basis Sets:   5
 -----------------------
   1 S    0.690000
   1 S    0.920000
   1 S    1.580000
   2 P    1.250000
   3 D    2.500000


 BAS: List of all Elementary Cartesian Basis Functions
 =====================================================

 The numbering in the list below (to the right of the function characteristics) is referred
 to in print-outs of MO eigenvectors and Mulliken populations in the BAS representation
 (as contrasted to the SFO representation).

 Notes:
 1. The functions are characterized by a polynomial prefactor (powers of x,y,z and r) and
    an exponential decay factor alpha.
 2. Since the basis sets are specific for an atom TYPE, the individual functions occur on
    all atoms of that type.
 3. The word 'Core' in the left margin signals that it is a Core Function (CF) : not a
    degree of freedom in the valence set, but only used to ensure orthogonalization of
    the other valence basis functions on the frozen Core Orbitals.


 (power of) X  Y  Z  R     Alpha  on Atom
            ==========     =====     ==========

 C                                    1    2    3    4    5    6    7
                                  ---------------------------------------------------------------------------
            0  0  0  0     7.680      1   31   61   91  121  151  181
            0  0  0  0     5.000      2   32   62   92  122  152  182
            0  0  0  1     1.280      3   33   63   93  123  153  183
            0  0  0  1     2.100      4   34   64   94  124  154  184
            0  0  0  1     4.600      5   35   65   95  125  155  185
            1  0  0  0     0.820      6   36   66   96  126  156  186
            0  1  0  0     0.820      7   37   67   97  127  157  187
            0  0  1  0     0.820      8   38   68   98  128  158  188
            1  0  0  0     1.480      9   39   69   99  129  159  189
            0  1  0  0     1.480     10   40   70  100  130  160  190
            0  0  1  0     1.480     11   41   71  101  131  161  191
            1  0  0  0     2.940     12   42   72  102  132  162  192
            0  1  0  0     2.940     13   43   73  103  133  163  193
            0  0  1  0     2.940     14   44   74  104  134  164  194
            2  0  0  0     2.200     15   45   75  105  135  165  195
            1  1  0  0     2.200     16   46   76  106  136  166  196
            1  0  1  0     2.200     17   47   77  107  137  167  197
            0  2  0  0     2.200     18   48   78  108  138  168  198
            0  1  1  0     2.200     19   49   79  109  139  169  199
            0  0  2  0     2.200     20   50   80  110  140  170  200
            3  0  0  0     3.300     21   51   81  111  141  171  201
            2  1  0  0     3.300     22   52   82  112  142  172  202
            2  0  1  0     3.300     23   53   83  113  143  173  203
            1  2  0  0     3.300     24   54   84  114  144  174  204
            1  1  1  0     3.300     25   55   85  115  145  175  205
            1  0  2  0     3.300     26   56   86  116  146  176  206
            0  3  0  0     3.300     27   57   87  117  147  177  207
            0  2  1  0     3.300     28   58   88  118  148  178  208
            0  1  2  0     3.300     29   59   89  119  149  179  209
            0  0  3  0     3.300     30   60   90  120  150  180  210

 O                                    8
                                  ---------------------------------------------------------------------------
            0  0  0  0     9.800    211
            0  0  0  0     6.800    212
            0  0  0  1     7.580    213
            0  0  0  1     2.880    214
            0  0  0  1     1.720    215
            1  0  0  0     4.080    216
            0  1  0  0     4.080    217
            0  0  1  0     4.080    218
            1  0  0  0     2.080    219
            0  1  0  0     2.080    220
            0  0  1  0     2.080    221
            1  0  0  0     1.120    222
            0  1  0  0     1.120    223
            0  0  1  0     1.120    224
            2  0  0  0     2.000    225
            1  1  0  0     2.000    226
            1  0  1  0     2.000    227
            0  2  0  0     2.000    228
            0  1  1  0     2.000    229
            0  0  2  0     2.000    230
            3  0  0  0     3.000    231
            2  1  0  0     3.000    232
            2  0  1  0     3.000    233
            1  2  0  0     3.000    234
            1  1  1  0     3.000    235
            1  0  2  0     3.000    236
            0  3  0  0     3.000    237
            0  2  1  0     3.000    238
            0  1  2  0     3.000    239
            0  0  3  0     3.000    240

 F                                    9   10   11
                                  ---------------------------------------------------------------------------
            0  0  0  0    10.880    241  271  301
            0  0  0  0     7.700    242  272  302
            0  0  0  1     3.240    243  273  303
            0  0  0  1     1.940    244  274  304
            0  0  0  1     0.740    245  275  305
            1  0  0  0     4.540    246  276  306
            0  1  0  0     4.540    247  277  307
            0  0  1  0     4.540    248  278  308
            1  0  0  0     2.300    249  279  309
            0  1  0  0     2.300    250  280  310
            0  0  1  0     2.300    251  281  311
            1  0  0  0     1.240    252  282  312
            0  1  0  0     1.240    253  283  313
            0  0  1  0     1.240    254  284  314
            2  0  0  0     2.000    255  285  315
            1  1  0  0     2.000    256  286  316
            1  0  1  0     2.000    257  287  317
            0  2  0  0     2.000    258  288  318
            0  1  1  0     2.000    259  289  319
            0  0  2  0     2.000    260  290  320
            3  0  0  0     3.000    261  291  321
            2  1  0  0     3.000    262  292  322
            2  0  1  0     3.000    263  293  323
            1  2  0  0     3.000    264  294  324
            1  1  1  0     3.000    265  295  325
            1  0  2  0     3.000    266  296  326
            0  3  0  0     3.000    267  297  327
            0  2  1  0     3.000    268  298  328
            0  1  2  0     3.000    269  299  329
            0  0  3  0     3.000    270  300  330

 H                                   12   13   14   15   16
                                  ---------------------------------------------------------------------------
            0  0  0  0     0.690    331  343  355  367  379
            0  0  0  0     0.920    332  344  356  368  380
            0  0  0  0     1.580    333  345  357  369  381
            1  0  0  0     1.250    334  346  358  370  382
            0  1  0  0     1.250    335  347  359  371  383
            0  0  1  0     1.250    336  348  360  372  384
            2  0  0  0     2.500    337  349  361  373  385
            1  1  0  0     2.500    338  350  362  374  386
            1  0  1  0     2.500    339  351  363  375  387
            0  2  0  0     2.500    340  352  364  376  388
            0  1  1  0     2.500    341  353  365  377  389
            0  0  2  0     2.500    342  354  366  378  390

 Total number of charge fitting functions (nprimf)      1177
 Total number of Cartesian basis functions (naos)        390
 Total number of Cartesian core functions  (ncos)          0

 ***************************************************************************************************



                                              ***********************
                                              *  T E C H N I C A L  *
                                              ***********************
  



 =============================================================
 P A R A L L E L I Z A T I O N  and  V E C T O R I Z A T I O N
 =============================================================
  
 Nr of parallel processes:                                1
 Maximum vector length in NumInt loops:                 128



 =====================
 S C F   U P D A T E S
 =====================
  
 Max. nr. of cycles:                               200
 Convergence criterion:                              0.0000010000
   secondary criterion:                              0.0010000000

 Mix parameter (when DIIS does not apply):           0.2000000000
 Mixed ADIIS+SDIIS will be used                  
    Max number of expansion vectors:                10
    Pure ADIIS when Max([F,P]) is above              0.1000000000
    Pure SDIIS when Max([F,P]) is below              0.0010000000
 Automatic ElectronSmearing (in case of problematic SCF convergence) disabled



 =================
 P R E C I S I O N  ***  (General: NumInt, NeglectFunctionTails, ...)  ***
 =================
  

 NumInt:           Target precision:                 4.0000000000
 -------           Initial precision:                4.0000000000
                   Min. precision (optimization):    4.0000000000

 Neglect Functions:          Basis functions:        0.1000000000E-05
 ------------------          Fit functions:          0.1000000000E-05



 ===========================
 L I N E A R   S C A L I N G
 ===========================
  

 Cut-off radii density fit:                        0.1000000000E-07
 Overlap cut-off criterion AO matrix elements:     0.1000000000E-05
 Cut-offs for Coulomb potential and fitted density:0.1000000000E-07
 Cut-off criterion for Coulomb multipole terms:    0.1000000000E-07
 Progressive Convergence parameter:                 0.000000000    
 ***************************************************************************************************



                                            ***************************
                                            *  C O M P U T A T I O N  *
                                            ***************************
  

 Number of elements of the density matrix on this node (used, total):     76245     76245



 ===========================================
 Numerical Integration : Fuzzy Cells (Becke)
 ===========================================
  
 Becke grid quality: NORMAL         
  
 Lebedev angular grid order:             min:  11 max:  23
 Nr. of radial points:                   min:  46 max:  55

 Total nr. of points:     108297
 Nr. of blocks:              847
 Block length:               128
 Nr. of dummy points:        119


 Test of Precision of the Numerical Integration Grid
 ===================================================

 Integral of the Total Core Density:                   0.00000000000000



 ========================
 Density Fitting (zlmFit)
 ========================
  
 ZlmFit Fit Quality: NORMAL         
  
 Max L-expansion:                        min:   6 max:   7
 Nr. of radial interpolation points:     min:  39 max:  54



 =====
 S C F  ***  ScaSCF  ***
 =====
  
 Initial density matrix is calculated as sum of fragments

 CYCLE    1
 SCF Error: norm([F,P])=      7.553582597286, max([F,P])=      1.220411541384
 orbitals (Q,E):
 ---------------
 A :32...51          ( 2.00    -0.4871)  ( 2.00    -0.4853)  ( 2.00    -0.4820)  ( 2.00    -0.4550)
                     ( 2.00    -0.4513)  ( 2.00    -0.4436)  ( 2.00    -0.4348)  ( 2.00    -0.4120)
                     ( 2.00    -0.3979)  ( 2.00    -0.3571)  ( 0.00    -0.2360)  ( 0.00    -0.1922)
                     ( 0.00    -0.0780)  ( 0.00    -0.0444)  ( 0.00    -0.0326)  ( 0.00    -0.0286)
                     ( 0.00    -0.0174)  ( 0.00    -0.0125)  ( 0.00    -0.0046)  ( 0.00    -0.0020)

 CYCLE    2
   MIX coefficients:  0.8000  0.2000
 SCF Error: norm([F,P])=      1.135345615969, max([F,P])=      0.144455768657
 orbitals (Q,E):
 ---------------
 A :32...42          ( 2.00    -0.4506)  ( 2.00    -0.4382)  ( 2.00    -0.4324)  ( 2.00    -0.4215)
                     ( 2.00    -0.4186)  ( 2.00    -0.4049)  ( 2.00    -0.4019)  ( 2.00    -0.3505)
                     ( 2.00    -0.3370)  ( 2.00    -0.2986)  ( 0.00    -0.1946)

 CYCLE    3
  SDIIS (wt  0.000): -0.9144  1.9144
 A-DIIS (wt  1.000):  0.0000  1.0000
  DIIS coefficients:  0.0000  1.0000
 SCF Error: norm([F,P])=      0.593386198706, max([F,P])=      0.077586930391
 orbitals (Q,E):
 ---------------
 A :32...42          ( 2.00    -0.3185)  ( 2.00    -0.3113)  ( 2.00    -0.3069)  ( 2.00    -0.2969)
                     ( 2.00    -0.2795)  ( 2.00    -0.2677)  ( 2.00    -0.2523)  ( 2.00    -0.1933)
                     ( 2.00    -0.1700)  ( 2.00    -0.1276)  ( 0.00    -0.0786)

 CYCLE    4
  SDIIS (wt  0.000):  0.2589  0.2622  0.4790
 A-DIIS (wt  1.000): -0.0000  0.6685  0.3315
  DIIS coefficients: -0.0000  0.6685  0.3315
 SCF Error: norm([F,P])=      0.930360855819, max([F,P])=      0.130064011577
 orbitals (Q,E):
 ---------------
 A :32...42          ( 2.00    -0.3637)  ( 2.00    -0.3583)  ( 2.00    -0.3510)  ( 2.00    -0.3462)
                     ( 2.00    -0.3386)  ( 2.00    -0.3314)  ( 2.00    -0.3103)  ( 2.00    -0.2600)
                     ( 2.00    -0.2424)  ( 2.00    -0.2058)  ( 0.00    -0.1192)

 CYCLE    5
  SDIIS (wt  0.840): -0.0980  0.3900  0.0736  0.6344
 A-DIIS (wt  0.160):  0.0000  0.0000  0.0000  1.0000
  DIIS coefficients: -0.0823  0.3275  0.0618  0.6930
 SCF Error: norm([F,P])=      0.132857947249, max([F,P])=      0.016853691710
 orbitals (Q,E):
 ---------------
 A :32...42          ( 2.00    -0.3750)  ( 2.00    -0.3693)  ( 2.00    -0.3625)  ( 2.00    -0.3580)
                     ( 2.00    -0.3502)  ( 2.00    -0.3453)  ( 2.00    -0.3265)  ( 2.00    -0.2711)
                     ( 2.00    -0.2547)  ( 2.00    -0.2128)  ( 0.00    -0.1354)

 CYCLE    6
  SDIIS (wt  0.840): -0.0134  0.1382  0.0345  0.4625  0.3782
 A-DIIS (wt  0.160):  0.0000  0.0000  0.0000  0.3391  0.6609
  DIIS coefficients: -0.0113  0.1161  0.0290  0.4427  0.4234
 SCF Error: norm([F,P])=      0.100901109268, max([F,P])=      0.017134694412
 orbitals (Q,E):
 ---------------
 A :32...42          ( 2.00    -0.3726)  ( 2.00    -0.3678)  ( 2.00    -0.3620)  ( 2.00    -0.3573)
                     ( 2.00    -0.3470)  ( 2.00    -0.3451)  ( 2.00    -0.3244)  ( 2.00    -0.2712)
                     ( 2.00    -0.2543)  ( 2.00    -0.2166)  ( 0.00    -0.1313)

 CYCLE    7
  SDIIS (wt  0.928): -0.0143  0.0588  0.0054  0.2099  0.2830  0.4572
 A-DIIS (wt  0.072):  0.0000  0.0000  0.0000  0.0000  0.1269  0.8731
  DIIS coefficients: -0.0133  0.0545  0.0050  0.1947  0.2717  0.4873
 SCF Error: norm([F,P])=      0.034262853558, max([F,P])=      0.008174517587
 orbitals (Q,E):
 ---------------
 A :32...42          ( 2.00    -0.3723)  ( 2.00    -0.3674)  ( 2.00    -0.3610)  ( 2.00    -0.3566)
                     ( 2.00    -0.3472)  ( 2.00    -0.3439)  ( 2.00    -0.3236)  ( 2.00    -0.2693)
                     ( 2.00    -0.2528)  ( 2.00    -0.2142)  ( 0.00    -0.1302)

 CYCLE    8
  SDIIS (wt  0.958): -0.0011  0.0179  0.0037  0.0981  0.1596  0.3568  0.3649
 A-DIIS (wt  0.042):  0.0000  0.0000  0.0000  0.0000  0.0000  0.2199  0.7801
  DIIS coefficients: -0.0010  0.0172  0.0036  0.0940  0.1529  0.3510  0.3823
 SCF Error: norm([F,P])=      0.014574516438, max([F,P])=      0.005145221141
 orbitals (Q,E):
 ---------------
 A :32...42          ( 2.00    -0.3722)  ( 2.00    -0.3673)  ( 2.00    -0.3612)  ( 2.00    -0.3567)
                     ( 2.00    -0.3469)  ( 2.00    -0.3442)  ( 2.00    -0.3239)  ( 2.00    -0.2698)
                     ( 2.00    -0.2533)  ( 2.00    -0.2146)  ( 0.00    -0.1309)

 CYCLE    9
  SDIIS (wt  0.988): -0.0036  0.0115 -0.0002  0.0476  0.0832  0.2172  0.2940  0.3503
 A-DIIS (wt  0.012):  0.0000  0.0000  0.0000  0.0000  0.0000  0.0000  0.1688  0.8312
  DIIS coefficients: -0.0035  0.0113 -0.0002  0.0471  0.0822  0.2147  0.2926  0.3559
 SCF Error: norm([F,P])=      0.005589735629, max([F,P])=      0.002146112073
 orbitals (Q,E):
 ---------------
 A :32...42          ( 2.00    -0.3724)  ( 2.00    -0.3675)  ( 2.00    -0.3613)  ( 2.00    -0.3567)
                     ( 2.00    -0.3471)  ( 2.00    -0.3442)  ( 2.00    -0.3239)  ( 2.00    -0.2699)
                     ( 2.00    -0.2533)  ( 2.00    -0.2147)  ( 0.00    -0.1309)

 CYCLE   10
  SDIIS (wt  1.000): -0.0011  0.0037 -0.0001  0.0180  0.0336  0.0945  0.1402  0.2261  0.4850
  DIIS coefficients: -0.0011  0.0037 -0.0001  0.0180  0.0336  0.0945  0.1402  0.2261  0.4850
 SCF Error: norm([F,P])=      0.001160607202, max([F,P])=      0.000351913475
 orbitals (Q,E):
 ---------------
 A :32...42          ( 2.00    -0.3724)  ( 2.00    -0.3675)  ( 2.00    -0.3613)  ( 2.00    -0.3568)
                     ( 2.00    -0.3472)  ( 2.00    -0.3442)  ( 2.00    -0.3239)  ( 2.00    -0.2699)
                     ( 2.00    -0.2533)  ( 2.00    -0.2147)  ( 0.00    -0.1309)

 CYCLE   11
  SDIIS (wt  1.000): -0.0004  0.0012 -0.0002  0.0058  0.0117  0.0350  0.0552  0.1108  0.3472  0.4336
  DIIS coefficients: -0.0004  0.0012 -0.0002  0.0058  0.0117  0.0350  0.0552  0.1108  0.3472  0.4336
 SCF Error: norm([F,P])=      0.000520662372, max([F,P])=      0.000163315271
 orbitals (Q,E):
 ---------------
 A :32...42          ( 2.00    -0.3724)  ( 2.00    -0.3675)  ( 2.00    -0.3613)  ( 2.00    -0.3568)
                     ( 2.00    -0.3471)  ( 2.00    -0.3442)  ( 2.00    -0.3239)  ( 2.00    -0.2699)
                     ( 2.00    -0.2533)  ( 2.00    -0.2147)  ( 0.00    -0.1309)

 CYCLE   12
  SDIIS (wt  1.000):  0.0001 -0.0000  0.0010  0.0025  0.0084  0.0150  0.0414  0.1668  0.3078  0.4570
  DIIS coefficients:  0.0001 -0.0000  0.0010  0.0025  0.0084  0.0150  0.0414  0.1668  0.3078  0.4570
 SCF Error: norm([F,P])=      0.000202216432, max([F,P])=      0.000057904019
 orbitals (Q,E):
 ---------------
 A :32...42          ( 2.00    -0.3724)  ( 2.00    -0.3675)  ( 2.00    -0.3613)  ( 2.00    -0.3568)
                     ( 2.00    -0.3471)  ( 2.00    -0.3442)  ( 2.00    -0.3239)  ( 2.00    -0.2699)
                     ( 2.00    -0.2533)  ( 2.00    -0.2147)  ( 0.00    -0.1309)

 CYCLE   13
  SDIIS (wt  1.000): -0.0000  0.0001  0.0005  0.0019  0.0036  0.0127  0.0514  0.1135  0.2355  0.5808
  DIIS coefficients: -0.0000  0.0001  0.0005  0.0019  0.0036  0.0127  0.0514  0.1135  0.2355  0.5808
 SCF Error: norm([F,P])=      0.000041744776, max([F,P])=      0.000006653685
 orbitals (Q,E):
 ---------------
 A :32...42          ( 2.00    -0.3724)  ( 2.00    -0.3675)  ( 2.00    -0.3613)  ( 2.00    -0.3568)
                     ( 2.00    -0.3471)  ( 2.00    -0.3442)  ( 2.00    -0.3239)  ( 2.00    -0.2699)
                     ( 2.00    -0.2533)  ( 2.00    -0.2147)  ( 0.00    -0.1309)

 CYCLE   14
  SDIIS (wt  1.000):  0.0000  0.0002  0.0006  0.0012  0.0050  0.0217  0.0521  0.1223  0.3624  0.4343
[...]
                                    4.55%     3 S               0.624  0.00     9 F
                                    4.49%     2 S             -23.838  2.00     8 O
                                    3.54%     2 P:z             4.589  0.00     1 C
                                    3.22%     1 P:y            -9.020  1.33     8 O
                                    2.80%     1 P:z            -5.239  0.67     7 C
                                   -2.62%     2 P:x             4.589  0.00     2 C
                                    2.50%     2 P:x             4.589  0.00     6 C
                                    2.48%     1 P:y            11.051  0.00    16 H
                                    2.40%     2 P:y             4.589  0.00     5 C
                                    2.32%     1 P:z            -5.239  0.67     6 C
                                   -2.20%     2 P:y             4.589  0.00     6 C
                                   -1.94%     2 P:z             4.589  0.00     5 C
                                    1.92%     2 S               2.394  0.00    15 H
                                    1.91%     2 S               2.394  0.00    13 H
                                    1.86%     1 P:z            11.051  0.00    13 H
                                    1.75%     1 P:x            -5.239  0.67     3 C
                                   -1.73%     2 P:y             4.589  0.00     4 C
                                   -1.73%     1 P:y            -5.239  0.67     7 C
                                    1.68%     2 P:x             4.589  0.00     4 C
                                    1.32%     1 P:x            -5.239  0.67     6 C
                                    1.18%     1 P:z            -5.239  0.67     1 C
                                   -1.12%     2 P:y             4.589  0.00     1 C
                                   -1.09%     2 P:z             4.589  0.00     6 C
       1.561  0.00    50 A         48.82%     3 S               0.624  0.00     9 F
                                   38.35%     1 S              -6.532  1.00    16 H
                                  -22.68%     2 P:z             4.589  0.00     5 C
                                  -10.37%     2 P:x             4.589  0.00     7 C
                                    9.80%     2 S               2.394  0.00    16 H
                                    9.63%     1 S              -6.532  1.00    13 H
                                   -7.04%     2 P:y             4.589  0.00     4 C
                                    7.02%     1 S              -6.532  1.00    15 H
                                   -6.06%     1 P:x            -5.239  0.67     7 C
                                    5.73%     1 S              -6.532  1.00    12 H
                                    5.61%     3 S               0.624  0.00    10 F
                                    4.99%     2 S               2.394  0.00    13 H
                                    4.74%     1 P:z            -5.239  0.67     2 C
                                    4.55%     1 S              -6.532  1.00    14 H
                                   -3.49%     2 P:y             4.589  0.00     5 C
                                   -3.34%     2 P:x             4.589  0.00     2 C
                                    3.15%     2 P:y             4.589  0.00     6 C
                                    3.13%     2 P:z             4.589  0.00     4 C
                                    2.77%     2 S               2.394  0.00    15 H
                                   -2.54%     2 P:z             4.589  0.00     2 C
                                    2.53%     2 S             -13.620  2.00     1 C
                                    2.07%     3 S              40.869  0.00    16 H
                                    2.01%     1 P:z            -5.239  0.67     5 C
                                   -1.83%     2 P:x             4.589  0.00     3 C
                                   -1.81%     2 P:x             4.589  0.00     6 C
                                   -1.64%     2 S             -13.620  2.00     7 C
                                   -1.54%     3 S              10.158  0.00     7 C
                                    1.52%     1 P:z            -5.239  0.67     3 C
                                    1.47%     2 P:x             4.589  0.00     5 C
                                    1.36%     1 P:x            -5.239  0.67     5 C
                                   -1.30%     1 P:x            -5.239  0.67     3 C
                                   -1.25%     2 P:x            11.654  0.00     9 F
                                   -1.23%     2 P:z             4.589  0.00     1 C
                                    1.19%     1 P:z            -5.239  0.67     7 C
                                    1.19%     2 P:z             4.589  0.00     7 C
                                   -1.09%     2 P:y             4.589  0.00     7 C
       1.811  0.00    51 A         13.48%     1 S              -6.532  1.00    12 H
                                   10.47%     2 S               2.394  0.00    12 H
                                    9.88%     1 P:z            -5.239  0.67     5 C
                                    8.75%     1 P:z            -5.239  0.67     7 C
                                   -6.95%     2 P:z             4.589  0.00     1 C
                                   -6.86%     2 P:z             4.589  0.00     5 C
                                    6.74%     1 P:y            -5.239  0.67     7 C
                                    5.73%     1 S              -6.532  1.00    13 H
                                    5.66%     1 P:x            -5.239  0.67     7 C
                                    5.40%     3 S               0.624  0.00    10 F
                                    5.14%     1 P:z            -5.239  0.67     6 C
                                    4.42%     2 S             -13.620  2.00     5 C
                                    3.98%     1 S              -6.532  1.00    16 H
                                    3.79%     1 P:y           -11.127  1.67    11 F
                                    3.52%     1 P:z            -5.239  0.67     1 C
                                    3.45%     2 S               2.394  0.00    14 H
                                   -3.39%     2 P:x             4.589  0.00     2 C
                                   -3.35%     2 P:y             4.589  0.00     2 C
                                    3.35%     2 P:z             4.589  0.00     2 C
                                    2.88%     1 P:z            -5.239  0.67     2 C
                                   -2.62%     2 P:y             4.589  0.00     3 C
                                    2.49%     2 P:x             4.589  0.00     3 C
                                    2.30%     1 P:y            -9.020  1.33     8 O
                                    2.20%     2 S               2.394  0.00    13 H
                                    2.05%     2 P:x             4.589  0.00     4 C
                                   -1.91%     2 P:y             4.589  0.00     7 C
                                    1.86%     2 P:z             4.589  0.00     7 C
                                    1.85%     1 P:z           -11.127  1.67    10 F
                                   -1.74%     3 S              21.524  0.00     8 O
                                   -1.73%     3 S              10.158  0.00     5 C
                                    1.73%     2 P:x             4.589  0.00     5 C
                                    1.69%     1 P:x            -9.020  1.33     8 O
                                    1.62%     1 P:y           -11.127  1.67    10 F
                                    1.22%     1 D:xz           33.824  0.00     6 C
                                   -1.19%     3 S               0.624  0.00     9 F
                                    1.11%     1 P:z           -11.127  1.67     9 F
                                    1.07%     2 S               2.394  0.00    15 H
                                   -1.04%     1 P:y            -5.239  0.67     2 C
                                   -1.04%     2 P:z             4.589  0.00     3 C



 =======================================================================
 Electrostatic potential at the Nuclei due to electrons and other nuclei
 =======================================================================
  
         Atom                  Potential
         ----                  ---------
     1)   C                  14.73569535
     2)   C                  14.69964540
     3)   C                  14.76966754
     4)   C                  14.76924469
     5)   C                  14.70061092
     6)   O                  22.38586897
     7)   C                  14.73716172
     8)   C                  14.53076754
     9)   F                  26.62196700
    10)   F                  26.61789150
    11)   F                  26.62217930
    12)   H                   1.05902001
    13)   H                   1.07867215
    14)   H                   1.07384093
    15)   H                   1.07409979
    16)   H                   1.08030908
 Mulliken charges used for AMS results%charges...


    =====================
     CALCULATION RESULTS
    =====================

Energy (hartree)            -3.39279669


--------------
Atomic charges
--------------
  Index   Atom    Charge
      1      C    0.1959
      2      C    0.5043
      3      C    0.2271
      4      C    0.2298
      5      C    0.4984
      6      O   -0.5378
      7      C   -0.1025
      8      C    1.2146
      9      F   -0.4096
     10      F   -0.4119
     11      F   -0.4012
     12      H   -0.1693
     13      H   -0.2070
     14      H   -0.2191
     15      H   -0.2189
     16      H   -0.1927


Dipole moment vector    (Debye):     2.56317523    1.84984020   -0.70881055
              magnitude (Debye):     3.23947348


-----------------------
Molecular orbitals info
-----------------------
n orbitals:              341
n spin:                    1

Note: only printing virtual orbitals with
      energy smaller than HOMO + 100. eV

HOMO (eV):              -5.8431
LUMO (eV):              -3.5609
HOMO-LUMO gap (eV):      2.2822

   Index   Energy (eV)    Occupation
     215       93.6986         0.000       
     214       93.2953         0.000       
     213       92.6481         0.000       
     212       92.4993         0.000       
     211       92.2901         0.000       
     210       91.8205         0.000       
     209       91.1340         0.000       
     208       90.6078         0.000       
     207       89.5987         0.000       
     206       89.1507         0.000       
     205       88.9467         0.000       
     204       88.3705         0.000       
     203       88.0450         0.000       
     202       87.0723         0.000       
     201       86.9300         0.000       
     200       85.4505         0.000       
     199       84.7223         0.000       
     198       83.6192         0.000       
     197       82.4539         0.000       
     196       81.2632         0.000       
     195       81.1985         0.000       
     194       80.4123         0.000       
     193       79.7294         0.000       
     192       78.1330         0.000       
     191       77.7646         0.000       
     190       77.3436         0.000       
     189       76.4210         0.000       
     188       75.3979         0.000       
     187       74.9908         0.000       
     186       73.9818         0.000       
     185       72.8905         0.000       
     184       72.3252         0.000       
     183       71.5209         0.000       
     182       71.0161         0.000       
     181       69.6799         0.000       
     180       68.9059         0.000       
     179       67.9168         0.000       
     178       67.7337         0.000       
     177       66.5233         0.000       
     176       66.2739         0.000       
     175       65.0324         0.000       
     174       63.7688         0.000       
     173       63.3387         0.000       
     172       62.7107         0.000       
     171       61.2003         0.000       
     170       60.9920         0.000       
     169       59.8437         0.000       
     168       59.7280         0.000       
     167       59.4507         0.000       
     166       59.1919         0.000       
     165       58.9538         0.000       
     164       56.7010         0.000       
     163       56.5209         0.000       
     162       54.9307         0.000       
     161       54.7551         0.000       
     160       53.9853         0.000       
     159       53.0674         0.000       
     158       52.7175         0.000       
     157       52.3931         0.000       
     156       52.2108         0.000       
     155       51.8501         0.000       
     154       50.3554         0.000       
     153       49.9337         0.000       
     152       48.6905         0.000       
     151       48.3090         0.000       
     150       47.7228         0.000       
     149       47.4888         0.000       
     148       46.0264         0.000       
     147       45.7144         0.000       
     146       44.9008         0.000       
     145       44.5016         0.000       
     144       44.2190         0.000       
     143       43.6265         0.000       
     142       43.1234         0.000       
     141       42.7943         0.000       
     140       41.5745         0.000       
     139       41.1793         0.000       
     138       40.7890         0.000       
     137       40.4301         0.000       
     136       39.6572         0.000       
     135       39.0832         0.000       
     134       37.9412         0.000       
     133       37.4599         0.000       
     132       37.1524         0.000       
     131       36.6127         0.000       
     130       36.0229         0.000       
     129       35.7245         0.000       
     128       35.4397         0.000       
     127       35.1742         0.000       
     126       34.8952         0.000       
     125       34.1694         0.000       
     124       33.2998         0.000       
     123       32.8882         0.000       
     122       32.3524         0.000       
     121       31.8184         0.000       
     120       31.0104         0.000       
     119       30.2299         0.000       
     118       29.5226         0.000       
     117       29.1484         0.000       
     116       28.7312         0.000       
     115       28.5785         0.000       
     114       27.7249         0.000       
     113       26.7707         0.000       
     112       26.7348         0.000       
     111       26.3732         0.000       
     110       25.8612         0.000       
     109       25.4212         0.000       
     108       24.7412         0.000       
     107       24.5450         0.000       
     106       23.7980         0.000       
     105       23.4289         0.000       
     104       22.8805         0.000       
     103       22.5159         0.000       
     102       21.7102         0.000       
     101       21.3127         0.000       
     100       20.9709         0.000       
      99       20.8343         0.000       
      98       20.4905         0.000       
      97       20.0002         0.000       
      96       19.5405         0.000       
      95       19.1923         0.000       
      94       19.0950         0.000       
      93       18.2782         0.000       
      92       17.9583         0.000       
      91       17.5335         0.000       
      90       17.2016         0.000       
      89       16.7288         0.000       
      88       15.4738         0.000       
      87       14.9486         0.000       
      86       14.6581         0.000       
      85       14.5992         0.000       
      84       13.1685         0.000       
      83       12.5291         0.000       
      82       12.3149         0.000       
      81       11.8236         0.000       
      80       11.1405         0.000       
      79       10.5869         0.000       
      78        9.8204         0.000       
      77        9.5933         0.000       
      76        9.3540         0.000       
      75        9.1669         0.000       
      74        8.8807         0.000       
      73        8.4851         0.000       
      72        8.4481         0.000       
      71        8.1336         0.000       
      70        8.0484         0.000       
      69        7.6991         0.000       
      68        7.1782         0.000       
      67        6.9196         0.000       
      66        6.2573         0.000       
      65        5.9214         0.000       
      64        5.7943         0.000       
      63        5.2316         0.000       
      62        5.1899         0.000       
      61        4.7333         0.000       
      60        4.4215         0.000       
      59        4.4075         0.000       
      58        3.7782         0.000       
      57        3.6974         0.000       
      56        3.1093         0.000       
      55        2.9974         0.000       
      54        2.7754         0.000       
      53        2.5845         0.000       
      52        2.1966         0.000       
      51        1.8112         0.000       
      50        1.5613         0.000       
      49        1.1186         0.000       
      48        1.0322         0.000       
      47        0.8343         0.000       
      46        0.4741         0.000       
      45        0.2960         0.000       
      44       -0.2391         0.000       
      43       -1.5736         0.000       
      42       -3.5609         0.000 < LUMO
      41       -5.8431         2.000 < HOMO
      40       -6.8930         2.000       
      39       -7.3435         2.000       
      38       -8.8133         2.000       
      37       -9.3662         2.000       
      36       -9.4462         2.000       
      35       -9.7077         2.000       
      34       -9.8305         2.000       
      33      -10.0001         2.000       
      32      -10.1328         2.000       
      31      -10.3375         2.000       
      30      -10.7809         2.000       
      29      -10.9835         2.000       
      28      -11.0947         2.000       
      27      -11.6271         2.000       
      26      -12.7049         2.000       
      25      -13.7020         2.000       
      24      -14.1090         2.000       
      23      -14.2373         2.000       
      22      -14.3601         2.000       
      21      -15.1246         2.000       
      20      -15.2827         2.000       
      19      -17.4166         2.000       
      18      -18.8450         2.000       
      17      -19.8721         2.000       
      16      -20.7841         2.000       
      15      -26.7274         2.000       
      14      -30.3125         2.000       
      13      -30.5039         2.000       
      12      -32.7492         2.000       
      11     -270.5934         2.000       
      10     -270.6125         2.000       
       9     -271.4032         2.000       
       8     -271.5002         2.000       
       7     -272.3163         2.000       
       6     -272.3349         2.000       
       5     -276.8005         2.000       
       4     -511.8926         2.000       
       3     -662.1881         2.000       
       2     -662.1928         2.000       
       1     -662.2935         2.000       

AMS application finished. Exiting.
NORMAL TERMINATION
     Total cpu time:      70.36
  Total system time:       0.72
 Total elapsed time:      71.56
NORMAL TERMINATION
