
 *******************************************************************************
 *                                                                             *
 *  --------------------------------                                           *
 *   Amsterdam Modeling Suite (AMS)              2026.103                      *
 *  --------------------------------                                           *
 *                                               r260501 2026-05-01 873454b5   *
 *                                                                             *
 *                                                                             *
 *                              =================                              *
 *                              |               |                              *
 *                              |     A M S     |                              *
 *                              |               |                              *
 *                              =================                              *
 *                                                                             *
 *                                                                             *
 *   Online information and documentation:  https://www.scm.com/support/       *
 *   E-mail:  support@scm.com   info@scm.com                                   *
 *                                                                             *
 *   Scientific publications using AMS results must be properly referenced     *
 *   See the User Manuals (or the web site) for recommended citations          *
 *   The terms and conditions of the End User License Agreement apply to       *
 *   the use of AMS, https://www.scm.com/license-terms/                        *
 *                                                                             *
 **********************  x86_64_linux_intel / intelmpi  ************************
 
 Licensed to: Jong-June Jeon / University of Seoul 2026-06-02 13:44:15
 SCM User ID: u30731
  
 AMS 2026.103  RunTime: Jun04-2026 10:21:27  ShM Nodes: 1  Procs: 1

 AMS jobname: c3_eda
 AMS jobid  : 422046714

 Start   directory: /gpfs/home1/yeseo1ee/projects/eda-asm-prediction/ADF_800/adf_outputs/batch_006/qmrxn20_sn2_B_C_D_A_B_B/
 Results directory: /gpfs/home1/yeseo1ee/projects/eda-asm-prediction/ADF_800/adf_outputs/batch_006/qmrxn20_sn2_B_C_D_A_B_B/c3_eda.results/
 Scratch directory: /tmp/amstmp_c3_eda_kid0.422046714/

 RNG seed: 179082130 -980987245 92925705 -1721447723 779939043 -1661814137 -623711303 -2046791074



                      ************************************************************************
                      *  ADF 2026.103  RunTime: Jun04-2026 10:21:27  ShM Nodes: 1  Procs: 1  *
                      ************************************************************************
  

       ****************************
       * SINGLE POINT CALCULATION *
       ****************************

--------
Geometry
--------
Formula: C4H5ClFN2O2
Atoms
  Index Symbol   x (angstrom)   y (angstrom)   z (angstrom)
      1      F     2.32031562    -0.06625733     0.37176880 adf.f=fA
      2      C     0.41289767    -0.03170723    -0.02456777 adf.f=fB
      3      H     1.47650084     1.71967043    -0.44552301 adf.f=fB
      4     Cl    -1.66919852    -0.28464876    -0.43374092 adf.f=fB
      5      C     0.48333071     1.47919625    -0.07733730 adf.f=fB
      6      H    -0.25841349     1.84586706    -0.78634913 adf.f=fB
      7      N     0.86889345    -0.78546925    -1.23166822 adf.f=fB
      8      O     1.08378575    -0.11706312    -2.23511952 adf.f=fB
      9      O     0.95756869    -2.00026057    -1.14186890 adf.f=fB
     10      C     0.39806304    -0.77531325     1.21089234 adf.f=fB
     11      N     0.27866371    -1.32714835     2.24261438 adf.f=fB
     12      C     0.26809988     2.08025762     1.30286030 adf.f=fB
     13      H    -0.70729926     1.80374584     1.70935520 adf.f=fB
     14      H     1.04722883     1.72423777     1.97772980 adf.f=fB
     15      H     0.32214308     3.17159290     1.24966394 adf.f=fB

Total System Charge             -1.00000


----------------
ADF Engine Input
----------------
 
   Basis
     Type TZ2P
     Core None
   End
   XC
     GGA BLYP
     Dispersion GRIMME3 BJDAMP
   End
   Symmetry NOSYM
   NumericalQuality Normal
   Unrestricted No
   SCF
     Iterations 200
     Converge 1.0e-6
   End
   fragments
     fA c1_fragA_ts.results/adf.rkf
     fB c2_fragB_ts.results/adf.rkf
   end
   etsnocv
     enocv 0.05
     ekmin 0.5
   end
   print etslowdin
   Save TAPE21
 

 Title: *** (NO TITLE) ***

 *** adf ***



 ===========================
 A T T A C H E D   F I L E S
 ===========================
  



 ===============================
 M O D E L   P A R A M E T E R S
 ===============================
  
 DENSITY FUNCTIONAL POTENTIAL (scf)
    LDA:                               Exchange only                           == Not Default ==
    Gradient Corrections:              Becke88 LYP                             == Not Default ==

 SPIN  (restricted / unrestr.)
    Molecule:                          Restricted                               
    Fragments:                         Restricted                               

 OTHER ASPECTS
    Relativistic Corrections:          scalar (ZORA,MAPA)                       

    Nuclear Charge Density Model:      Point Charge Nuclei                      
    Core Treatment:                    Frozen Orbital(s)                        

    Hyperfine or Zeeman Interaction:   ---                                      

 Settings for Grimme D3 dispersion correction

      damping                        BJ
      s6                          1.000
      s8                          2.700
      a1                          0.430
      a2                          4.236

 Other (technical) parameters

      alpha                      14.000
      version                         4
 


 Fragment File(s)
 ----------------
 fA:
         file : c1_fragA_ts.results/adf.rkf
         jobid: 612564861
         title: *** adf ***
 fB:
         file : c2_fragB_ts.results/adf.rkf
         jobid: 1974640383
         title: *** adf ***



 ===============
 G E O M E T R Y  ***  3D  Molecule  ***
 ===============
  

 ATOMS
 =====                            X Y Z                    CHARGE
                                (Angstrom)             Nucl     +Core       At.Mass
                       --------------------------    ----------------       -------
    1  F               2.3203   -0.0663    0.3718      9.00      9.00       18.9984
    2  C               0.4129   -0.0317   -0.0246      6.00      6.00       12.0000
    3  H               1.4765    1.7197   -0.4455      1.00      1.00        1.0078
    4  Cl             -1.6692   -0.2846   -0.4337     17.00     17.00       34.9689
    5  C               0.4833    1.4792   -0.0773      6.00      6.00       12.0000
    6  H              -0.2584    1.8459   -0.7863      1.00      1.00        1.0078
    7  N               0.8689   -0.7855   -1.2317      7.00      7.00       14.0031
    8  O               1.0838   -0.1171   -2.2351      8.00      8.00       15.9949
    9  O               0.9576   -2.0003   -1.1419      8.00      8.00       15.9949
   10  C               0.3981   -0.7753    1.2109      6.00      6.00       12.0000
   11  N               0.2787   -1.3271    2.2426      7.00      7.00       14.0031
   12  C               0.2681    2.0803    1.3029      6.00      6.00       12.0000
   13  H              -0.7073    1.8037    1.7094      1.00      1.00        1.0078
   14  H               1.0472    1.7242    1.9777      1.00      1.00        1.0078
   15  H               0.3221    3.1716    1.2497      1.00      1.00        1.0078


 FRAGMENTS
 =========                                     Atoms in this Fragment     Cart. coord.s (Angstrom)
                                               -------------------------------------------------------
    1  fA                                                1  F            2.3203   -0.0663    0.3718
    2  fB                                                2  C            0.4129   -0.0317   -0.0246
                                                         5  C            0.4833    1.4792   -0.0773
                                                        10  C            0.3981   -0.7753    1.2109
                                                        12  C            0.2681    2.0803    1.3029
                                                         3  H            1.4765    1.7197   -0.4455
                                                         6  H           -0.2584    1.8459   -0.7863
                                                        13  H           -0.7073    1.8037    1.7094
                                                        14  H            1.0472    1.7242    1.9777
                                                        15  H            0.3221    3.1716    1.2497
                                                         4  Cl          -1.6692   -0.2846   -0.4337
                                                         7  N            0.8689   -0.7855   -1.2317
                                                        11  N            0.2787   -1.3271    2.2426
                                                         8  O            1.0838   -0.1171   -2.2351
                                                         9  O            0.9576   -2.0003   -1.1419


 Interatomic Distance Matrix (Angstrom)
 --------------------------------------

   1)     0.000
   2)     1.948   0.000
   3)     2.138   2.092   0.000
   4)     4.076   2.137   3.730   0.000
   5)     2.442   1.513   1.086   2.806   0.000
   6)     3.413   2.135   1.773   2.579   1.090   0.000
   7)     2.279   1.494   2.695   2.707   2.571   2.897   0.000
   8)     2.886   2.312   2.594   3.294   2.750   2.785   1.225   0.000
   9)     2.809   2.328   3.820   3.216   3.669   4.049   1.221   2.181   0.000
  10)     2.214   1.442   3.183   2.687   2.598   3.360   2.488   3.575   2.711   0.000
  11)     3.043   2.615   4.236   3.470   3.647   4.419   3.565   4.708   3.517   1.176
          0.000
  12)     3.112   2.499   2.156   3.516   1.521   2.167   3.873   4.244   4.807   2.860
          3.535   0.000
  13)     3.802   2.762   3.069   3.143   2.171   2.536   4.224   4.739   5.037   2.850
          3.326   1.092   0.000
  14)     2.721   2.738   2.461   4.151   2.145   3.059   4.078   4.598   4.859   2.694
          3.158   1.091   1.777   0.000
  15)     3.905   3.449   2.513   4.330   2.157   2.498   4.703   4.852   5.733   3.948
          4.607   1.094   1.773   1.775   0.000

 Min. Distance =    1.0862
 Max. Distance =    5.7333



 =====================================
 S Y M M E T R Y ,   E L E C T R O N S
 =====================================
  
 Symmetry: NOSYM

 Irreducible Representations, including subspecies
 -------------------------------------------------
 A


 Configuration of Valence Electrons
 ==================================
 ( determined in the SCF procedure )

 Total:   86

 Net Charge: -1 (Nuclei minus Electrons)

 Aufbau principle for MO occupations will be applied through SCF cycle no.     100
 Thereafter, the program will assign electrons to MOs that are spatially
 similar to the occupied MOs in a "reference" cycle ("KeepOrbitals").
 The reference cycle is always the PREVIOUS cycle: it will evolve with
 the SCF procedure.
 ***************************************************************************************************



                                      ****************************************
                                      *  B U I L D : (Fragments, Functions)  *
                                      ****************************************
  

 The individual fragments are copies of the corresponding 'Master' fragments defined on the fragment files.
 However, they may have been rotated (and translated) with respect to the Master. The local coordinate axes
 of each fragment (which define for instance the spatial orientation in the current molecule of a fragment
 P:x orbital) are not necessarily those of the molecule.
 The local frame (if different from the molecular one) is printed to enable an interpretation of the expan-
 sion of an MO in Fragment Orbitals.



                                              ************************
                                              *  Fragment Type : fA  *
                                              ************************
  

 Fragment no.    1   (in the list of all fragments)
 -----------------
 The local coordinate frame is identical to the molecular frame.

 Check Atomic Coordinates:

                  Master (on file)          After Computed Tranformation               As specified on Input
           ----------------------------     ----------------------------     ---------------------------------
     1)     2.32032  -0.06626   0.37177      2.32032  -0.06626   0.37177       1   2.32032  -0.06626   0.37177



                                              ************************
                                              *  Fragment Type : fB  *
                                              ************************
  

 Fragment no.    2   (in the list of all fragments)
 -----------------
 The local coordinate frame is identical to the molecular frame.

 Check Atomic Coordinates:

                  Master (on file)          After Computed Tranformation               As specified on Input
           ----------------------------     ----------------------------     ---------------------------------
     1)     0.41290  -0.03171  -0.02457      0.41290  -0.03171  -0.02457       2   0.41290  -0.03171  -0.02457
     2)     0.48333   1.47920  -0.07734      0.48333   1.47920  -0.07734       5   0.48333   1.47920  -0.07734
     3)     0.39806  -0.77531   1.21089      0.39806  -0.77531   1.21089      10   0.39806  -0.77531   1.21089
     4)     0.26810   2.08026   1.30286      0.26810   2.08026   1.30286      12   0.26810   2.08026   1.30286
     5)     1.47650   1.71967  -0.44552      1.47650   1.71967  -0.44552       3   1.47650   1.71967  -0.44552
     6)    -0.25841   1.84587  -0.78635     -0.25841   1.84587  -0.78635       6  -0.25841   1.84587  -0.78635
     7)    -0.70730   1.80375   1.70936     -0.70730   1.80375   1.70936      13  -0.70730   1.80375   1.70936
     8)     1.04723   1.72424   1.97773      1.04723   1.72424   1.97773      14   1.04723   1.72424   1.97773
     9)     0.32214   3.17159   1.24966      0.32214   3.17159   1.24966      15   0.32214   3.17159   1.24966
    10)    -1.66920  -0.28465  -0.43374     -1.66920  -0.28465  -0.43374       4  -1.66920  -0.28465  -0.43374
    11)     0.86889  -0.78547  -1.23167      0.86889  -0.78547  -1.23167       7   0.86889  -0.78547  -1.23167
    12)     0.27866  -1.32715   2.24261      0.27866  -1.32715   2.24261      11   0.27866  -1.32715   2.24261
    13)     1.08379  -0.11706  -2.23512      1.08379  -0.11706  -2.23512       8   1.08379  -0.11706  -2.23512
    14)     0.95757  -2.00026  -1.14187      0.95757  -2.00026  -1.14187       9   0.95757  -2.00026  -1.14187



 =======
 S F O s  ***  (Symmetrized Fragment Orbitals)  ***
 =======
  
 SFOs are linear combinations of (valence) Fragment Orbitals (FOs), such that the SFOs transform as the
 irreducible representations of the (molecular) symmetry group. Each SFO is therefore characterized by
 an irrep of the molecule and by a few (or only one) generating FOs.
 The SFOs constitute a symmetry-adapted basis for the Fock matrix. The MO eigenvector coefficients in
 this basis provide a direct interpretation of the MOs in terms of Frontier Orbital Theory.

 The SFOs are combined with auxiliary Core Functions (CFs) to ensure orthogonalization on the (frozen)
 Core Orbitals (COs). The Core-orthogonalized SFOs (CSFOs) constitute the true Fock basis.

 The FOs, and hence also the (C)SFOs are combinations of the elementary basis functions (BAS). The basis
 functions that participate in the description of the SFOs depend on the irrep. The indices of the
 involved functions are printed below for each irrep.
 (The complete list of primitive basis functions is printed in another section)

 Total nr. of (C)SFOs (summation over all irreps) :   323

 NOTE: a (C)SFO that is defined as a combination of more than one FO is usually NOT normalized.



                                       === A ===
 Nr. of SFOs :  323
 Cartesian basis functions that participate in this irrep (total number =   368) :
      1     2     3     4     5     6     9    12     7    10
     13     8    11    14    15    16    17    18    19    20
     21    22    23    24    25    26    27    28    29    30
     31    32    33    34    35    36    39    42    37    40
     43    38    41    44    45    46    47    48    49    50
     51    52    53    54    55    56    57    58    59    60
     61    62    63    64    65    66    69    72    67    70
     73    68    71    74    75    76    77    78    79    80
     81    82    83    84    85    86    87    88    89    90
     91    92    93    94    95    96    99   102    97   100
    103    98   101   104   105   106   107   108   109   110
    111   112   113   114   115   116   117   118   119   120
    121   122   123   124   125   126   129   132   127   130
    133   128   131   134   135   136   137   138   139   140
    141   142   143   144   145   146   147   148   149   150
    151   152   153   154   155   156   157   158   159   160
    161   162   163   164   165   166   167   168   169   170
    171   172   173   174   175   176   177   178   179   180
    181   182   183   184   185   186   187   188   189   190
    191   192   193   194   195   196   197   198   199   200
    201   202   203   204   205   206   207   208   209   210
    211   212   213   214   221   222   223   215   218   224
    227   230   216   219   225   228   231   217   220   226
    229   232   233   234   235   236   237   238   239   240
    241   242   243   244   245   246   247   248   249   250
    251   252   253   254   257   260   255   258   261   256
    259   262   263   264   265   266   267   268   269   270
    271   272   273   274   275   276   277   278   279   280
    281   282   283   284   287   290   285   288   291   286
    289   292   293   294   295   296   297   298   299   300
    301   302   303   304   305   306   307   308   309   310
    311   312   313   314   317   320   315   318   321   316
    319   322   323   324   325   326   327   328   329   330
    331   332   333   334   335   336   337   338   339   340
    341   342   343   344   347   350   345   348   351   346
    349   352   353   354   355   356   357   358   359   360
    361   362   363   364   365   366   367   368

    SFO  (index         Fragment          Generating    Expansion in Fragment Orbitals
  indx  incl.CFs)   Occup   Orb.Energy   FragmentType  Coeff.   Orbital     on Fragment
 --------------------------------------------------------------------------------------
     1       1      2.000     -23.816 au  fA            1.00      1 A               1
                        (    -648.061 eV)
     2       2      2.000      -0.558 au  fA            1.00      2 A               1
                        (     -15.175 eV)
     3       3      2.000       0.108 au  fA            1.00      3 A               1
                        (       2.943 eV)
     4       4      2.000       0.108 au  fA            1.00      4 A               1
                        (       2.943 eV)
     5       5      2.000       0.108 au  fA            1.00      5 A               1
                        (       2.943 eV)
     6       6       --         0.286 au  fA            1.00      6 A               1
                        (       7.775 eV)
     7       7       --         0.812 au  fA            1.00      7 A               1
                        (      22.094 eV)
     8       8       --         0.812 au  fA            1.00      8 A               1
                        (      22.094 eV)
     9       9       --         0.812 au  fA            1.00      9 A               1
                        (      22.094 eV)
    10      10       --         1.565 au  fA            1.00     10 A               1
                        (      42.594 eV)
    11      11       --         1.565 au  fA            1.00     11 A               1
                        (      42.594 eV)
    12      12       --         1.565 au  fA            1.00     12 A               1
                        (      42.594 eV)
    13      13       --         1.565 au  fA            1.00     13 A               1
                        (      42.594 eV)
    14      14       --         1.565 au  fA            1.00     14 A               1
                        (      42.594 eV)
    15      15       --         2.036 au  fA            1.00     15 A               1
                        (      55.390 eV)
    16      16       --         3.895 au  fA            1.00     16 A               1
                        (     106.000 eV)
    17      17       --         3.895 au  fA            1.00     17 A               1
                        (     106.000 eV)
    18      18       --         3.895 au  fA            1.00     18 A               1
                        (     106.000 eV)
    19      19       --         3.895 au  fA            1.00     19 A               1
                        (     106.000 eV)
    20      20       --         3.895 au  fA            1.00     20 A               1
                        (     106.000 eV)
    21      21       --         3.895 au  fA            1.00     21 A               1
                        (     106.000 eV)
    22      22       --         3.895 au  fA            1.00     22 A               1
                        (     106.000 eV)
    23      23       --         5.080 au  fA            1.00     23 A               1
                        (     138.227 eV)
    24      24       --         5.080 au  fA            1.00     24 A               1
                        (     138.227 eV)
    25      25       --         5.080 au  fA            1.00     25 A               1
                        (     138.227 eV)
    26      26       --        48.370 au  fA            1.00     26 A               1
                        (    1316.209 eV)
    27      27      2.000    -101.101 au  fB            1.00      1 A               2
                        (   -2751.091 eV)
    28      28      2.000     -18.870 au  fB            1.00      2 A               2
                        (    -513.475 eV)
    29      29      2.000     -18.869 au  fB            1.00      3 A               2
                        (    -513.456 eV)
    30      30      2.000     -14.291 au  fB            1.00      4 A               2
                        (    -388.878 eV)
    31      31      2.000     -14.073 au  fB            1.00      5 A               2
                        (    -382.934 eV)
    32      32      2.000     -10.111 au  fB            1.00      6 A               2
                        (    -275.133 eV)
    33      33      2.000     -10.011 au  fB            1.00      7 A               2
                        (    -272.422 eV)
    34      34      2.000      -9.983 au  fB            1.00      8 A               2
                        (    -271.657 eV)
    35      35      2.000      -9.948 au  fB            1.00      9 A               2
                        (    -270.697 eV)
    36      36      2.000      -9.254 au  fB            1.00     10 A               2
                        (    -251.803 eV)
    37      37      2.000      -7.022 au  fB            1.00     11 A               2
                        (    -191.082 eV)
    38      38      2.000      -7.010 au  fB            1.00     12 A               2
                        (    -190.754 eV)
    39      39      2.000      -7.010 au  fB            1.00     13 A               2
                        (    -190.746 eV)
    40      40      2.000      -1.176 au  fB            1.00     14 A               2
                        (     -32.005 eV)
    41      41      2.000      -1.014 au  fB            1.00     15 A               2
                        (     -27.587 eV)
    42      42      2.000      -0.873 au  fB            1.00     16 A               2
                        (     -23.748 eV)
    43      43      2.000      -0.830 au  fB            1.00     17 A               2
                        (     -22.577 eV)
    44      44      2.000      -0.745 au  fB            1.00     18 A               2
                        (     -20.280 eV)
    45      45      2.000      -0.730 au  fB            1.00     19 A               2
                        (     -19.857 eV)
    46      46      2.000      -0.639 au  fB            1.00     20 A               2
                        (     -17.392 eV)
    47      47      2.000      -0.615 au  fB            1.00     21 A               2
                        (     -16.732 eV)
    48      48      2.000      -0.539 au  fB            1.00     22 A               2
                        (     -14.666 eV)
    49      49      2.000      -0.531 au  fB            1.00     23 A               2
                        (     -14.454 eV)
    50      50      2.000      -0.500 au  fB            1.00     24 A               2
                        (     -13.594 eV)
    51      51      2.000      -0.468 au  fB            1.00     25 A               2
                        (     -12.740 eV)
    52      52      2.000      -0.461 au  fB            1.00     26 A               2
                        (     -12.555 eV)
    53      53      2.000      -0.397 au  fB            1.00     27 A               2
                        (     -10.814 eV)
    54      54      2.000      -0.387 au  fB            1.00     28 A               2
                        (     -10.520 eV)
    55      55      2.000      -0.370 au  fB            1.00     29 A               2
                        (     -10.061 eV)
    56      56      2.000      -0.362 au  fB            1.00     30 A               2
                        (      -9.847 eV)
    57      57      2.000      -0.355 au  fB            1.00     31 A               2
                        (      -9.664 eV)
    58      58      2.000      -0.347 au  fB            1.00     32 A               2
                        (      -9.431 eV)
    59      59      2.000      -0.324 au  fB            1.00     33 A               2
                        (      -8.804 eV)
    60      60      2.000      -0.318 au  fB            1.00     34 A               2
                        (      -8.666 eV)
    61      61      2.000      -0.305 au  fB            1.00     35 A               2
                        (      -8.308 eV)
    62      62      2.000      -0.291 au  fB            1.00     36 A               2
                        (      -7.931 eV)
    63      63      2.000      -0.288 au  fB            1.00     37 A               2
                        (      -7.828 eV)
    64      64      2.000      -0.285 au  fB            1.00     38 A               2
                        (      -7.742 eV)
    65      65       --        -0.193 au  fB            1.00     39 A               2
                        (      -5.246 eV)
    66      66       --        -0.125 au  fB            1.00     40 A               2
                        (      -3.402 eV)
    67      67       --        -0.077 au  fB            1.00     41 A               2
                        (      -2.082 eV)
    68      68       --        -0.022 au  fB            1.00     42 A               2
                        (      -0.591 eV)
    69      69       --        -0.009 au  fB            1.00     43 A               2
                        (      -0.250 eV)
    70      70       --         0.014 au  fB            1.00     44 A               2
                        (       0.372 eV)
    71      71       --         0.021 au  fB            1.00     45 A               2
                        (       0.561 eV)
    72      72       --         0.030 au  fB            1.00     46 A               2
                        (       0.828 eV)
    73      73       --         0.043 au  fB            1.00     47 A               2
                        (       1.170 eV)
    74      74       --         0.059 au  fB            1.00     48 A               2
                        (       1.611 eV)
    75      75       --         0.073 au  fB            1.00     49 A               2
                        (       1.979 eV)
    76      76       --         0.107 au  fB            1.00     50 A               2
                        (       2.913 eV)
    77      77       --         0.117 au  fB            1.00     51 A               2
                        (       3.180 eV)
    78      78       --         0.125 au  fB            1.00     52 A               2
                        (       3.406 eV)
    79      79       --         0.137 au  fB            1.00     53 A               2
                        (       3.726 eV)
    80      80       --         0.144 au  fB            1.00     54 A               2
                        (       3.929 eV)
    81      81       --         0.152 au  fB            1.00     55 A               2
                        (       4.147 eV)
    82      82       --         0.171 au  fB            1.00     56 A               2
                        (       4.661 eV)
    83      83       --         0.198 au  fB            1.00     57 A               2
                        (       5.392 eV)
    84      84       --         0.207 au  fB            1.00     58 A               2
                        (       5.638 eV)
    85      85       --         0.223 au  fB            1.00     59 A               2
                        (       6.068 eV)
    86      86       --         0.226 au  fB            1.00     60 A               2
                        (       6.138 eV)
    87      87       --         0.242 au  fB            1.00     61 A               2
                        (       6.580 eV)
    88      88       --         0.255 au  fB            1.00     62 A               2
                        (       6.937 eV)
    89      89       --         0.259 au  fB            1.00     63 A               2
                        (       7.034 eV)
    90      90       --         0.267 au  fB            1.00     64 A               2
                        (       7.255 eV)
    91      91       --         0.282 au  fB            1.00     65 A               2
                        (       7.682 eV)
    92      92       --         0.294 au  fB            1.00     66 A               2
                        (       7.992 eV)
    93      93       --         0.301 au  fB            1.00     67 A               2
                        (       8.199 eV)
    94      94       --         0.324 au  fB            1.00     68 A               2
                        (       8.806 eV)
    95      95       --         0.336 au  fB            1.00     69 A               2
                        (       9.142 eV)
    96      96       --         0.348 au  fB            1.00     70 A               2
                        (       9.463 eV)
    97      97       --         0.355 au  fB            1.00     71 A               2
                        (       9.664 eV)
    98      98       --         0.364 au  fB            1.00     72 A               2
                        (       9.908 eV)
    99      99       --         0.379 au  fB            1.00     73 A               2
                        (      10.323 eV)
   100     100       --         0.381 au  fB            1.00     74 A               2
                        (      10.364 eV)
   101     101       --         0.398 au  fB            1.00     75 A               2
                        (      10.824 eV)
   102     102       --         0.405 au  fB            1.00     76 A               2
                        (      11.024 eV)
   103     103       --         0.424 au  fB            1.00     77 A               2
                        (      11.539 eV)
   104     104       --         0.439 au  fB            1.00     78 A               2
                        (      11.946 eV)
   105     105       --         0.453 au  fB            1.00     79 A               2
                        (      12.334 eV)
   106     106       --         0.460 au  fB            1.00     80 A               2
                        (      12.516 eV)
   107     107       --         0.470 au  fB            1.00     81 A               2
                        (      12.796 eV)
   108     108       --         0.493 au  fB            1.00     82 A               2
                        (      13.411 eV)
   109     109       --         0.528 au  fB            1.00     83 A               2
                        (      14.380 eV)
   110     110       --         0.551 au  fB            1.00     84 A               2
                        (      14.985 eV)
   111     111       --         0.557 au  fB            1.00     85 A               2
                        (      15.167 eV)
   112     112       --         0.589 au  fB            1.00     86 A               2
                        (      16.033 eV)
   113     113       --         0.632 au  fB            1.00     87 A               2
                        (      17.203 eV)
   114     114       --         0.649 au  fB            1.00     88 A               2
                        (      17.665 eV)
   115     115       --         0.663 au  fB            1.00     89 A               2
                        (      18.052 eV)
   116     116       --         0.707 au  fB            1.00     90 A               2
                        (      19.242 eV)
   117     117       --         0.721 au  fB            1.00     91 A               2
                        (      19.613 eV)
   118     118       --         0.757 au  fB            1.00     92 A               2
                        (      20.587 eV)
   119     119       --         0.771 au  fB            1.00     93 A               2
                        (      20.978 eV)
   120     120       --         0.787 au  fB            1.00     94 A               2
                        (      21.426 eV)
   121     121       --         0.815 au  fB            1.00     95 A               2
                        (      22.173 eV)
   122     122       --         0.824 au  fB            1.00     96 A               2
                        (      22.425 eV)
   123     123       --         0.843 au  fB            1.00     97 A               2
                        (      22.949 eV)
   124     124       --         0.887 au  fB            1.00     98 A               2
                        (      24.147 eV)
   125     125       --         0.925 au  fB            1.00     99 A               2
                        (      25.174 eV)
   126     126       --         0.936 au  fB            1.00    100 A               2
                        (      25.483 eV)
   127     127       --         0.978 au  fB            1.00    101 A               2
                        (      26.611 eV)
   128     128       --         1.000 au  fB            1.00    102 A               2
                        (      27.218 eV)
   129     129       --         1.012 au  fB            1.00    103 A               2
                        (      27.546 eV)
   130     130       --         1.019 au  fB            1.00    104 A               2
                        (      27.722 eV)
   131     131       --         1.036 au  fB            1.00    105 A               2
                        (      28.185 eV)
   132     132       --         1.065 au  fB            1.00    106 A               2
                        (      28.983 eV)
   133     133       --         1.073 au  fB            1.00    107 A               2
                        (      29.196 eV)
   134     134       --         1.096 au  fB            1.00    108 A               2
                        (      29.823 eV)
   135     135       --         1.137 au  fB            1.00    109 A               2
                        (      30.931 eV)
   136     136       --         1.157 au  fB            1.00    110 A               2
                        (      31.491 eV)
   137     137       --         1.175 au  fB            1.00    111 A               2
                        (      31.970 eV)
   138     138       --         1.192 au  fB            1.00    112 A               2
                        (      32.431 eV)
   139     139       --         1.203 au  fB            1.00    113 A               2
                        (      32.737 eV)
   140     140       --         1.211 au  fB            1.00    114 A               2
                        (      32.949 eV)
   141     141       --         1.225 au  fB            1.00    115 A               2
                        (      33.346 eV)
   142     142       --         1.230 au  fB            1.00    116 A               2
                        (      33.473 eV)
   143     143       --         1.248 au  fB            1.00    117 A               2
                        (      33.955 eV)
   144     144       --         1.258 au  fB            1.00    118 A               2
                        (      34.223 eV)
   145     145       --         1.269 au  fB            1.00    119 A               2
                        (      34.528 eV)
   146     146       --         1.280 au  fB            1.00    120 A               2
                        (      34.833 eV)
   147     147       --         1.290 au  fB            1.00    121 A               2
                        (      35.105 eV)
   148     148       --         1.304 au  fB            1.00    122 A               2
                        (      35.475 eV)
   149     149       --         1.355 au  fB            1.00    123 A               2
                        (      36.867 eV)
   150     150       --         1.358 au  fB            1.00    124 A               2
                        (      36.958 eV)
   151     151       --         1.375 au  fB            1.00    125 A               2
                        (      37.411 eV)
   152     152       --         1.396 au  fB            1.00    126 A               2
                        (      37.985 eV)
   153     153       --         1.431 au  fB            1.00    127 A               2
                        (      38.934 eV)
   154     154       --         1.458 au  fB            1.00    128 A               2
                        (      39.676 eV)
   155     155       --         1.475 au  fB            1.00    129 A               2
                        (      40.138 eV)
   156     156       --         1.518 au  fB            1.00    130 A               2
                        (      41.310 eV)
   157     157       --         1.536 au  fB            1.00    131 A               2
                        (      41.789 eV)
   158     158       --         1.559 au  fB            1.00    132 A               2
                        (      42.411 eV)
   159     159       --         1.568 au  fB            1.00    133 A               2
                        (      42.659 eV)
   160     160       --         1.599 au  fB            1.00    134 A               2
                        (      43.518 eV)
   161     161       --         1.616 au  fB            1.00    135 A               2
                        (      43.985 eV)
   162     162       --         1.657 au  fB            1.00    136 A               2
                        (      45.080 eV)
   163     163       --         1.701 au  fB            1.00    137 A               2
                        (      46.278 eV)
   164     164       --         1.714 au  fB            1.00    138 A               2
                        (      46.650 eV)
   165     165       --         1.756 au  fB            1.00    139 A               2
                        (      47.789 eV)
   166     166       --         1.767 au  fB            1.00    140 A               2
                        (      48.083 eV)
   167     167       --         1.782 au  fB            1.00    141 A               2
                        (      48.500 eV)
   168     168       --         1.813 au  fB            1.00    142 A               2
                        (      49.348 eV)
   169     169       --         1.847 au  fB            1.00    143 A               2
                        (      50.251 eV)
   170     170       --         1.879 au  fB            1.00    144 A               2
                        (      51.140 eV)
   171     171       --         1.900 au  fB            1.00    145 A               2
                        (      51.699 eV)
   172     172       --         1.941 au  fB            1.00    146 A               2
                        (      52.829 eV)
   173     173       --         1.969 au  fB            1.00    147 A               2
                        (      53.588 eV)
   174     174       --         1.977 au  fB            1.00    148 A               2
                        (      53.790 eV)
   175     175       --         2.026 au  fB            1.00    149 A               2
                        (      55.138 eV)
   176     176       --         2.041 au  fB            1.00    150 A               2
                        (      55.529 eV)
   177     177       --         2.063 au  fB            1.00    151 A               2
                        (      56.127 eV)
   178     178       --         2.113 au  fB            1.00    152 A               2
                        (      57.499 eV)
   179     179       --         2.132 au  fB            1.00    153 A               2
                        (      58.006 eV)
   180     180       --         2.160 au  fB            1.00    154 A               2
                        (      58.783 eV)
   181     181       --         2.205 au  fB            1.00    155 A               2
                        (      60.000 eV)
   182     182       --         2.243 au  fB            1.00    156 A               2
                        (      61.027 eV)
   183     183       --         2.264 au  fB            1.00    157 A               2
                        (      61.596 eV)
   184     184       --         2.293 au  fB            1.00    158 A               2
                        (      62.382 eV)
   185     185       --         2.310 au  fB            1.00    159 A               2
                        (      62.855 eV)
   186     186       --         2.332 au  fB            1.00    160 A               2
                        (      63.454 eV)
   187     187       --         2.359 au  fB            1.00    161 A               2
                        (      64.204 eV)
   188     188       --         2.377 au  fB            1.00    162 A               2
                        (      64.668 eV)
   189     189       --         2.437 au  fB            1.00    163 A               2
                        (      66.313 eV)
   190     190       --         2.451 au  fB            1.00    164 A               2
                        (      66.702 eV)
   191     191       --         2.496 au  fB            1.00    165 A               2
                        (      67.919 eV)
   192     192       --         2.512 au  fB            1.00    166 A               2
                        (      68.356 eV)
   193     193       --         2.589 au  fB            1.00    167 A               2
                        (      70.448 eV)
   194     194       --         2.629 au  fB            1.00    168 A               2
                        (      71.530 eV)
   195     195       --         2.633 au  fB            1.00    169 A               2
                        (      71.653 eV)
   196     196       --         2.687 au  fB            1.00    170 A               2
                        (      73.117 eV)
   197     197       --         2.734 au  fB            1.00    171 A               2
                        (      74.390 eV)
   198     198       --         2.753 au  fB            1.00    172 A               2
                        (      74.921 eV)
   199     199       --         2.785 au  fB            1.00    173 A               2
                        (      75.789 eV)
   200     200       --         2.828 au  fB            1.00    174 A               2
                        (      76.963 eV)
   201     201       --         2.846 au  fB            1.00    175 A               2
                        (      77.454 eV)
   202     202       --         2.888 au  fB            1.00    176 A               2
                        (      78.577 eV)
   203     203       --         2.917 au  fB            1.00    177 A               2
                        (      79.378 eV)
   204     204       --         2.948 au  fB            1.00    178 A               2
                        (      80.206 eV)
   205     205       --         2.988 au  fB            1.00    179 A               2
                        (      81.303 eV)
   206     206       --         3.008 au  fB            1.00    180 A               2
                        (      81.847 eV)
   207     207       --         3.052 au  fB            1.00    181 A               2
                        (      83.042 eV)
   208     208       --         3.073 au  fB            1.00    182 A               2
                        (      83.621 eV)
   209     209       --         3.134 au  fB            1.00    183 A               2
                        (      85.278 eV)
   210     210       --         3.169 au  fB            1.00    184 A               2
                        (      86.240 eV)
   211     211       --         3.233 au  fB            1.00    185 A               2
                        (      87.986 eV)
   212     212       --         3.263 au  fB            1.00    186 A               2
                        (      88.781 eV)
   213     213       --         3.295 au  fB            1.00    187 A               2
                        (      89.669 eV)
   214     214       --         3.316 au  fB            1.00    188 A               2
                        (      90.226 eV)
   215     215       --         3.366 au  fB            1.00    189 A               2
                        (      91.583 eV)
   216     216       --         3.377 au  fB            1.00    190 A               2
                        (      91.895 eV)
   217     217       --         3.384 au  fB            1.00    191 A               2
                        (      92.093 eV)
   218     218       --         3.403 au  fB            1.00    192 A               2
                        (      92.593 eV)
   219     219       --         3.426 au  fB            1.00    193 A               2
                        (      93.217 eV)
   220     220       --         3.458 au  fB            1.00    194 A               2
                        (      94.104 eV)
   221     221       --         3.474 au  fB            1.00    195 A               2
                        (      94.526 eV)
   222     222       --         3.486 au  fB            1.00    196 A               2
                        (      94.871 eV)
   223     223       --         3.500 au  fB            1.00    197 A               2
                        (      95.240 eV)
   224     224       --         3.514 au  fB            1.00    198 A               2
                        (      95.616 eV)
   225     225       --         3.535 au  fB            1.00    199 A               2
                        (      96.204 eV)
   226     226       --         3.591 au  fB            1.00    200 A               2
                        (      97.707 eV)
   227     227       --         3.625 au  fB            1.00    201 A               2
                        (      98.650 eV)
   228     228       --         3.648 au  fB            1.00    202 A               2
                        (      99.275 eV)
   229     229       --         3.689 au  fB            1.00    203 A               2
                        (     100.385 eV)
   230     230       --         3.723 au  fB            1.00    204 A               2
                        (     101.318 eV)
   231     231       --         3.754 au  fB            1.00    205 A               2
                        (     102.163 eV)
   232     232       --         3.769 au  fB            1.00    206 A               2
                        (     102.560 eV)
   233     233       --         3.793 au  fB            1.00    207 A               2
                        (     103.206 eV)
   234     234       --         3.798 au  fB            1.00    208 A               2
                        (     103.352 eV)
   235     235       --         3.861 au  fB            1.00    209 A               2
                        (     105.053 eV)
   236     236       --         3.873 au  fB            1.00    210 A               2
                        (     105.390 eV)
   237     237       --         3.881 au  fB            1.00    211 A               2
                        (     105.601 eV)
   238     238       --         3.927 au  fB            1.00    212 A               2
                        (     106.857 eV)
   239     239       --         3.955 au  fB            1.00    213 A               2
                        (     107.613 eV)
   240     240       --         3.964 au  fB            1.00    214 A               2
                        (     107.854 eV)
   241     241       --         4.007 au  fB            1.00    215 A               2
                        (     109.023 eV)
   242     242       --         4.041 au  fB            1.00    216 A               2
                        (     109.954 eV)
   243     243       --         4.099 au  fB            1.00    217 A               2
                        (     111.531 eV)
   244     244       --         4.124 au  fB            1.00    218 A               2
                        (     112.225 eV)
   245     245       --         4.166 au  fB            1.00    219 A               2
                        (     113.362 eV)
   246     246       --         4.240 au  fB            1.00    220 A               2
                        (     115.389 eV)
   247     247       --         4.283 au  fB            1.00    221 A               2
                        (     116.536 eV)
   248     248       --         4.311 au  fB            1.00    222 A               2
                        (     117.314 eV)
   249     249       --         4.337 au  fB            1.00    223 A               2
                        (     118.003 eV)
   250     250       --         4.354 au  fB            1.00    224 A               2
                        (     118.470 eV)
   251     251       --         4.364 au  fB            1.00    225 A               2
                        (     118.761 eV)
   252     252       --         4.399 au  fB            1.00    226 A               2
                        (     119.697 eV)
   253     253       --         4.433 au  fB            1.00    227 A               2
                        (     120.628 eV)
   254     254       --         4.464 au  fB            1.00    228 A               2
                        (     121.467 eV)
   255     255       --         4.540 au  fB            1.00    229 A               2
                        (     123.544 eV)
   256     256       --         4.592 au  fB            1.00    230 A               2
                        (     124.968 eV)
   257     257       --         4.635 au  fB            1.00    231 A               2
                        (     126.114 eV)
   258     258       --         4.673 au  fB            1.00    232 A               2
                        (     127.170 eV)
   259     259       --         4.700 au  fB            1.00    233 A               2
                        (     127.894 eV)
   260     260       --         4.713 au  fB            1.00    234 A               2
                        (     128.236 eV)
   261     261       --         4.757 au  fB            1.00    235 A               2
                        (     129.446 eV)
   262     262       --         4.779 au  fB            1.00    236 A               2
                        (     130.044 eV)
   263     263       --         4.860 au  fB            1.00    237 A               2
                        (     132.254 eV)
   264     264       --         4.875 au  fB            1.00    238 A               2
                        (     132.651 eV)
   265     265       --         4.980 au  fB            1.00    239 A               2
                        (     135.518 eV)
   266     266       --         5.019 au  fB            1.00    240 A               2
                        (     136.584 eV)
   267     267       --         5.098 au  fB            1.00    241 A               2
                        (     138.731 eV)
   268     268       --         5.123 au  fB            1.00    242 A               2
                        (     139.407 eV)
   269     269       --         5.243 au  fB            1.00    243 A               2
                        (     142.668 eV)
   270     270       --         5.297 au  fB            1.00    244 A               2
                        (     144.135 eV)
   271     271       --         5.340 au  fB            1.00    245 A               2
                        (     145.319 eV)
   272     272       --         5.405 au  fB            1.00    246 A               2
                        (     147.086 eV)
   273     273       --         5.510 au  fB            1.00    247 A               2
                        (     149.930 eV)
   274     274       --         5.531 au  fB            1.00    248 A               2
                        (     150.511 eV)
   275     275       --         5.553 au  fB            1.00    249 A               2
                        (     151.099 eV)
   276     276       --         5.615 au  fB            1.00    250 A               2
                        (     152.783 eV)
   277     277       --         5.764 au  fB            1.00    251 A               2
                        (     156.834 eV)
   278     278       --         5.795 au  fB            1.00    252 A               2
                        (     157.703 eV)
   279     279       --         5.895 au  fB            1.00    253 A               2
                        (     160.400 eV)
   280     280       --         6.152 au  fB            1.00    254 A               2
                        (     167.405 eV)
   281     281       --         6.224 au  fB            1.00    255 A               2
                        (     169.365 eV)
   282     282       --         6.295 au  fB            1.00    256 A               2
                        (     171.288 eV)
   283     283       --         6.401 au  fB            1.00    257 A               2
                        (     174.180 eV)
   284     284       --         6.432 au  fB            1.00    258 A               2
                        (     175.035 eV)
   285     285       --         6.477 au  fB            1.00    259 A               2
                        (     176.235 eV)
   286     286       --         6.482 au  fB            1.00    260 A               2
                        (     176.385 eV)
   287     287       --         6.521 au  fB            1.00    261 A               2
                        (     177.450 eV)
   288     288       --         6.532 au  fB            1.00    262 A               2
                        (     177.743 eV)
   289     289       --         6.582 au  fB            1.00    263 A               2
                        (     179.099 eV)
   290     290       --         6.696 au  fB            1.00    264 A               2
                        (     182.215 eV)
   291     291       --         6.845 au  fB            1.00    265 A               2
                        (     186.255 eV)
   292     292       --         6.936 au  fB            1.00    266 A               2
                        (     188.736 eV)
   293     293       --         7.119 au  fB            1.00    267 A               2
                        (     193.722 eV)
   294     294       --         7.253 au  fB            1.00    268 A               2
                        (     197.358 eV)
   295     295       --         7.299 au  fB            1.00    269 A               2
                        (     198.619 eV)
   296     296       --         7.407 au  fB            1.00    270 A               2
                        (     201.543 eV)
   297     297       --         7.449 au  fB            1.00    271 A               2
                        (     202.686 eV)
   298     298       --         7.515 au  fB            1.00    272 A               2
                        (     204.491 eV)
   299     299       --         7.591 au  fB            1.00    273 A               2
                        (     206.569 eV)
   300     300       --         7.630 au  fB            1.00    274 A               2
                        (     207.626 eV)
   301     301       --         7.745 au  fB            1.00    275 A               2
                        (     210.743 eV)
   302     302       --         7.925 au  fB            1.00    276 A               2
                        (     215.656 eV)
   303     303       --         8.020 au  fB            1.00    277 A               2
                        (     218.236 eV)
   304     304       --         8.730 au  fB            1.00    278 A               2
                        (     237.555 eV)
   305     305       --         9.379 au  fB            1.00    279 A               2
                        (     255.213 eV)
   306     306       --         9.413 au  fB            1.00    280 A               2
                        (     256.132 eV)
   307     307       --        10.599 au  fB            1.00    281 A               2
                        (     288.404 eV)
   308     308       --        11.390 au  fB            1.00    282 A               2
                        (     309.934 eV)
   309     309       --        13.872 au  fB            1.00    283 A               2
                        (     377.468 eV)
   310     310       --        15.613 au  fB            1.00    284 A               2
                        (     424.855 eV)
   311     311       --        15.927 au  fB            1.00    285 A               2
                        (     433.401 eV)
   312     312       --        19.046 au  fB            1.00    286 A               2
                        (     518.269 eV)
   313     313       --        19.053 au  fB            1.00    287 A               2
                        (     518.446 eV)
   314     314       --        19.525 au  fB            1.00    288 A               2
                        (     531.308 eV)
   315     315       --        54.088 au  fB            1.00    289 A               2
                        (    1471.807 eV)
   316     316       --        56.551 au  fB            1.00    290 A               2
                        (    1538.838 eV)
   317     317       --        57.847 au  fB            1.00    291 A               2
                        (    1574.098 eV)
   318     318       --        59.779 au  fB            1.00    292 A               2
                        (    1626.675 eV)
   319     319       --        69.946 au  fB            1.00    293 A               2
                        (    1903.336 eV)
   320     320       --        72.258 au  fB            1.00    294 A               2
                        (    1966.250 eV)
   321     321       --       127.774 au  fB            1.00    295 A               2
                        (    3476.906 eV)
   322     322       --       128.735 au  fB            1.00    296 A               2
                        (    3503.060 eV)
   323     323       --       209.746 au  fB            1.00    297 A               2
                        (    5707.492 eV)



 ================================
 (Slater-type)  F U N C T I O N S  ***  (Basis and Fit)  ***
 ================================
  

 Atom Type    1  (F)
 ==============

 Valence Basis Sets:  10
 -----------------------
   1 S   10.880000
   1 S    7.700000
   2 S    3.240000
   2 S    1.940000
   2 S    0.740000
   2 P    4.540000
   2 P    2.300000
   2 P    1.240000
   3 D    2.000000
   4 F    3.000000

 Atom Type    2  (C)
 ==============

 Valence Basis Sets:  10
 -----------------------
   1 S    7.680000
   1 S    5.000000
   2 S    1.280000
   2 S    2.100000
   2 S    4.600000
   2 P    0.820000
   2 P    1.480000
   2 P    2.940000
   3 D    2.200000
   4 F    3.300000

 Atom Type    3  (H)
 ==============

 Valence Basis Sets:   5
 -----------------------
   1 S    0.690000
   1 S    0.920000
   1 S    1.580000
   2 P    1.250000
   3 D    2.500000

 Atom Type    4  (Cl)
 ==============

 Valence Basis Sets:  14
 -----------------------
   1 S   20.300000
   1 S   15.250000
   2 S    6.250000
   2 S    4.450000
   2 P    8.850000
   2 P    5.050000
   3 S    3.450000
   3 S    2.300000
   3 S    1.600000
   3 P    3.350000
   3 P    2.050000
   3 P    1.200000
   3 D    2.000000
   4 F    2.000000

 Atom Type    5  (N)
 ==============

 Valence Basis Sets:  10
 -----------------------
   1 S    8.740000
   1 S    5.900000
   2 S    5.150000
   2 S    2.500000
   2 S    1.500000
   2 P    3.680000
   2 P    1.880000
   2 P    1.000000
   3 D    2.200000
   4 F    3.300000

 Atom Type    6  (O)
 ==============

 Valence Basis Sets:  10
 -----------------------
   1 S    9.800000
   1 S    6.800000
   2 S    7.580000
   2 S    2.880000
   2 S    1.720000
   2 P    4.080000
   2 P    2.080000
   2 P    1.120000
   3 D    2.000000
   4 F    3.000000


 BAS: List of all Elementary Cartesian Basis Functions
 =====================================================

 The numbering in the list below (to the right of the function characteristics) is referred
 to in print-outs of MO eigenvectors and Mulliken populations in the BAS representation
 (as contrasted to the SFO representation).

 Notes:
 1. The functions are characterized by a polynomial prefactor (powers of x,y,z and r) and
    an exponential decay factor alpha.
 2. Since the basis sets are specific for an atom TYPE, the individual functions occur on
    all atoms of that type.
 3. The word 'Core' in the left margin signals that it is a Core Function (CF) : not a
    degree of freedom in the valence set, but only used to ensure orthogonalization of
    the other valence basis functions on the frozen Core Orbitals.


 (power of) X  Y  Z  R     Alpha  on Atom
            ==========     =====     ==========

 F                                    1
                                  ---------------------------------------------------------------------------
            0  0  0  0    10.880      1
            0  0  0  0     7.700      2
            0  0  0  1     3.240      3
            0  0  0  1     1.940      4
            0  0  0  1     0.740      5
            1  0  0  0     4.540      6
            0  1  0  0     4.540      7
            0  0  1  0     4.540      8
            1  0  0  0     2.300      9
            0  1  0  0     2.300     10
            0  0  1  0     2.300     11
            1  0  0  0     1.240     12
            0  1  0  0     1.240     13
            0  0  1  0     1.240     14
            2  0  0  0     2.000     15
            1  1  0  0     2.000     16
            1  0  1  0     2.000     17
            0  2  0  0     2.000     18
            0  1  1  0     2.000     19
            0  0  2  0     2.000     20
            3  0  0  0     3.000     21
            2  1  0  0     3.000     22
            2  0  1  0     3.000     23
            1  2  0  0     3.000     24
            1  1  1  0     3.000     25
            1  0  2  0     3.000     26
            0  3  0  0     3.000     27
            0  2  1  0     3.000     28
            0  1  2  0     3.000     29
            0  0  3  0     3.000     30

 C                                    2    3    4    5
                                  ---------------------------------------------------------------------------
            0  0  0  0     7.680     31   61   91  121
            0  0  0  0     5.000     32   62   92  122
            0  0  0  1     1.280     33   63   93  123
            0  0  0  1     2.100     34   64   94  124
            0  0  0  1     4.600     35   65   95  125
            1  0  0  0     0.820     36   66   96  126
            0  1  0  0     0.820     37   67   97  127
            0  0  1  0     0.820     38   68   98  128
            1  0  0  0     1.480     39   69   99  129
            0  1  0  0     1.480     40   70  100  130
            0  0  1  0     1.480     41   71  101  131
            1  0  0  0     2.940     42   72  102  132
            0  1  0  0     2.940     43   73  103  133
            0  0  1  0     2.940     44   74  104  134
            2  0  0  0     2.200     45   75  105  135
            1  1  0  0     2.200     46   76  106  136
            1  0  1  0     2.200     47   77  107  137
            0  2  0  0     2.200     48   78  108  138
            0  1  1  0     2.200     49   79  109  139
            0  0  2  0     2.200     50   80  110  140
            3  0  0  0     3.300     51   81  111  141
            2  1  0  0     3.300     52   82  112  142
            2  0  1  0     3.300     53   83  113  143
            1  2  0  0     3.300     54   84  114  144
            1  1  1  0     3.300     55   85  115  145
            1  0  2  0     3.300     56   86  116  146
            0  3  0  0     3.300     57   87  117  147
            0  2  1  0     3.300     58   88  118  148
            0  1  2  0     3.300     59   89  119  149
            0  0  3  0     3.300     60   90  120  150

 H                                    6    7    8    9   10
                                  ---------------------------------------------------------------------------
            0  0  0  0     0.690    151  163  175  187  199
            0  0  0  0     0.920    152  164  176  188  200
            0  0  0  0     1.580    153  165  177  189  201
            1  0  0  0     1.250    154  166  178  190  202
            0  1  0  0     1.250    155  167  179  191  203
            0  0  1  0     1.250    156  168  180  192  204
            2  0  0  0     2.500    157  169  181  193  205
            1  1  0  0     2.500    158  170  182  194  206
            1  0  1  0     2.500    159  171  183  195  207
            0  2  0  0     2.500    160  172  184  196  208
            0  1  1  0     2.500    161  173  185  197  209
            0  0  2  0     2.500    162  174  186  198  210

 Cl                                  11
                                  ---------------------------------------------------------------------------
            0  0  0  0    20.300    211
            0  0  0  0    15.250    212
            0  0  0  1     6.250    213
            0  0  0  1     4.450    214
            1  0  0  0     8.850    215
            0  1  0  0     8.850    216
            0  0  1  0     8.850    217
            1  0  0  0     5.050    218
            0  1  0  0     5.050    219
            0  0  1  0     5.050    220
            0  0  0  2     3.450    221
            0  0  0  2     2.300    222
            0  0  0  2     1.600    223
            1  0  0  1     3.350    224
            0  1  0  1     3.350    225
            0  0  1  1     3.350    226
            1  0  0  1     2.050    227
            0  1  0  1     2.050    228
            0  0  1  1     2.050    229
            1  0  0  1     1.200    230
            0  1  0  1     1.200    231
            0  0  1  1     1.200    232
            2  0  0  0     2.000    233
            1  1  0  0     2.000    234
            1  0  1  0     2.000    235
            0  2  0  0     2.000    236
            0  1  1  0     2.000    237
            0  0  2  0     2.000    238
            3  0  0  0     2.000    239
            2  1  0  0     2.000    240
            2  0  1  0     2.000    241
            1  2  0  0     2.000    242
            1  1  1  0     2.000    243
            1  0  2  0     2.000    244
            0  3  0  0     2.000    245
            0  2  1  0     2.000    246
            0  1  2  0     2.000    247
            0  0  3  0     2.000    248

 N                                   12   13
                                  ---------------------------------------------------------------------------
            0  0  0  0     8.740    249  279
            0  0  0  0     5.900    250  280
            0  0  0  1     5.150    251  281
            0  0  0  1     2.500    252  282
            0  0  0  1     1.500    253  283
            1  0  0  0     3.680    254  284
            0  1  0  0     3.680    255  285
            0  0  1  0     3.680    256  286
            1  0  0  0     1.880    257  287
            0  1  0  0     1.880    258  288
            0  0  1  0     1.880    259  289
            1  0  0  0     1.000    260  290
            0  1  0  0     1.000    261  291
            0  0  1  0     1.000    262  292
            2  0  0  0     2.200    263  293
            1  1  0  0     2.200    264  294
            1  0  1  0     2.200    265  295
            0  2  0  0     2.200    266  296
            0  1  1  0     2.200    267  297
            0  0  2  0     2.200    268  298
            3  0  0  0     3.300    269  299
            2  1  0  0     3.300    270  300
            2  0  1  0     3.300    271  301
            1  2  0  0     3.300    272  302
            1  1  1  0     3.300    273  303
            1  0  2  0     3.300    274  304
            0  3  0  0     3.300    275  305
            0  2  1  0     3.300    276  306
            0  1  2  0     3.300    277  307
            0  0  3  0     3.300    278  308

 O                                   14   15
                                  ---------------------------------------------------------------------------
            0  0  0  0     9.800    309  339
            0  0  0  0     6.800    310  340
            0  0  0  1     7.580    311  341
            0  0  0  1     2.880    312  342
            0  0  0  1     1.720    313  343
            1  0  0  0     4.080    314  344
            0  1  0  0     4.080    315  345
            0  0  1  0     4.080    316  346
            1  0  0  0     2.080    317  347
            0  1  0  0     2.080    318  348
            0  0  1  0     2.080    319  349
            1  0  0  0     1.120    320  350
            0  1  0  0     1.120    321  351
            0  0  1  0     1.120    322  352
            2  0  0  0     2.000    323  353
            1  1  0  0     2.000    324  354
            1  0  1  0     2.000    325  355
            0  2  0  0     2.000    326  356
            0  1  1  0     2.000    327  357
            0  0  2  0     2.000    328  358
            3  0  0  0     3.000    329  359
            2  1  0  0     3.000    330  360
            2  0  1  0     3.000    331  361
            1  2  0  0     3.000    332  362
            1  1  1  0     3.000    333  363
            1  0  2  0     3.000    334  364
            0  3  0  0     3.000    335  365
            0  2  1  0     3.000    336  366
            0  1  2  0     3.000    337  367
            0  0  3  0     3.000    338  368

 Total number of charge fitting functions (nprimf)      1113
 Total number of Cartesian basis functions (naos)        368
 Total number of Cartesian core functions  (ncos)          0

 ***************************************************************************************************



                                              ***********************
                                              *  T E C H N I C A L  *
                                              ***********************
  



 =============================================================
 P A R A L L E L I Z A T I O N  and  V E C T O R I Z A T I O N
 =============================================================
  
 Nr of parallel processes:                                1
 Maximum vector length in NumInt loops:                 128



 =====================
 S C F   U P D A T E S
 =====================
  
 Max. nr. of cycles:                               200
 Convergence criterion:                              0.0000010000
   secondary criterion:                              0.0010000000

 Mix parameter (when DIIS does not apply):           0.2000000000
 Mixed ADIIS+SDIIS will be used                  
    Max number of expansion vectors:                10
    Pure ADIIS when Max([F,P]) is above              0.1000000000
    Pure SDIIS when Max([F,P]) is below              0.0010000000
 Automatic ElectronSmearing (in case of problematic SCF convergence) disabled



 =================
 P R E C I S I O N  ***  (General: NumInt, NeglectFunctionTails, ...)  ***
 =================
  

 NumInt:           Target precision:                 4.0000000000
 -------           Initial precision:                4.0000000000
                   Min. precision (optimization):    4.0000000000

 Neglect Functions:          Basis functions:        0.1000000000E-05
 ------------------          Fit functions:          0.1000000000E-05



 ===========================
 L I N E A R   S C A L I N G
 ===========================
  

 Cut-off radii density fit:                        0.1000000000E-07
 Overlap cut-off criterion AO matrix elements:     0.1000000000E-05
 Cut-offs for Coulomb potential and fitted density:0.1000000000E-07
 Cut-off criterion for Coulomb multipole terms:    0.1000000000E-07
 Progressive Convergence parameter:                 0.000000000    
 ***************************************************************************************************



                                            ***************************
                                            *  C O M P U T A T I O N  *
                                            ***************************
  

 Number of elements of the density matrix on this node (used, total):     67896     67896



 ===========================================
 Numerical Integration : Fuzzy Cells (Becke)
 ===========================================
  
 Becke grid quality: NORMAL         
  
 Lebedev angular grid order:             min:  11 max:  23
 Nr. of radial points:                   min:  46 max:  67

 Total nr. of points:     102127
 Nr. of blocks:              798
 Block length:               128
 Nr. of dummy points:         17


 Test of Precision of the Numerical Integration Grid
 ===================================================

 Integral of the Total Core Density:                   0.00000000000000



 ========================
 Density Fitting (zlmFit)
 ========================
  
 ZlmFit Fit Quality: NORMAL         
  
 Max L-expansion:                        min:   6 max:   7
 Nr. of radial interpolation points:     min:  39 max:  60



 =====
 S C F  ***  ScaSCF  ***
 =====
  
 Initial density matrix is calculated as sum of fragments

 CYCLE    1
 SCF Error: norm([F,P])=      0.949477743537, max([F,P])=      0.403848456658
 orbitals (Q,E):
 ---------------
 A :34...53          ( 2.00    -0.1691)  ( 2.00    -0.1515)  ( 2.00    -0.1460)  ( 2.00    -0.1377)
                     ( 2.00    -0.1310)  ( 2.00    -0.1130)  ( 2.00    -0.0996)  ( 2.00    -0.0225)
                     ( 2.00     0.0301)  ( 2.00     0.0400)  ( 0.00     0.0735)  ( 0.00     0.1064)
                     ( 0.00     0.1186)  ( 0.00     0.1341)  ( 0.00     0.1503)  ( 0.00     0.1573)
                     ( 0.00     0.1980)  ( 0.00     0.1988)  ( 0.00     0.2205)  ( 0.00     0.2368)

 CYCLE    2
  SDIIS (wt  0.000):  0.7910  0.2090
 A-DIIS (wt  1.000):  0.9764  0.0236
  DIIS coefficients:  0.9764  0.0236
 SCF Error: norm([F,P])=      2.063293630680, max([F,P])=      0.841839836294
 orbitals (Q,E):
 ---------------
 A :34...44          ( 2.00    -0.1644)  ( 2.00    -0.1502)  ( 2.00    -0.1440)  ( 2.00    -0.1356)
                     ( 2.00    -0.1291)  ( 2.00    -0.1121)  ( 2.00    -0.0982)  ( 2.00    -0.0328)
                     ( 2.00     0.0093)  ( 2.00     0.0165)  ( 0.00     0.0643)

 CYCLE    3
  SDIIS (wt  0.000):  0.4459 -1.0113  1.5654
 A-DIIS (wt  1.000):  0.9659  0.0000  0.0341
  DIIS coefficients:  0.9659  0.0000  0.0341
 SCF Error: norm([F,P])=      1.499366447305, max([F,P])=      0.646496545285
 orbitals (Q,E):
 ---------------
 A :34...44          ( 2.00    -0.1635)  ( 2.00    -0.1501)  ( 2.00    -0.1436)  ( 2.00    -0.1352)
                     ( 2.00    -0.1300)  ( 2.00    -0.1131)  ( 2.00    -0.0992)  ( 2.00    -0.0344)
                     ( 2.00     0.0070)  ( 2.00     0.0141)  ( 0.00     0.0623)

 CYCLE    4
  SDIIS (wt  0.000): -1.7989 -0.2011  3.0000
 A-DIIS (wt  1.000):  0.0000  0.0000  1.0000
  DIIS coefficients:  0.0000  0.0000  1.0000
 SCF Error: norm([F,P])=      1.462932204244, max([F,P])=      0.634903606518
 orbitals (Q,E):
 ---------------
 A :34...44          ( 2.00    -0.2410)  ( 2.00    -0.2288)  ( 2.00    -0.1964)  ( 2.00    -0.1288)
                     ( 2.00    -0.1132)  ( 2.00    -0.1095)  ( 2.00    -0.0971)  ( 2.00    -0.0828)
                     ( 2.00     0.0238)  ( 2.00     0.0300)  ( 0.00     0.0474)

 CYCLE    5
  SDIIS (wt  0.000): -1.3436 -0.7626  3.0000  0.1062
 A-DIIS (wt  1.000):  0.0000  0.0000  0.8908  0.1092
  DIIS coefficients:  0.0000  0.0000  0.8908  0.1092
 SCF Error: norm([F,P])=      4.805449401376, max([F,P])=      1.224075885560
 orbitals (Q,E):
 ---------------
 A :34...44          ( 2.00    -0.2277)  ( 2.00    -0.2102)  ( 2.00    -0.1709)  ( 2.00    -0.1423)
                     ( 2.00    -0.1394)  ( 2.00    -0.1188)  ( 2.00    -0.1114)  ( 2.00    -0.0819)
                     ( 2.00    -0.0757)  ( 2.00    -0.0494)  ( 0.00     0.0046)

 CYCLE    6
  SDIIS (wt  0.000): -0.9124 -1.3201  3.0000  0.0259  0.2065
 A-DIIS (wt  1.000):  0.0000  0.0000  0.5970  0.0000  0.4030
  DIIS coefficients:  0.0000  0.0000  0.5970  0.0000  0.4030
 SCF Error: norm([F,P])=      2.266371856785, max([F,P])=      0.713912419500
 orbitals (Q,E):
 ---------------
 A :34...44          ( 2.00    -0.2010)  ( 2.00    -0.1783)  ( 2.00    -0.1777)  ( 2.00    -0.1645)
                     ( 2.00    -0.1597)  ( 2.00    -0.1514)  ( 2.00    -0.1333)  ( 2.00    -0.0983)
                     ( 2.00    -0.0374)  ( 2.00    -0.0321)  ( 0.00     0.0170)

 CYCLE    7
  SDIIS (wt  0.000): -0.4829 -1.9901  3.0000 -0.0157  0.1805  0.3083
 A-DIIS (wt  1.000): -0.0000  0.0000  0.3774  0.0000  0.1385  0.4841
  DIIS coefficients: -0.0000  0.0000  0.3774  0.0000  0.1385  0.4841
 SCF Error: norm([F,P])=      0.893364767321, max([F,P])=      0.209812005114
 orbitals (Q,E):
 ---------------
 A :34...44          ( 2.00    -0.1687)  ( 2.00    -0.1656)  ( 2.00    -0.1541)  ( 2.00    -0.1481)
                     ( 2.00    -0.1371)  ( 2.00    -0.1241)  ( 2.00    -0.1138)  ( 2.00    -0.1098)
                     ( 2.00    -0.1060)  ( 2.00    -0.0818)  ( 0.00     0.0077)

 CYCLE    8
  SDIIS (wt  0.000): -0.2409 -2.0000  2.5386 -0.0175  0.0155  0.3948  0.3096
 A-DIIS (wt  1.000): -0.0000  0.0000  0.1974  0.0000  0.0000  0.4311  0.3715
  DIIS coefficients: -0.0000  0.0000  0.1974  0.0000  0.0000  0.4311  0.3715
[...]
                                    1.92%    58 A               5.638  0.00     2 fB
                                    1.85%     6 A               7.775  0.00     1 fA
                                    1.69%    50 A               2.913  0.00     2 fB
                                    1.48%    65 A               7.682  0.00     2 fB
                                    1.47%    29 A             -10.061  2.00     2 fB
                                    1.46%    52 A               3.406  0.00     2 fB
                                    1.46%    35 A              -8.308  2.00     2 fB
                                    1.34%    32 A              -9.431  2.00     2 fB
                                    1.32%    55 A               4.147  0.00     2 fB
                                    1.26%    38 A              -7.742  2.00     2 fB
                                    1.07%     8 A              22.094  0.00     1 fA
                                    1.04%     3 A               2.943  2.00     1 fA
                                    1.01%     9 A              22.094  0.00     1 fA
       0.05605       318 A         10.52%    26 A             -12.555  2.00     2 fB
                                   10.46%    33 A              -8.804  2.00     2 fB
                                    8.30%    30 A              -9.847  2.00     2 fB
                                    7.48%    49 A               1.979  0.00     2 fB
                                    6.49%    28 A             -10.520  2.00     2 fB
                                    6.33%     7 A              22.094  0.00     1 fA
                                    5.81%    45 A               0.561  0.00     2 fB
                                    3.81%    42 A              -0.591  0.00     2 fB
                                    2.98%     3 A               2.943  2.00     1 fA
                                    2.86%    27 A             -10.814  2.00     2 fB
                                    2.80%    10 A              42.594  0.00     1 fA
                                    2.09%    53 A               3.726  0.00     2 fB
                                    1.85%    58 A               5.638  0.00     2 fB
                                    1.84%    50 A               2.913  0.00     2 fB
                                    1.78%    29 A             -10.061  2.00     2 fB
                                    1.78%    43 A              -0.250  0.00     2 fB
                                    1.72%    18 A             -20.280  2.00     2 fB
                                    1.48%    65 A               7.682  0.00     2 fB
                                    1.29%    35 A              -8.308  2.00     2 fB
                                    1.26%    52 A               3.406  0.00     2 fB
                                    1.23%    55 A               4.147  0.00     2 fB
                                    1.17%    38 A              -7.742  2.00     2 fB
                                    1.09%    32 A              -9.431  2.00     2 fB
      -0.05252         7 A         24.20%    36 A              -7.931  2.00     2 fB
                                    9.01%    29 A             -10.061  2.00     2 fB
                                    7.68%    63 A               7.034  0.00     2 fB
                                    7.36%    47 A               1.170  0.00     2 fB
                                    4.15%    37 A              -7.828  2.00     2 fB
                                    3.72%    38 A              -7.742  2.00     2 fB
                                    3.18%    48 A               1.611  0.00     2 fB
                                    3.04%    55 A               4.147  0.00     2 fB
                                    2.75%    35 A              -8.308  2.00     2 fB
                                    2.67%    62 A               6.937  0.00     2 fB
                                    2.66%    53 A               3.726  0.00     2 fB
                                    2.58%     6 A               7.775  0.00     1 fA
                                    2.56%    45 A               0.561  0.00     2 fB
                                    2.27%    67 A               8.199  0.00     2 fB
                                    2.20%    26 A             -12.555  2.00     2 fB
                                    1.54%    42 A              -0.591  0.00     2 fB
                                    1.41%    66 A               7.992  0.00     2 fB
                                    1.35%    34 A              -8.666  2.00     2 fB
                                    1.27%    54 A               3.929  0.00     2 fB
                                    1.23%    70 A               9.463  0.00     2 fB
                                    1.14%    50 A               2.913  0.00     2 fB
       0.05252       317 A         23.40%    36 A              -7.931  2.00     2 fB
                                    8.83%    29 A             -10.061  2.00     2 fB
                                    8.26%    63 A               7.034  0.00     2 fB
                                    7.68%    47 A               1.170  0.00     2 fB
                                    3.67%    37 A              -7.828  2.00     2 fB
                                    3.49%    38 A              -7.742  2.00     2 fB
                                    3.48%    55 A               4.147  0.00     2 fB
                                    3.36%    48 A               1.611  0.00     2 fB
                                    2.94%    53 A               3.726  0.00     2 fB
                                    2.79%    62 A               6.937  0.00     2 fB
                                    2.77%    35 A              -8.308  2.00     2 fB
                                    2.61%    45 A               0.561  0.00     2 fB
                                    2.23%    67 A               8.199  0.00     2 fB
                                    1.88%    42 A              -0.591  0.00     2 fB
                                    1.60%    66 A               7.992  0.00     2 fB
                                    1.42%    34 A              -8.666  2.00     2 fB
                                    1.37%     6 A               7.775  0.00     1 fA
                                    1.35%    54 A               3.929  0.00     2 fB
                                    1.28%    70 A               9.463  0.00     2 fB
                                    1.10%    50 A               2.913  0.00     2 fB
                                    1.08%    26 A             -12.555  2.00     2 fB
                                    1.07%    61 A               6.580  0.00     2 fB
      -0.05115         8 A         17.04%    28 A             -10.520  2.00     2 fB
                                   16.11%    46 A               0.828  0.00     2 fB
                                   11.96%    31 A              -9.664  2.00     2 fB
                                   10.05%    27 A             -10.814  2.00     2 fB
                                    8.76%    47 A               1.170  0.00     2 fB
                                    4.17%    35 A              -8.308  2.00     2 fB
                                    3.99%    37 A              -7.828  2.00     2 fB
                                    3.38%    44 A               0.372  0.00     2 fB
                                    3.01%    65 A               7.682  0.00     2 fB
                                    1.76%    60 A               6.138  0.00     2 fB
                                    1.46%    55 A               4.147  0.00     2 fB
                                    1.45%    33 A              -8.804  2.00     2 fB
                                    1.35%    56 A               4.661  0.00     2 fB
                                    1.18%    50 A               2.913  0.00     2 fB
                                    1.15%    64 A               7.255  0.00     2 fB
                                    1.09%    43 A              -0.250  0.00     2 fB
       0.05115       316 A         16.92%    46 A               0.828  0.00     2 fB
                                   15.10%    28 A             -10.520  2.00     2 fB
                                   11.77%    31 A              -9.664  2.00     2 fB
                                    9.72%    27 A             -10.814  2.00     2 fB
                                    9.46%    47 A               1.170  0.00     2 fB
                                    3.88%    35 A              -8.308  2.00     2 fB
                                    3.86%    37 A              -7.828  2.00     2 fB
                                    3.83%    44 A               0.372  0.00     2 fB
                                    3.33%    65 A               7.682  0.00     2 fB
                                    1.79%    60 A               6.138  0.00     2 fB
                                    1.44%    55 A               4.147  0.00     2 fB
                                    1.43%    56 A               4.661  0.00     2 fB
                                    1.27%    64 A               7.255  0.00     2 fB
                                    1.14%    33 A              -8.804  2.00     2 fB
                                    1.13%    43 A              -0.250  0.00     2 fB
                                    1.12%    50 A               2.913  0.00     2 fB
                                    1.07%    58 A               5.638  0.00     2 fB
                                    1.03%    82 A              13.411  0.00     2 fB
 Mulliken charges used for AMS results%charges...


    =====================
     CALCULATION RESULTS
    =====================

Energy (hartree)            -0.09846340


--------------
Atomic charges
--------------
  Index   Atom    Charge
      1      F   -0.5675
      2      C    0.1293
      3      H   -0.1648
      4     Cl   -0.3963
      5      C    0.5056
      6      H   -0.1994
      7      N    0.6420
      8      O   -0.4250
      9      O   -0.4041
     10      C    0.2211
     11      N   -0.3347
     12      C    0.6563
     13      H   -0.2090
     14      H   -0.1894
     15      H   -0.2641


Dipole moment vector    (Debye):    -2.92004933    4.56318016   -0.62966488
              magnitude (Debye):     5.45396911


-----------------------
Molecular orbitals info
-----------------------
n orbitals:              323
n spin:                    1

Note: only printing virtual orbitals with
      energy smaller than HOMO + 100. eV

HOMO (eV):              -2.6512
LUMO (eV):               0.4156
HOMO-LUMO gap (eV):      3.0668

   Index   Energy (eV)    Occupation
     207       97.0695         0.000       
     206       96.8334         0.000       
     205       96.4291         0.000       
     204       95.8874         0.000       
     203       95.1682         0.000       
     202       94.0402         0.000       
     201       93.8764         0.000       
     200       93.3427         0.000       
     199       92.0188         0.000       
     198       90.9483         0.000       
     197       90.1622         0.000       
     196       89.6663         0.000       
     195       87.9591         0.000       
     194       87.8076         0.000       
     193       86.0236         0.000       
     192       84.6521         0.000       
     191       83.2954         0.000       
     190       83.0872         0.000       
     189       82.4839         0.000       
     188       82.0644         0.000       
     187       80.3215         0.000       
     186       79.5380         0.000       
     185       78.6590         0.000       
     184       78.2020         0.000       
     183       77.5543         0.000       
     182       76.6953         0.000       
     181       76.3088         0.000       
     180       74.1714         0.000       
     179       73.3119         0.000       
     178       73.0235         0.000       
     177       72.5444         0.000       
     176       71.0688         0.000       
     175       69.4862         0.000       
     174       68.6734         0.000       
     173       68.0485         0.000       
     172       67.5709         0.000       
     171       66.6266         0.000       
     170       66.2049         0.000       
     169       64.9332         0.000       
     168       64.6999         0.000       
     167       63.9685         0.000       
     166       62.9347         0.000       
     165       61.6490         0.000       
     164       61.2052         0.000       
     163       60.1607         0.000       
     162       58.8537         0.000       
     161       58.5628         0.000       
     160       58.1381         0.000       
     159       57.6574         0.000       
     158       56.7739         0.000       
     157       55.9653         0.000       
     156       55.4202         0.000       
     155       55.1410         0.000       
     154       54.0208         0.000       
     153       53.4110         0.000       
     152       52.9406         0.000       
     151       52.4580         0.000       
     150       51.5413         0.000       
     149       51.2889         0.000       
     148       50.3712         0.000       
     147       49.4413         0.000       
     146       49.1997         0.000       
     145       48.4435         0.000       
     144       47.8821         0.000       
     143       46.5856         0.000       
     142       46.4610         0.000       
     141       45.8357         0.000       
     140       45.0088         0.000       
     139       44.4894         0.000       
     138       43.6412         0.000       
     137       43.4385         0.000       
     136       42.2281         0.000       
     135       42.1884         0.000       
     134       41.9258         0.000       
     133       41.6480         0.000       
     132       40.6291         0.000       
     131       40.0286         0.000       
     130       39.6577         0.000       
     129       39.2689         0.000       
     128       39.0896         0.000       
     127       38.9473         0.000       
     126       38.4230         0.000       
     125       37.9789         0.000       
     124       37.7881         0.000       
     123       37.6946         0.000       
     122       37.2755         0.000       
     121       36.7934         0.000       
     120       36.5709         0.000       
     119       36.1671         0.000       
     118       35.9253         0.000       
     117       35.4195         0.000       
     116       34.4816         0.000       
     115       33.6892         0.000       
     114       33.2506         0.000       
     113       32.6493         0.000       
     112       32.0607         0.000       
     111       31.5922         0.000       
     110       31.1744         0.000       
     109       30.2381         0.000       
     108       29.9097         0.000       
     107       28.8496         0.000       
     106       28.5437         0.000       
     105       28.3381         0.000       
     104       27.9176         0.000       
     103       27.0731         0.000       
     102       27.0415         0.000       
     101       26.0448         0.000       
     100       25.5952         0.000       
      99       24.7846         0.000       
      98       24.5831         0.000       
      97       24.1060         0.000       
      96       23.8576         0.000       
      95       23.3122         0.000       
      94       22.3543         0.000       
      93       22.0806         0.000       
      92       20.7479         0.000       
      91       19.9485         0.000       
      90       19.5746         0.000       
      89       19.3509         0.000       
      88       18.7748         0.000       
      87       17.6792         0.000       
      86       17.2411         0.000       
      85       16.8148         0.000       
      84       16.3887         0.000       
      83       16.0603         0.000       
      82       15.7455         0.000       
      81       15.4715         0.000       
      80       15.2328         0.000       
      79       14.7611         0.000       
      78       14.5883         0.000       
      77       14.4965         0.000       
      76       13.9047         0.000       
      75       13.6056         0.000       
      74       13.1871         0.000       
      73       13.0588         0.000       
      72       12.5418         0.000       
      71       12.4388         0.000       
      70       12.0183         0.000       
      69       11.5112         0.000       
      68       11.4230         0.000       
      67       11.3038         0.000       
      66       11.0906         0.000       
      65       10.7346         0.000       
      64       10.2511         0.000       
      63        9.7924         0.000       
      62        9.0370         0.000       
      61        8.9371         0.000       
      60        8.3893         0.000       
      59        8.1262         0.000       
      58        7.7774         0.000       
      57        7.4837         0.000       
      56        7.2821         0.000       
      55        6.8470         0.000       
      54        6.2714         0.000       
      53        5.7565         0.000       
      52        5.5491         0.000       
      51        4.9390         0.000       
      50        4.5751         0.000       
      49        4.3180         0.000       
      48        4.1592         0.000       
      47        3.1526         0.000       
      46        2.6776         0.000       
      45        1.8883         0.000       
      44        0.4156         0.000 < LUMO
      43       -2.6512         2.000 < HOMO
      42       -2.9767         2.000       
      41       -3.0065         2.000       
      40       -3.0193         2.000       
      39       -3.0917         2.000       
      38       -3.1657         2.000       
      37       -3.8132         2.000       
      36       -3.9462         2.000       
      35       -4.0126         2.000       
      34       -4.5995         2.000       
      33       -4.9718         2.000       
      32       -5.4523         2.000       
      31       -5.7020         2.000       
      30       -6.1304         2.000       
      29       -6.3675         2.000       
      28       -7.9740         2.000       
      27       -8.0722         2.000       
      26       -9.0146         2.000       
      25       -9.5992         2.000       
      24      -10.0492         2.000       
      23      -12.1854         2.000       
      22      -12.5580         2.000       
      21      -14.9928         2.000       
      20      -15.4735         2.000       
      19      -17.5040         2.000       
      18      -18.6197         2.000       
      17      -22.0406         2.000       
      16      -22.8547         2.000       
      15      -27.2548         2.000       
      14     -185.4399         2.000       
      13     -185.4485         2.000       
      12     -185.6497         2.000       
      11     -246.4610         2.000       
      10     -266.5540         2.000       
       9     -266.8534         2.000       
       8     -267.5538         2.000       
       7     -270.1952         2.000       
       6     -377.6966         2.000       
       5     -384.1365         2.000       
       4     -508.7025         2.000       
       3     -508.7389         2.000       
       2     -654.5560         2.000       
       1    -2745.7136         2.000       

AMS application finished. Exiting.
NORMAL TERMINATION
     Total cpu time:     118.29
  Total system time:       0.44
 Total elapsed time:     119.11
NORMAL TERMINATION
