
 *******************************************************************************
 *                                                                             *
 *  --------------------------------                                           *
 *   Amsterdam Modeling Suite (AMS)              2026.103                      *
 *  --------------------------------                                           *
 *                                               r260501 2026-05-01 873454b5   *
 *                                                                             *
 *                                                                             *
 *                              =================                              *
 *                              |               |                              *
 *                              |     A M S     |                              *
 *                              |               |                              *
 *                              =================                              *
 *                                                                             *
 *                                                                             *
 *   Online information and documentation:  https://www.scm.com/support/       *
 *   E-mail:  support@scm.com   info@scm.com                                   *
 *                                                                             *
 *   Scientific publications using AMS results must be properly referenced     *
 *   See the User Manuals (or the web site) for recommended citations          *
 *   The terms and conditions of the End User License Agreement apply to       *
 *   the use of AMS, https://www.scm.com/license-terms/                        *
 *                                                                             *
 **********************  x86_64_linux_intel / intelmpi  ************************
 
 Licensed to: Jong-June Jeon / University of Seoul 2026-06-02 13:44:15
 SCM User ID: u30731
  
 AMS 2026.103  RunTime: Jun03-2026 10:41:02  ShM Nodes: 1  Procs: 1

 AMS jobname: c3_eda
 AMS jobid  : 679035189

 Start   directory: /gpfs/home1/yeseo1ee/projects/eda-asm-prediction/ADF_800/adf_outputs/batch_002/qmrxn20_e2_A_A_A_A_B_C/
 Results directory: /gpfs/home1/yeseo1ee/projects/eda-asm-prediction/ADF_800/adf_outputs/batch_002/qmrxn20_e2_A_A_A_A_B_C/c3_eda.results/
 Scratch directory: /tmp/amstmp_c3_eda_kid0.679035189/

 RNG seed: 1456862808 1027308106 -439234513 -1204828897 850757005 -193812991 -865354449 -985727754



                      ************************************************************************
                      *  ADF 2026.103  RunTime: Jun03-2026 10:41:02  ShM Nodes: 1  Procs: 1  *
                      ************************************************************************
  

       ****************************
       * SINGLE POINT CALCULATION *
       ****************************

--------
Geometry
--------
Formula: C2H5Cl2
Atoms
  Index Symbol   x (angstrom)   y (angstrom)   z (angstrom)
      1     Cl     1.82110086     0.15851117    -1.67903909 adf.f=fA
      2      C    -0.26180407    -0.00098815    -0.31191342 adf.f=fB
      3      C    -0.11464155     0.03508676     1.05272108 adf.f=fB
      4     Cl    -2.90202629    -0.22296558     2.11586453 adf.f=fB
      5      H    -1.56801644    -0.09220463     1.44934098 adf.f=fB
      6      H    -0.42866883    -0.94515247    -0.81183930 adf.f=fB
      7      H     0.10162174     0.98588978     1.53088076 adf.f=fB
      8      H     0.26543950    -0.84534829     1.56227997 adf.f=fB
      9      H    -0.59230492     0.88179142    -0.84184550 adf.f=fB

Total System Charge             -1.00000


----------------
ADF Engine Input
----------------
 
   Basis
     Type TZ2P
     Core None
   End
   XC
     GGA BLYP
     Dispersion GRIMME3 BJDAMP
   End
   Symmetry NOSYM
   NumericalQuality Normal
   Unrestricted No
   SCF
     Iterations 200
     Converge 1.0e-6
   End
   fragments
     fA c1_fragA_ts.results/adf.rkf
     fB c2_fragB_ts.results/adf.rkf
   end
   etsnocv
     enocv 0.05
     ekmin 0.5
   end
   print etslowdin
   Save TAPE21
 

 Title: *** (NO TITLE) ***

 *** adf ***



 ===========================
 A T T A C H E D   F I L E S
 ===========================
  



 ===============================
 M O D E L   P A R A M E T E R S
 ===============================
  
 DENSITY FUNCTIONAL POTENTIAL (scf)
    LDA:                               Exchange only                           == Not Default ==
    Gradient Corrections:              Becke88 LYP                             == Not Default ==

 SPIN  (restricted / unrestr.)
    Molecule:                          Restricted                               
    Fragments:                         Restricted                               

 OTHER ASPECTS
    Relativistic Corrections:          scalar (ZORA,MAPA)                       

    Nuclear Charge Density Model:      Point Charge Nuclei                      
    Core Treatment:                    Frozen Orbital(s)                        

    Hyperfine or Zeeman Interaction:   ---                                      

 Settings for Grimme D3 dispersion correction

      damping                        BJ
      s6                          1.000
      s8                          2.700
      a1                          0.430
      a2                          4.236

 Other (technical) parameters

      alpha                      14.000
      version                         4
 


 Fragment File(s)
 ----------------
 fA:
         file : c1_fragA_ts.results/adf.rkf
         jobid: 1149319051
         title: *** adf ***
 fB:
         file : c2_fragB_ts.results/adf.rkf
         jobid: 898290483
         title: *** adf ***



 ===============
 G E O M E T R Y  ***  3D  Molecule  ***
 ===============
  

 ATOMS
 =====                            X Y Z                    CHARGE
                                (Angstrom)             Nucl     +Core       At.Mass
                       --------------------------    ----------------       -------
    1  Cl              1.8211    0.1585   -1.6790     17.00     17.00       34.9689
    2  C              -0.2618   -0.0010   -0.3119      6.00      6.00       12.0000
    3  C              -0.1146    0.0351    1.0527      6.00      6.00       12.0000
    4  Cl             -2.9020   -0.2230    2.1159     17.00     17.00       34.9689
    5  H              -1.5680   -0.0922    1.4493      1.00      1.00        1.0078
    6  H              -0.4287   -0.9452   -0.8118      1.00      1.00        1.0078
    7  H               0.1016    0.9859    1.5309      1.00      1.00        1.0078
    8  H               0.2654   -0.8453    1.5623      1.00      1.00        1.0078
    9  H              -0.5923    0.8818   -0.8418      1.00      1.00        1.0078


 FRAGMENTS
 =========                                     Atoms in this Fragment     Cart. coord.s (Angstrom)
                                               -------------------------------------------------------
    1  fA                                                1  Cl           1.8211    0.1585   -1.6790
    2  fB                                                2  C           -0.2618   -0.0010   -0.3119
                                                         3  C           -0.1146    0.0351    1.0527
                                                         4  Cl          -2.9020   -0.2230    2.1159
                                                         5  H           -1.5680   -0.0922    1.4493
                                                         6  H           -0.4287   -0.9452   -0.8118
                                                         7  H            0.1016    0.9859    1.5309
                                                         8  H            0.2654   -0.8453    1.5623
                                                         9  H           -0.5923    0.8818   -0.8418


 Interatomic Distance Matrix (Angstrom)
 --------------------------------------

   1)     0.000
   2)     2.497   0.000
   3)     3.350   1.373   0.000
   4)     6.071   3.594   2.994   0.000
   5)     4.619   2.195   1.512   1.497   0.000
   6)     2.652   1.081   2.130   3.900   2.672   0.000
   7)     3.734   2.122   1.086   3.290   1.989   3.082   0.000
   8)     3.733   2.122   1.086   3.275   1.985   2.476   1.839   0.000
   9)     2.655   1.081   2.129   3.912   2.674   1.835   2.474   3.082   0.000

 Min. Distance =    1.0813
 Max. Distance =    6.0708



 =====================================
 S Y M M E T R Y ,   E L E C T R O N S
 =====================================
  
 Symmetry: NOSYM

 Irreducible Representations, including subspecies
 -------------------------------------------------
 A


 Configuration of Valence Electrons
 ==================================
 ( determined in the SCF procedure )

 Total:   52

 Net Charge: -1 (Nuclei minus Electrons)

 Aufbau principle for MO occupations will be applied through SCF cycle no.     100
 Thereafter, the program will assign electrons to MOs that are spatially
 similar to the occupied MOs in a "reference" cycle ("KeepOrbitals").
 The reference cycle is always the PREVIOUS cycle: it will evolve with
 the SCF procedure.
 ***************************************************************************************************



                                      ****************************************
                                      *  B U I L D : (Fragments, Functions)  *
                                      ****************************************
  

 The individual fragments are copies of the corresponding 'Master' fragments defined on the fragment files.
 However, they may have been rotated (and translated) with respect to the Master. The local coordinate axes
 of each fragment (which define for instance the spatial orientation in the current molecule of a fragment
 P:x orbital) are not necessarily those of the molecule.
 The local frame (if different from the molecular one) is printed to enable an interpretation of the expan-
 sion of an MO in Fragment Orbitals.



                                              ************************
                                              *  Fragment Type : fA  *
                                              ************************
  

 Fragment no.    1   (in the list of all fragments)
 -----------------
 The local coordinate frame is identical to the molecular frame.

 Check Atomic Coordinates:

                  Master (on file)          After Computed Tranformation               As specified on Input
           ----------------------------     ----------------------------     ---------------------------------
     1)     1.82110   0.15851  -1.67904      1.82110   0.15851  -1.67904       1   1.82110   0.15851  -1.67904



                                              ************************
                                              *  Fragment Type : fB  *
                                              ************************
  

 Fragment no.    2   (in the list of all fragments)
 -----------------
 The local coordinate frame is identical to the molecular frame.

 Check Atomic Coordinates:

                  Master (on file)          After Computed Tranformation               As specified on Input
           ----------------------------     ----------------------------     ---------------------------------
     1)    -0.26180  -0.00099  -0.31191     -0.26180  -0.00099  -0.31191       2  -0.26180  -0.00099  -0.31191
     2)    -0.11464   0.03509   1.05272     -0.11464   0.03509   1.05272       3  -0.11464   0.03509   1.05272
     3)    -2.90203  -0.22297   2.11586     -2.90203  -0.22297   2.11586       4  -2.90203  -0.22297   2.11586
     4)    -1.56802  -0.09220   1.44934     -1.56802  -0.09220   1.44934       5  -1.56802  -0.09220   1.44934
     5)    -0.42867  -0.94515  -0.81184     -0.42867  -0.94515  -0.81184       6  -0.42867  -0.94515  -0.81184
     6)     0.10162   0.98589   1.53088      0.10162   0.98589   1.53088       7   0.10162   0.98589   1.53088
     7)     0.26544  -0.84535   1.56228      0.26544  -0.84535   1.56228       8   0.26544  -0.84535   1.56228
     8)    -0.59230   0.88179  -0.84185     -0.59230   0.88179  -0.84185       9  -0.59230   0.88179  -0.84185



 =======
 S F O s  ***  (Symmetrized Fragment Orbitals)  ***
 =======
  
 SFOs are linear combinations of (valence) Fragment Orbitals (FOs), such that the SFOs transform as the
 irreducible representations of the (molecular) symmetry group. Each SFO is therefore characterized by
 an irrep of the molecule and by a few (or only one) generating FOs.
 The SFOs constitute a symmetry-adapted basis for the Fock matrix. The MO eigenvector coefficients in
 this basis provide a direct interpretation of the MOs in terms of Frontier Orbital Theory.

 The SFOs are combined with auxiliary Core Functions (CFs) to ensure orthogonalization on the (frozen)
 Core Orbitals (COs). The Core-orthogonalized SFOs (CSFOs) constitute the true Fock basis.

 The FOs, and hence also the (C)SFOs are combinations of the elementary basis functions (BAS). The basis
 functions that participate in the description of the SFOs depend on the irrep. The indices of the
 involved functions are printed below for each irrep.
 (The complete list of primitive basis functions is printed in another section)

 Total nr. of (C)SFOs (summation over all irreps) :   175

 NOTE: a (C)SFO that is defined as a combination of more than one FO is usually NOT normalized.



                                       === A ===
 Nr. of SFOs :  175
 Cartesian basis functions that participate in this irrep (total number =   196) :
      1     2     3     4    11    12    13     5     8    14
     17    20     6     9    15    18    21     7    10    16
     19    22    23    24    25    26    27    28    29    30
     31    32    33    34    35    36    37    38    39    40
     41    42    43    44    47    50    45    48    51    46
     49    52    53    54    55    56    57    58    59    60
     61    62    63    64    65    66    67    68    69    70
     71    72    73    74    77    80    75    78    81    76
     79    82    83    84    85    86    87    88    89    90
     91    92    93    94    95    96    97    98    99   100
    101   102   109   110   111   103   106   112   115   118
    104   107   113   116   119   105   108   114   117   120
    121   122   123   124   125   126   127   128   129   130
    131   132   133   134   135   136   137   138   139   140
    141   142   143   144   145   146   147   148   149   150
    151   152   153   154   155   156   157   158   159   160
    161   162   163   164   165   166   167   168   169   170
    171   172   173   174   175   176   177   178   179   180
    181   182   183   184   185   186   187   188   189   190
    191   192   193   194   195   196

    SFO  (index         Fragment          Generating    Expansion in Fragment Orbitals
  indx  incl.CFs)   Occup   Orb.Energy   FragmentType  Coeff.   Orbital     on Fragment
 --------------------------------------------------------------------------------------
     1       1      2.000    -100.735 au  fA            1.00      1 A               1
                        (   -2741.135 eV)
     2       2      2.000      -8.888 au  fA            1.00      2 A               1
                        (    -241.848 eV)
     3       3      2.000      -6.648 au  fA            1.00      3 A               1
                        (    -180.901 eV)
     4       4      2.000      -6.648 au  fA            1.00      4 A               1
                        (    -180.901 eV)
     5       5      2.000      -6.648 au  fA            1.00      5 A               1
                        (    -180.901 eV)
     6       6      2.000      -0.390 au  fA            1.00      6 A               1
                        (     -10.619 eV)
     7       7      2.000       0.034 au  fA            1.00      7 A               1
                        (       0.928 eV)
     8       8      2.000       0.034 au  fA            1.00      8 A               1
                        (       0.928 eV)
     9       9      2.000       0.034 au  fA            1.00      9 A               1
                        (       0.928 eV)
    10      10       --         0.473 au  fA            1.00     10 A               1
                        (      12.862 eV)
    11      11       --         0.489 au  fA            1.00     11 A               1
                        (      13.303 eV)
    12      12       --         0.489 au  fA            1.00     12 A               1
                        (      13.303 eV)
    13      13       --         0.489 au  fA            1.00     13 A               1
                        (      13.303 eV)
    14      14       --         0.743 au  fA            1.00     14 A               1
                        (      20.220 eV)
    15      15       --         0.743 au  fA            1.00     15 A               1
                        (      20.220 eV)
    16      16       --         0.743 au  fA            1.00     16 A               1
                        (      20.220 eV)
    17      17       --         0.743 au  fA            1.00     17 A               1
                        (      20.220 eV)
    18      18       --         0.743 au  fA            1.00     18 A               1
                        (      20.220 eV)
    19      19       --         1.518 au  fA            1.00     19 A               1
                        (      41.317 eV)
    20      20       --         1.518 au  fA            1.00     20 A               1
                        (      41.317 eV)
    21      21       --         1.518 au  fA            1.00     21 A               1
                        (      41.317 eV)
    22      22       --         1.518 au  fA            1.00     22 A               1
                        (      41.317 eV)
    23      23       --         1.518 au  fA            1.00     23 A               1
                        (      41.317 eV)
    24      24       --         1.518 au  fA            1.00     24 A               1
                        (      41.317 eV)
    25      25       --         1.518 au  fA            1.00     25 A               1
                        (      41.317 eV)
    26      26       --         2.339 au  fA            1.00     26 A               1
                        (      63.651 eV)
    27      27       --         2.448 au  fA            1.00     27 A               1
                        (      66.624 eV)
    28      28       --         2.448 au  fA            1.00     28 A               1
                        (      66.624 eV)
    29      29       --         2.448 au  fA            1.00     29 A               1
                        (      66.624 eV)
    30      30       --        12.992 au  fA            1.00     30 A               1
                        (     353.542 eV)
    31      31       --        19.044 au  fA            1.00     31 A               1
                        (     518.220 eV)
    32      32       --        19.044 au  fA            1.00     32 A               1
                        (     518.220 eV)
    33      33       --        19.044 au  fA            1.00     33 A               1
                        (     518.220 eV)
    34      34       --       205.706 au  fA            1.00     34 A               1
                        (    5597.551 eV)
    35      35      2.000    -101.042 au  fB            1.00      1 A               2
                        (   -2749.492 eV)
    36      36      2.000      -9.972 au  fB            1.00      2 A               2
                        (    -271.345 eV)
    37      37      2.000      -9.960 au  fB            1.00      3 A               2
                        (    -271.029 eV)
    38      38      2.000      -9.195 au  fB            1.00      4 A               2
                        (    -250.218 eV)
    39      39      2.000      -6.961 au  fB            1.00      5 A               2
                        (    -189.421 eV)
    40      40      2.000      -6.953 au  fB            1.00      6 A               2
                        (    -189.200 eV)
    41      41      2.000      -6.953 au  fB            1.00      7 A               2
                        (    -189.197 eV)
    42      42      2.000      -0.737 au  fB            1.00      8 A               2
                        (     -20.043 eV)
    43      43      2.000      -0.704 au  fB            1.00      9 A               2
                        (     -19.168 eV)
    44      44      2.000      -0.566 au  fB            1.00     10 A               2
                        (     -15.414 eV)
    45      45      2.000      -0.456 au  fB            1.00     11 A               2
                        (     -12.406 eV)
    46      46      2.000      -0.407 au  fB            1.00     12 A               2
                        (     -11.067 eV)
    47      47      2.000      -0.396 au  fB            1.00     13 A               2
                        (     -10.773 eV)
    48      48      2.000      -0.353 au  fB            1.00     14 A               2
                        (      -9.603 eV)
    49      49      2.000      -0.266 au  fB            1.00     15 A               2
                        (      -7.238 eV)
    50      50      2.000      -0.248 au  fB            1.00     16 A               2
                        (      -6.747 eV)
    51      51      2.000      -0.247 au  fB            1.00     17 A               2
                        (      -6.734 eV)
    52      52       --        -0.119 au  fB            1.00     18 A               2
                        (      -3.227 eV)
    53      53       --        -0.009 au  fB            1.00     19 A               2
                        (      -0.256 eV)
    54      54       --         0.017 au  fB            1.00     20 A               2
                        (       0.452 eV)
    55      55       --         0.017 au  fB            1.00     21 A               2
                        (       0.461 eV)
    56      56       --         0.059 au  fB            1.00     22 A               2
                        (       1.618 eV)
    57      57       --         0.078 au  fB            1.00     23 A               2
                        (       2.117 eV)
    58      58       --         0.093 au  fB            1.00     24 A               2
                        (       2.528 eV)
    59      59       --         0.119 au  fB            1.00     25 A               2
                        (       3.246 eV)
    60      60       --         0.162 au  fB            1.00     26 A               2
                        (       4.412 eV)
    61      61       --         0.163 au  fB            1.00     27 A               2
                        (       4.444 eV)
    62      62       --         0.190 au  fB            1.00     28 A               2
                        (       5.164 eV)
    63      63       --         0.210 au  fB            1.00     29 A               2
                        (       5.707 eV)
    64      64       --         0.211 au  fB            1.00     30 A               2
                        (       5.750 eV)
    65      65       --         0.266 au  fB            1.00     31 A               2
                        (       7.241 eV)
    66      66       --         0.271 au  fB            1.00     32 A               2
                        (       7.368 eV)
    67      67       --         0.296 au  fB            1.00     33 A               2
                        (       8.066 eV)
    68      68       --         0.316 au  fB            1.00     34 A               2
                        (       8.588 eV)
    69      69       --         0.342 au  fB            1.00     35 A               2
                        (       9.311 eV)
    70      70       --         0.368 au  fB            1.00     36 A               2
                        (      10.007 eV)
    71      71       --         0.380 au  fB            1.00     37 A               2
                        (      10.329 eV)
    72      72       --         0.402 au  fB            1.00     38 A               2
                        (      10.937 eV)
    73      73       --         0.428 au  fB            1.00     39 A               2
                        (      11.655 eV)
    74      74       --         0.458 au  fB            1.00     40 A               2
                        (      12.453 eV)
    75      75       --         0.460 au  fB            1.00     41 A               2
                        (      12.508 eV)
    76      76       --         0.466 au  fB            1.00     42 A               2
                        (      12.678 eV)
    77      77       --         0.510 au  fB            1.00     43 A               2
                        (      13.888 eV)
    78      78       --         0.534 au  fB            1.00     44 A               2
                        (      14.530 eV)
    79      79       --         0.615 au  fB            1.00     45 A               2
                        (      16.748 eV)
    80      80       --         0.669 au  fB            1.00     46 A               2
                        (      18.201 eV)
    81      81       --         0.714 au  fB            1.00     47 A               2
                        (      19.418 eV)
    82      82       --         0.767 au  fB            1.00     48 A               2
                        (      20.870 eV)
    83      83       --         0.820 au  fB            1.00     49 A               2
                        (      22.320 eV)
    84      84       --         0.827 au  fB            1.00     50 A               2
                        (      22.505 eV)
    85      85       --         0.893 au  fB            1.00     51 A               2
                        (      24.292 eV)
    86      86       --         0.933 au  fB            1.00     52 A               2
                        (      25.386 eV)
    87      87       --         0.974 au  fB            1.00     53 A               2
                        (      26.509 eV)
    88      88       --         1.045 au  fB            1.00     54 A               2
                        (      28.426 eV)
    89      89       --         1.049 au  fB            1.00     55 A               2
                        (      28.545 eV)
    90      90       --         1.104 au  fB            1.00     56 A               2
                        (      30.043 eV)
    91      91       --         1.125 au  fB            1.00     57 A               2
                        (      30.613 eV)
    92      92       --         1.178 au  fB            1.00     58 A               2
                        (      32.046 eV)
    93      93       --         1.224 au  fB            1.00     59 A               2
                        (      33.319 eV)
    94      94       --         1.227 au  fB            1.00     60 A               2
                        (      33.381 eV)
    95      95       --         1.253 au  fB            1.00     61 A               2
                        (      34.108 eV)
    96      96       --         1.254 au  fB            1.00     62 A               2
                        (      34.117 eV)
    97      97       --         1.263 au  fB            1.00     63 A               2
                        (      34.355 eV)
    98      98       --         1.306 au  fB            1.00     64 A               2
                        (      35.548 eV)
    99      99       --         1.324 au  fB            1.00     65 A               2
                        (      36.015 eV)
   100     100       --         1.422 au  fB            1.00     66 A               2
                        (      38.705 eV)
   101     101       --         1.479 au  fB            1.00     67 A               2
                        (      40.249 eV)
   102     102       --         1.537 au  fB            1.00     68 A               2
                        (      41.811 eV)
   103     103       --         1.593 au  fB            1.00     69 A               2
                        (      43.346 eV)
   104     104       --         1.603 au  fB            1.00     70 A               2
                        (      43.629 eV)
   105     105       --         1.749 au  fB            1.00     71 A               2
                        (      47.580 eV)
   106     106       --         1.773 au  fB            1.00     72 A               2
                        (      48.249 eV)
   107     107       --         1.845 au  fB            1.00     73 A               2
                        (      50.205 eV)
   108     108       --         1.877 au  fB            1.00     74 A               2
                        (      51.077 eV)
   109     109       --         1.961 au  fB            1.00     75 A               2
                        (      53.359 eV)
   110     110       --         2.020 au  fB            1.00     76 A               2
                        (      54.972 eV)
   111     111       --         2.071 au  fB            1.00     77 A               2
                        (      56.366 eV)
   112     112       --         2.174 au  fB            1.00     78 A               2
                        (      59.169 eV)
   113     113       --         2.186 au  fB            1.00     79 A               2
                        (      59.472 eV)
   114     114       --         2.212 au  fB            1.00     80 A               2
                        (      60.188 eV)
   115     115       --         2.271 au  fB            1.00     81 A               2
                        (      61.804 eV)
   116     116       --         2.326 au  fB            1.00     82 A               2
                        (      63.297 eV)
   117     117       --         2.336 au  fB            1.00     83 A               2
                        (      63.557 eV)
   118     118       --         2.412 au  fB            1.00     84 A               2
                        (      65.632 eV)
   119     119       --         2.440 au  fB            1.00     85 A               2
                        (      66.383 eV)
   120     120       --         2.462 au  fB            1.00     86 A               2
                        (      66.989 eV)
   121     121       --         2.622 au  fB            1.00     87 A               2
                        (      71.335 eV)
   122     122       --         2.726 au  fB            1.00     88 A               2
                        (      74.179 eV)
   123     123       --         2.747 au  fB            1.00     89 A               2
                        (      74.755 eV)
   124     124       --         2.758 au  fB            1.00     90 A               2
                        (      75.054 eV)
   125     125       --         2.828 au  fB            1.00     91 A               2
                        (      76.951 eV)
   126     126       --         2.874 au  fB            1.00     92 A               2
                        (      78.215 eV)
   127     127       --         2.888 au  fB            1.00     93 A               2
                        (      78.597 eV)
   128     128       --         2.936 au  fB            1.00     94 A               2
                        (      79.881 eV)
   129     129       --         2.948 au  fB            1.00     95 A               2
                        (      80.231 eV)
   130     130       --         2.995 au  fB            1.00     96 A               2
                        (      81.487 eV)
   131     131       --         3.101 au  fB            1.00     97 A               2
                        (      84.385 eV)
   132     132       --         3.203 au  fB            1.00     98 A               2
                        (      87.145 eV)
   133     133       --         3.295 au  fB            1.00     99 A               2
                        (      89.668 eV)
   134     134       --         3.302 au  fB            1.00    100 A               2
                        (      89.862 eV)
   135     135       --         3.381 au  fB            1.00    101 A               2
                        (      91.995 eV)
   136     136       --         3.410 au  fB            1.00    102 A               2
                        (      92.787 eV)
   137     137       --         3.505 au  fB            1.00    103 A               2
                        (      95.374 eV)
   138     138       --         3.610 au  fB            1.00    104 A               2
                        (      98.244 eV)
   139     139       --         3.722 au  fB            1.00    105 A               2
                        (     101.272 eV)
   140     140       --         3.797 au  fB            1.00    106 A               2
                        (     103.314 eV)
   141     141       --         3.969 au  fB            1.00    107 A               2
                        (     107.989 eV)
   142     142       --         4.112 au  fB            1.00    108 A               2
                        (     111.894 eV)
   143     143       --         4.123 au  fB            1.00    109 A               2
                        (     112.187 eV)
   144     144       --         4.269 au  fB            1.00    110 A               2
                        (     116.170 eV)
   145     145       --         4.390 au  fB            1.00    111 A               2
                        (     119.461 eV)
   146     146       --         4.453 au  fB            1.00    112 A               2
                        (     121.167 eV)
   147     147       --         4.628 au  fB            1.00    113 A               2
                        (     125.923 eV)
   148     148       --         4.680 au  fB            1.00    114 A               2
                        (     127.356 eV)
   149     149       --         4.954 au  fB            1.00    115 A               2
                        (     134.810 eV)
   150     150       --         5.015 au  fB            1.00    116 A               2
                        (     136.454 eV)
   151     151       --         5.024 au  fB            1.00    117 A               2
                        (     136.719 eV)
   152     152       --         5.081 au  fB            1.00    118 A               2
                        (     138.252 eV)
   153     153       --         5.143 au  fB            1.00    119 A               2
                        (     139.943 eV)
   154     154       --         5.567 au  fB            1.00    120 A               2
                        (     151.480 eV)
   155     155       --         5.740 au  fB            1.00    121 A               2
                        (     156.186 eV)
   156     156       --         5.873 au  fB            1.00    122 A               2
                        (     159.826 eV)
   157     157       --         5.901 au  fB            1.00    123 A               2
                        (     160.588 eV)
   158     158       --         6.188 au  fB            1.00    124 A               2
                        (     168.377 eV)
   159     159       --         6.325 au  fB            1.00    125 A               2
                        (     172.103 eV)
   160     160       --         6.404 au  fB            1.00    126 A               2
                        (     174.269 eV)
   161     161       --         6.482 au  fB            1.00    127 A               2
                        (     176.389 eV)
   162     162       --         6.749 au  fB            1.00    128 A               2
                        (     183.637 eV)
   163     163       --         7.096 au  fB            1.00    129 A               2
                        (     193.090 eV)
   164     164       --         7.296 au  fB            1.00    130 A               2
                        (     198.530 eV)
   165     165       --         7.311 au  fB            1.00    131 A               2
                        (     198.954 eV)
   166     166       --         7.500 au  fB            1.00    132 A               2
                        (     204.075 eV)
   167     167       --         7.595 au  fB            1.00    133 A               2
                        (     206.662 eV)
   168     168       --         9.592 au  fB            1.00    134 A               2
                        (     261.016 eV)
   169     169       --        13.853 au  fB            1.00    135 A               2
                        (     376.959 eV)
   170     170       --        18.917 au  fB            1.00    136 A               2
                        (     514.759 eV)
   171     171       --        18.947 au  fB            1.00    137 A               2
                        (     515.563 eV)
   172     172       --        19.475 au  fB            1.00    138 A               2
                        (     529.947 eV)
   173     173       --        53.831 au  fB            1.00    139 A               2
                        (    1464.826 eV)
   174     174       --        58.033 au  fB            1.00    140 A               2
                        (    1579.148 eV)
   175     175       --       209.697 au  fB            1.00    141 A               2
                        (    5706.151 eV)



 ================================
 (Slater-type)  F U N C T I O N S  ***  (Basis and Fit)  ***
 ================================
  

 Atom Type    1  (Cl)
 ==============

 Valence Basis Sets:  14
 -----------------------
   1 S   20.300000
   1 S   15.250000
   2 S    6.250000
   2 S    4.450000
   2 P    8.850000
   2 P    5.050000
   3 S    3.450000
   3 S    2.300000
   3 S    1.600000
   3 P    3.350000
   3 P    2.050000
   3 P    1.200000
   3 D    2.000000
   4 F    2.000000

 Atom Type    2  (C)
 ==============

 Valence Basis Sets:  10
 -----------------------
   1 S    7.680000
   1 S    5.000000
   2 S    1.280000
   2 S    2.100000
   2 S    4.600000
   2 P    0.820000
   2 P    1.480000
   2 P    2.940000
   3 D    2.200000
   4 F    3.300000

 Atom Type    3  (Cl)
 ==============

 Valence Basis Sets:  14
 -----------------------
   1 S   20.300000
   1 S   15.250000
   2 S    6.250000
   2 S    4.450000
   2 P    8.850000
   2 P    5.050000
   3 S    3.450000
   3 S    2.300000
   3 S    1.600000
   3 P    3.350000
   3 P    2.050000
   3 P    1.200000
   3 D    2.000000
   4 F    2.000000

 Atom Type    4  (H)
 ==============

 Valence Basis Sets:   5
 -----------------------
   1 S    0.690000
   1 S    0.920000
   1 S    1.580000
   2 P    1.250000
   3 D    2.500000


 BAS: List of all Elementary Cartesian Basis Functions
 =====================================================

 The numbering in the list below (to the right of the function characteristics) is referred
 to in print-outs of MO eigenvectors and Mulliken populations in the BAS representation
 (as contrasted to the SFO representation).

 Notes:
 1. The functions are characterized by a polynomial prefactor (powers of x,y,z and r) and
    an exponential decay factor alpha.
 2. Since the basis sets are specific for an atom TYPE, the individual functions occur on
    all atoms of that type.
 3. The word 'Core' in the left margin signals that it is a Core Function (CF) : not a
    degree of freedom in the valence set, but only used to ensure orthogonalization of
    the other valence basis functions on the frozen Core Orbitals.


 (power of) X  Y  Z  R     Alpha  on Atom
            ==========     =====     ==========

 Cl                                   1
                                  ---------------------------------------------------------------------------
            0  0  0  0    20.300      1
            0  0  0  0    15.250      2
            0  0  0  1     6.250      3
            0  0  0  1     4.450      4
            1  0  0  0     8.850      5
            0  1  0  0     8.850      6
            0  0  1  0     8.850      7
            1  0  0  0     5.050      8
            0  1  0  0     5.050      9
            0  0  1  0     5.050     10
            0  0  0  2     3.450     11
            0  0  0  2     2.300     12
            0  0  0  2     1.600     13
            1  0  0  1     3.350     14
            0  1  0  1     3.350     15
            0  0  1  1     3.350     16
            1  0  0  1     2.050     17
            0  1  0  1     2.050     18
            0  0  1  1     2.050     19
            1  0  0  1     1.200     20
            0  1  0  1     1.200     21
            0  0  1  1     1.200     22
            2  0  0  0     2.000     23
            1  1  0  0     2.000     24
            1  0  1  0     2.000     25
            0  2  0  0     2.000     26
            0  1  1  0     2.000     27
            0  0  2  0     2.000     28
            3  0  0  0     2.000     29
            2  1  0  0     2.000     30
            2  0  1  0     2.000     31
            1  2  0  0     2.000     32
            1  1  1  0     2.000     33
            1  0  2  0     2.000     34
            0  3  0  0     2.000     35
            0  2  1  0     2.000     36
            0  1  2  0     2.000     37
            0  0  3  0     2.000     38

 C                                    2    3
                                  ---------------------------------------------------------------------------
            0  0  0  0     7.680     39   69
            0  0  0  0     5.000     40   70
            0  0  0  1     1.280     41   71
            0  0  0  1     2.100     42   72
            0  0  0  1     4.600     43   73
            1  0  0  0     0.820     44   74
            0  1  0  0     0.820     45   75
            0  0  1  0     0.820     46   76
            1  0  0  0     1.480     47   77
            0  1  0  0     1.480     48   78
            0  0  1  0     1.480     49   79
            1  0  0  0     2.940     50   80
            0  1  0  0     2.940     51   81
            0  0  1  0     2.940     52   82
            2  0  0  0     2.200     53   83
            1  1  0  0     2.200     54   84
            1  0  1  0     2.200     55   85
            0  2  0  0     2.200     56   86
            0  1  1  0     2.200     57   87
            0  0  2  0     2.200     58   88
            3  0  0  0     3.300     59   89
            2  1  0  0     3.300     60   90
            2  0  1  0     3.300     61   91
            1  2  0  0     3.300     62   92
            1  1  1  0     3.300     63   93
            1  0  2  0     3.300     64   94
            0  3  0  0     3.300     65   95
            0  2  1  0     3.300     66   96
            0  1  2  0     3.300     67   97
            0  0  3  0     3.300     68   98

 Cl                                   4
                                  ---------------------------------------------------------------------------
            0  0  0  0    20.300     99
            0  0  0  0    15.250    100
            0  0  0  1     6.250    101
            0  0  0  1     4.450    102
            1  0  0  0     8.850    103
            0  1  0  0     8.850    104
            0  0  1  0     8.850    105
            1  0  0  0     5.050    106
            0  1  0  0     5.050    107
            0  0  1  0     5.050    108
            0  0  0  2     3.450    109
            0  0  0  2     2.300    110
            0  0  0  2     1.600    111
            1  0  0  1     3.350    112
            0  1  0  1     3.350    113
            0  0  1  1     3.350    114
            1  0  0  1     2.050    115
            0  1  0  1     2.050    116
            0  0  1  1     2.050    117
            1  0  0  1     1.200    118
            0  1  0  1     1.200    119
            0  0  1  1     1.200    120
            2  0  0  0     2.000    121
            1  1  0  0     2.000    122
            1  0  1  0     2.000    123
            0  2  0  0     2.000    124
            0  1  1  0     2.000    125
            0  0  2  0     2.000    126
            3  0  0  0     2.000    127
            2  1  0  0     2.000    128
            2  0  1  0     2.000    129
            1  2  0  0     2.000    130
            1  1  1  0     2.000    131
            1  0  2  0     2.000    132
            0  3  0  0     2.000    133
            0  2  1  0     2.000    134
            0  1  2  0     2.000    135
            0  0  3  0     2.000    136

 H                                    5    6    7    8    9
                                  ---------------------------------------------------------------------------
            0  0  0  0     0.690    137  149  161  173  185
            0  0  0  0     0.920    138  150  162  174  186
            0  0  0  0     1.580    139  151  163  175  187
            1  0  0  0     1.250    140  152  164  176  188
            0  1  0  0     1.250    141  153  165  177  189
            0  0  1  0     1.250    142  154  166  178  190
            2  0  0  0     2.500    143  155  167  179  191
            1  1  0  0     2.500    144  156  168  180  192
            1  0  1  0     2.500    145  157  169  181  193
            0  2  0  0     2.500    146  158  170  182  194
            0  1  1  0     2.500    147  159  171  183  195
            0  0  2  0     2.500    148  160  172  184  196

 Total number of charge fitting functions (nprimf)       630
 Total number of Cartesian basis functions (naos)        196
 Total number of Cartesian core functions  (ncos)          0

 ***************************************************************************************************



                                              ***********************
                                              *  T E C H N I C A L  *
                                              ***********************
  



 =============================================================
 P A R A L L E L I Z A T I O N  and  V E C T O R I Z A T I O N
 =============================================================
  
 Nr of parallel processes:                                1
 Maximum vector length in NumInt loops:                 128



 =====================
 S C F   U P D A T E S
 =====================
  
 Max. nr. of cycles:                               200
 Convergence criterion:                              0.0000010000
   secondary criterion:                              0.0010000000

 Mix parameter (when DIIS does not apply):           0.2000000000
 Mixed ADIIS+SDIIS will be used                  
    Max number of expansion vectors:                10
    Pure ADIIS when Max([F,P]) is above              0.1000000000
    Pure SDIIS when Max([F,P]) is below              0.0010000000
 Automatic ElectronSmearing (in case of problematic SCF convergence) disabled



 =================
 P R E C I S I O N  ***  (General: NumInt, NeglectFunctionTails, ...)  ***
 =================
  

 NumInt:           Target precision:                 4.0000000000
 -------           Initial precision:                4.0000000000
                   Min. precision (optimization):    4.0000000000

 Neglect Functions:          Basis functions:        0.1000000000E-05
 ------------------          Fit functions:          0.1000000000E-05



 ===========================
 L I N E A R   S C A L I N G
 ===========================
  

 Cut-off radii density fit:                        0.1000000000E-07
 Overlap cut-off criterion AO matrix elements:     0.1000000000E-05
 Cut-offs for Coulomb potential and fitted density:0.1000000000E-07
 Cut-off criterion for Coulomb multipole terms:    0.1000000000E-07
 Progressive Convergence parameter:                 0.000000000    
 ***************************************************************************************************



                                            ***************************
                                            *  C O M P U T A T I O N  *
                                            ***************************
  

 Number of elements of the density matrix on this node (used, total):     19306     19306



 ===========================================
 Numerical Integration : Fuzzy Cells (Becke)
 ===========================================
  
 Becke grid quality: NORMAL         
  
 Lebedev angular grid order:             min:  11 max:  23
 Nr. of radial points:                   min:  46 max:  67

 Total nr. of points:      61994
 Nr. of blocks:              485
 Block length:               128
 Nr. of dummy points:         86


 Test of Precision of the Numerical Integration Grid
 ===================================================

 Integral of the Total Core Density:                   0.00000000000000



 ========================
 Density Fitting (zlmFit)
 ========================
  
 ZlmFit Fit Quality: NORMAL         
  
 Max L-expansion:                        min:   6 max:   7
 Nr. of radial interpolation points:     min:  39 max:  60



 =====
 S C F  ***  ScaSCF  ***
 =====
  
 Initial density matrix is calculated as sum of fragments

 CYCLE    1
 SCF Error: norm([F,P])=      0.635296762365, max([F,P])=      0.309252932832
 orbitals (Q,E):
 ---------------
 A :17...36          ( 2.00    -0.2876)  ( 2.00    -0.2829)  ( 2.00    -0.2283)  ( 2.00    -0.1781)
                     ( 2.00    -0.1610)  ( 2.00    -0.1603)  ( 2.00    -0.1197)  ( 2.00    -0.0020)
                     ( 2.00     0.0185)  ( 2.00     0.0189)  ( 0.00     0.1013)  ( 0.00     0.1253)
                     ( 0.00     0.1551)  ( 0.00     0.1554)  ( 0.00     0.1810)  ( 0.00     0.2126)
                     ( 0.00     0.2175)  ( 0.00     0.2661)  ( 0.00     0.3015)  ( 0.00     0.3232)

 CYCLE    2
  SDIIS (wt  0.000):  0.3890  0.6110
 A-DIIS (wt  1.000):  0.9930  0.0070
  DIIS coefficients:  0.9930  0.0070
 SCF Error: norm([F,P])=      0.494991921995, max([F,P])=      0.180084716530
 orbitals (Q,E):
 ---------------
 A :17...27          ( 2.00    -0.2872)  ( 2.00    -0.2817)  ( 2.00    -0.2282)  ( 2.00    -0.1781)
                     ( 2.00    -0.1598)  ( 2.00    -0.1591)  ( 2.00    -0.1192)  ( 2.00    -0.0030)
                     ( 2.00     0.0169)  ( 2.00     0.0172)  ( 0.00     0.1008)

 CYCLE    3
  SDIIS (wt  0.000):  0.3538 -2.0000  2.6462
 A-DIIS (wt  1.000):  0.9928  0.0000  0.0072
  DIIS coefficients:  0.9928  0.0000  0.0072
 SCF Error: norm([F,P])=      0.480228923698, max([F,P])=      0.172773599505
 orbitals (Q,E):
 ---------------
 A :17...27          ( 2.00    -0.2872)  ( 2.00    -0.2817)  ( 2.00    -0.2282)  ( 2.00    -0.1781)
                     ( 2.00    -0.1598)  ( 2.00    -0.1591)  ( 2.00    -0.1192)  ( 2.00    -0.0030)
                     ( 2.00     0.0169)  ( 2.00     0.0172)  ( 0.00     0.1008)

 CYCLE    4
  SDIIS (wt  0.000): -2.0000  3.0000
 A-DIIS (wt  1.000):  0.0000  1.0000
  DIIS coefficients:  0.0000  1.0000
 SCF Error: norm([F,P])=      0.480175638075, max([F,P])=      0.172801844822
 orbitals (Q,E):
 ---------------
 A :17...27          ( 2.00    -0.2780)  ( 2.00    -0.2438)  ( 2.00    -0.2193)  ( 2.00    -0.2147)
                     ( 2.00    -0.1892)  ( 2.00    -0.1335)  ( 2.00    -0.1266)  ( 2.00    -0.0372)
                     ( 2.00     0.0013)  ( 2.00     0.0013)  ( 0.00     0.1084)

 CYCLE    5
  SDIIS (wt  0.000): -2.0000  2.7496  0.2504
 A-DIIS (wt  1.000):  0.0000  0.7647  0.2353
  DIIS coefficients:  0.0000  0.7647  0.2353
 SCF Error: norm([F,P])=      1.211078023955, max([F,P])=      0.420951924349
 orbitals (Q,E):
 ---------------
 A :17...27          ( 2.00    -0.2619)  ( 2.00    -0.2113)  ( 2.00    -0.2008)  ( 2.00    -0.1619)
                     ( 2.00    -0.1312)  ( 2.00    -0.1064)  ( 2.00    -0.1047)  ( 2.00    -0.0744)
                     ( 2.00    -0.0743)  ( 2.00    -0.0484)  ( 0.00     0.0967)

 CYCLE    6
  SDIIS (wt  0.072): -2.0000  2.5083  0.0959  0.3957
 A-DIIS (wt  0.928): -0.0000  0.3227  0.0000  0.6773
  DIIS coefficients: -0.1433  0.4793  0.0069  0.6571
 SCF Error: norm([F,P])=      0.323214640130, max([F,P])=      0.092908055799
 orbitals (Q,E):
 ---------------
 A :17...27          ( 2.00    -0.3005)  ( 2.00    -0.2497)  ( 2.00    -0.2322)  ( 2.00    -0.1909)
                     ( 2.00    -0.1223)  ( 2.00    -0.1007)  ( 2.00    -0.1003)  ( 2.00    -0.0366)
                     ( 2.00    -0.0341)  ( 2.00    -0.0295)  ( 0.00     0.0670)

 CYCLE    7
  SDIIS (wt  0.209): -2.0000  2.1862 -0.0394  0.4628  0.3904
 A-DIIS (wt  0.791):  0.0000  0.0694  0.0000  0.4114  0.5192
  DIIS coefficients: -0.4170  0.5108 -0.0082  0.4221  0.4924
 SCF Error: norm([F,P])=      0.307959996156, max([F,P])=      0.079358423099
 orbitals (Q,E):
 ---------------
 A :17...27          ( 2.00    -0.2751)  ( 2.00    -0.2416)  ( 2.00    -0.2215)  ( 2.00    -0.1741)
                     ( 2.00    -0.1162)  ( 2.00    -0.1157)  ( 2.00    -0.1069)  ( 2.00    -0.0410)
                     ( 2.00    -0.0390)  ( 2.00    -0.0348)  ( 0.00     0.0909)

 CYCLE    8
  SDIIS (wt  0.332): -2.0000  2.0547  0.0046  0.1984  0.3514  0.3909
 A-DIIS (wt  0.668):  0.0000  0.0000  0.0000  0.0871  0.3120  0.6010
  DIIS coefficients: -0.6645  0.6826  0.0015  0.1241  0.3251  0.5312
 SCF Error: norm([F,P])=      0.187622342745, max([F,P])=      0.067107915237
 orbitals (Q,E):
 ---------------
 A :17...27          ( 2.00    -0.2845)  ( 2.00    -0.2348)  ( 2.00    -0.2260)  ( 2.00    -0.1815)
                     ( 2.00    -0.1163)  ( 2.00    -0.0982)  ( 2.00    -0.0979)  ( 2.00    -0.0577)
                     ( 2.00    -0.0565)  ( 2.00    -0.0426)  ( 0.00     0.0773)

 CYCLE    9
  SDIIS (wt  0.676): -0.4037  0.4192 -0.0133  0.0643  0.1741  0.3170  0.4424
 A-DIIS (wt  0.324):  0.0000  0.0000  0.0000  0.0000  0.0000  0.2888  0.7112
  DIIS coefficients: -0.2727  0.2832 -0.0090  0.0434  0.1176  0.3079  0.5296
 SCF Error: norm([F,P])=      0.103710562584, max([F,P])=      0.033120877138
 orbitals (Q,E):
 ---------------
 A :17...27          ( 2.00    -0.2851)  ( 2.00    -0.2377)  ( 2.00    -0.2317)  ( 2.00    -0.1833)
                     ( 2.00    -0.1139)  ( 2.00    -0.1058)  ( 2.00    -0.1057)  ( 2.00    -0.0440)
                     ( 2.00    -0.0423)  ( 2.00    -0.0361)  ( 0.00     0.0793)

 CYCLE   10
  SDIIS (wt  0.868):  0.0051 -0.0158 -0.0031  0.0113  0.0519  0.2117  0.3580  0.3808
 A-DIIS (wt  0.132):  0.0000  0.0000  0.0000  0.0000  0.0000  0.0000  0.1789  0.8211
  DIIS coefficients:  0.0045 -0.0137 -0.0027  0.0098  0.0451  0.1837  0.3344  0.4389
 SCF Error: norm([F,P])=      0.041857540545, max([F,P])=      0.014056047220
 orbitals (Q,E):
 ---------------
 A :17...27          ( 2.00    -0.2822)  ( 2.00    -0.2349)  ( 2.00    -0.2289)  ( 2.00    -0.1806)
                     ( 2.00    -0.1131)  ( 2.00    -0.1048)  ( 2.00    -0.1046)  ( 2.00    -0.0485)
                     ( 2.00    -0.0470)  ( 2.00    -0.0383)  ( 0.00     0.0807)

 CYCLE   11
  SDIIS (wt  0.987): -0.0435 -0.3696  0.4117 -0.0012  0.0032  0.0029  0.0424  0.1281  0.2960  0.5299
 A-DIIS (wt  0.013):  0.0000  0.0000  0.0000  0.0000  0.0000  0.0000  0.0000  0.0000  0.0157  0.9843
  DIIS coefficients: -0.0429 -0.3649  0.4065 -0.0012  0.0032  0.0029  0.0419  0.1265  0.2924  0.5357
 SCF Error: norm([F,P])=      0.008679308826, max([F,P])=      0.002248378102
 orbitals (Q,E):
 ---------------
 A :17...27          ( 2.00    -0.2830)  ( 2.00    -0.2354)  ( 2.00    -0.2294)  ( 2.00    -0.1813)
                     ( 2.00    -0.1134)  ( 2.00    -0.1044)  ( 2.00    -0.1043)  ( 2.00    -0.0482)
                     ( 2.00    -0.0467)  ( 2.00    -0.0383)  ( 0.00     0.0801)

 CYCLE   12
  SDIIS (wt  1.000):  0.4871 -0.4881 -0.0004  0.0008 -0.0011  0.0087  0.0336  0.1041  0.2301  0.6251
  DIIS coefficients:  0.4871 -0.4881 -0.0004  0.0008 -0.0011  0.0087  0.0336  0.1041  0.2301  0.6251
 SCF Error: norm([F,P])=      0.000796284986, max([F,P])=      0.000242519209
 orbitals (Q,E):
 ---------------
 A :17...27          ( 2.00    -0.2829)  ( 2.00    -0.2354)  ( 2.00    -0.2294)  ( 2.00    -0.1812)
                     ( 2.00    -0.1134)  ( 2.00    -0.1045)  ( 2.00    -0.1043)  ( 2.00    -0.0481)
                     ( 2.00    -0.0467)  ( 2.00    -0.0383)  ( 0.00     0.0802)

 CYCLE   13
  SDIIS (wt  1.000): -0.0003 -0.0001  0.0002 -0.0008  0.0024  0.0093  0.0364  0.0843  0.3152  0.5533
  DIIS coefficients: -0.0003 -0.0001  0.0002 -0.0008  0.0024  0.0093  0.0364  0.0843  0.3152  0.5533
 SCF Error: norm([F,P])=      0.000217608883, max([F,P])=      0.000043662834
 orbitals (Q,E):
 ---------------
 A :17...27          ( 2.00    -0.2829)  ( 2.00    -0.2354)  ( 2.00    -0.2294)  ( 2.00    -0.1812)
                     ( 2.00    -0.1134)  ( 2.00    -0.1045)  ( 2.00    -0.1043)  ( 2.00    -0.0481)
                     ( 2.00    -0.0467)  ( 2.00    -0.0383)  ( 0.00     0.0802)

 CYCLE   14
  SDIIS (wt  1.000): -0.0000  0.0000 -0.0002  0.0002  0.0008  0.0046  0.0107  0.0608  0.1796  0.7435
  DIIS coefficients: -0.0000  0.0000 -0.0002  0.0002  0.0008  0.0046  0.0107  0.0608  0.1796  0.7435
 SCF Error: norm([F,P])=      0.000038009858, max([F,P])=      0.000010175622
 orbitals (Q,E):
 ---------------
 A :17...27          ( 2.00    -0.2829)  ( 2.00    -0.2354)  ( 2.00    -0.2294)  ( 2.00    -0.1812)
                     ( 2.00    -0.1134)  ( 2.00    -0.1045)  ( 2.00    -0.1043)  ( 2.00    -0.0481)
                     ( 2.00    -0.0467)  ( 2.00    -0.0383)  ( 0.00     0.0802)

 CYCLE   15
  SDIIS (wt  1.000): -0.0000 -0.0001  0.0001  0.0002  0.0011  0.0024  0.0171  0.0636  0.3317  0.5839
  DIIS coefficients: -0.0000 -0.0001  0.0001  0.0002  0.0011  0.0024  0.0171  0.0636  0.3317  0.5839
 SCF Error: norm([F,P])=      0.000010146821, max([F,P])=      0.000002065339
 orbitals (Q,E):
 ---------------
 A :17...27          ( 2.00    -0.2829)  ( 2.00    -0.2354)  ( 2.00    -0.2294)  ( 2.00    -0.1812)
                     ( 2.00    -0.1134)  ( 2.00    -0.1045)  ( 2.00    -0.1043)  ( 2.00    -0.0481)
                     ( 2.00    -0.0467)  ( 2.00    -0.0383)  ( 0.00     0.0802)

 CYCLE   16
  SDIIS (wt  1.000): -0.0000  0.0000  0.0000  0.0001  0.0003  0.0026  0.0088  0.0615  0.1759  0.7509
  DIIS coefficients: -0.0000  0.0000  0.0000  0.0001  0.0003  0.0026  0.0088  0.0615  0.1759  0.7509
 SCF Error: norm([F,P])=      0.000001778632, max([F,P])=      0.000000516984
 orbitals (Q,E):
 ---------------
 A :17...27          ( 2.00    -0.2829)  ( 2.00    -0.2354)  ( 2.00    -0.2294)  ( 2.00    -0.1812)
                     ( 2.00    -0.1134)  ( 2.00    -0.1045)  ( 2.00    -0.1043)  ( 2.00    -0.0481)
                     ( 2.00    -0.0467)  ( 2.00    -0.0383)  ( 0.00     0.0802)

 SCF CONVERGED

 CYCLE   17
 ***************************************************************************************************



                                                *******************
                                                *  R E S U L T S  *
                                                *******************
  
 *** Using FIT density in Focky
  SDIIS (wt  1.000): -0.0000 -0.0000 -0.0000  0.0000  0.0003  0.0011  0.0115  0.0415  0.2181  0.7274
  DIIS coefficients: -0.0000 -0.0000 -0.0000  0.0000  0.0003  0.0011  0.0115  0.0415  0.2181  0.7274
 SCF Error: norm([F,P])=      0.000000254051, max([F,P])=      0.000000071303

 Scaled ZORA Orbital Energies, per Irrep and Spin:
 =================================================
                        Occup              E (au)              E (eV)       Diff (eV) with prev. cycle
                        -----      --------------------        ------       --------------------------
 A
              17        2.000     -0.28292811131958E+00        -7.699               2.04E-07
              18        2.000     -0.23538413500881E+00        -6.405               1.92E-07
              19        2.000     -0.22944202614205E+00        -6.243               5.11E-07
              20        2.000     -0.18124554455612E+00        -4.932               3.97E-07
              21        2.000     -0.11340990644126E+00        -3.086              -1.47E-07
              22        2.000     -0.10449827650723E+00        -2.844               3.09E-07
              23        2.000     -0.10433639509218E+00        -2.839               2.92E-07
              24        2.000     -0.48136969792089E-01        -1.310              -5.97E-07
              25        2.000     -0.46653946510222E-01        -1.270              -6.13E-07
              26        2.000     -0.38258112022227E-01        -1.041              -2.51E-07
              27        0.000      0.80162470038179E-01         2.181
              28        0.000      0.13740241042425E+00         3.739
              29        0.000      0.15683356635790E+00         4.268
              30        0.000      0.15859232392482E+00         4.316
              31        0.000      0.19739036676902E+00         5.371
              32        0.000      0.21350741835392E+00         5.810
              33        0.000      0.24404964654117E+00         6.641
              34        0.000      0.27542251545362E+00         7.495
              35        0.000      0.32084500702411E+00         8.731
              36        0.000      0.33186012362717E+00         9.030
  
 HOMO :       26 A                -0.38258112022227E-01
 LUMO :       27 A                 0.80162470038179E-01
  


 All Electron Calculation, thus no Orbital Energies of the Core Orbitals are calculated


 Fit test: (difference of exact and fit density, squared integrated, result summed over spins)
         Sum-of-Fragments:                             0.00016995154569
         Orthogonalized Fragments:                     0.00017537558042
         SCF:                                          0.00017529159909



 ==========================
 Electron Density at Nuclei
 ==========================
  
 The electron density is calculated at points on a small sphere around the center of a nucleus.
 The printed electron density is the average electron density on these points.
 The radius of the sphere is the printed approximate finite nuclear radius.
 Note: ZORA-4 density is used, which includes small component density

         Atom        Nuclear Radius (Angstrom)             Electron Density (a.u.)
         ----        -------------------------             -----------------------
     1)   Cl                0.0000426624                             3312.03773
     2)   C                 0.0000320678                              127.24753
     3)   C                 0.0000320678                              127.06229
     4)   Cl                0.0000426624                             3312.06899
     5)   H                 0.0000181514                                0.36196
     6)   H                 0.0000181514                                0.51578
     7)   H                 0.0000181514                                0.51215
     8)   H                 0.0000181514                                0.51221
     9)   H                 0.0000181514                                0.51606



 =======================================
 M U L L I K E N   P O P U L A T I O N S
 =======================================
  
 The survey below gives for each atom:
 a) the total charge (Z minus electrons)
 b) the net spin polarization (nr of electrons spin-A minus spin-B)
 c) for each spin the atomic electron valence density (integrated) per L-value.

 Atom              Charge    Spin density          S         P         D         F
 ----              ------    ------------       ------    ------    ------    ------
 1 Cl             -0.6806                       5.9879   11.6835    0.0074    0.0018
 2 C               0.5028                       3.0382    2.4037    0.0518    0.0035
 3 C               0.4112                       2.9395    2.6029    0.0435    0.0029
 4 Cl             -0.4576                       5.9324   11.4978    0.0237    0.0037
 5 H               0.0621                       0.7690    0.1623    0.0066    0.0000
 6 H              -0.1918                       1.1027    0.0831    0.0060    0.0000
 7 H              -0.2270                       1.1380    0.0832    0.0059    0.0000
 8 H              -0.2272                       1.1382    0.0831    0.0059    0.0000
 9 H              -0.1919                       1.1028    0.0831    0.0060    0.0000

 Populations of individual BAS functions
 ----------------------------------------
 1 Cl           0.5876  1.3679  1.7525  0.2104  0.7378  0.7400  0.7392  1.2558  1.2528  1.2540
                0.6439  0.9730  0.4525  0.2908  0.3238  0.3094  0.9302  0.9807  0.9646  0.5795
                0.6854  0.6395  0.0061  0.0011  0.0035 -0.0030  0.0003 -0.0005  0.0045  0.0028
                0.0046 -0.0035  0.0002 -0.0004 -0.0029 -0.0016  0.0003 -0.0022
 2 C            0.5053  1.4838  0.1722  0.9163 -0.0393  0.0853 -0.2272 -0.1813  0.5687  0.8299
                0.7812  0.1272  0.2098  0.2101 -0.0119  0.0029  0.0161  0.0077  0.0165  0.0204
               -0.0037 -0.0026 -0.0036  0.0001  0.0002  0.0048  0.0004 -0.0010  0.0031  0.0059
 3 C            0.5067  1.4820  0.0893  0.9005 -0.0389  0.0684 -0.1896 -0.1388  0.7434  0.7932
                0.7501  0.1711  0.1972  0.2078 -0.0066  0.0026  0.0076  0.0055  0.0155  0.0189
               -0.0028 -0.0017 -0.0034 -0.0003  0.0002  0.0040 -0.0001 -0.0014  0.0026  0.0059
 4 Cl           0.5879  1.3675  1.7501  0.2173  0.7373  0.7407  0.7400  1.2568  1.2525  1.2535
                0.6194  1.0148  0.3753  0.2707  0.3173  0.3061  0.9576  1.0430  1.0267  0.4102
                0.6180  0.5675  0.0185  0.0009  0.0105 -0.0041  0.0002 -0.0024  0.0121  0.0059
                0.0096 -0.0079  0.0001 -0.0029 -0.0056 -0.0033 -0.0000 -0.0042
 5 H           -0.2737  0.8006  0.2421  0.0924  0.0285  0.0413  0.0094  0.0014  0.0019 -0.0046
                0.0003 -0.0018
 6 H            0.2325  0.5361  0.3341  0.0249  0.0323  0.0260 -0.0057  0.0011  0.0006  0.0103
                0.0016 -0.0019
 7 H            0.2348  0.5778  0.3254  0.0274  0.0335  0.0223 -0.0053  0.0014  0.0005  0.0100
                0.0015 -0.0021
 8 H            0.2348  0.5781  0.3253  0.0280  0.0326  0.0225 -0.0035  0.0012  0.0007  0.0077
                0.0013 -0.0015
 9 H            0.2329  0.5354  0.3345  0.0247  0.0321  0.0263 -0.0043  0.0010  0.0008  0.0084
                0.0014 -0.0013

 Gross Charges per Atom (Z minus electrons)
 ==========================================
            -0.6806    0.5028    0.4112   -0.4576    0.0621   -0.1918   -0.2270   -0.2272   -0.1919
 Net Total: -1.00000000


 Atom-Atom Population Matrix (off-diagonal elements not doubled)
 ===============================================================

     1 :    17.6963
     2 :     0.0843    4.1791
     3 :    -0.0319    0.5170    4.2839
     4 :    -0.0020   -0.0155   -0.0799   17.3619
     5 :     0.0098    0.0227    0.2391    0.1876    0.5377
     6 :    -0.0334    0.3949   -0.0481    0.0042   -0.0151    1.0389
     7 :    -0.0048   -0.0399    0.3784   -0.0013   -0.0147    0.0233    1.0613
     8 :    -0.0047   -0.0398    0.3786   -0.0014   -0.0144   -0.0544   -0.1207    1.0607
     9 :    -0.0331    0.3945   -0.0483    0.0040   -0.0149   -0.1184   -0.0546    0.0233    1.0395


 Frag-Frag Population Matrix (off-diagonal elements not doubled)
 ===============================================================

     1 :    17.6963
     2 :    -0.0158   34.3352



 =================================================
 H I R S H F E L D   C H A R G E   A N A L Y S I S
 =================================================
  
 For each fragment: the (numerical) integral of rho(scf) * rho(fragment)/rho(sum-of-fragments)
 (nuclear charges are included, electrons are counted negative)

 The fragments and their ordering are defined in the early G E O M E T R Y output section.
 If you use single-atom fragments, this usually implies that all atoms of the same
 chemical type are grouped together. This may not be the order in which you listed them
 in the input file!

  Fragment                       Charge
 ------------------------------------------
    1  fA                       -0.7499
    2  fB                       -0.2501

 Sum of these charges =         -0.99997036
 (accuracy NumInt/Tails)



 =============================
 V O R O N O I   C H A R G E S
 =============================
  
 For each atom: the (numerical) integral of the total electronic charge density in its Voronoi cell,
 i.e. the region of space that is closer to that atom than to any other atom.
 (cf. Wigner-Seitz cells in crystals)

 Within the Voronoi cell the subintegrals over the atomic sphere and the remaining part are evaluated
 separately to give the numbers of electrons (negative charge) in these regions.
 The net total charge in the cell (including the nuclear charge) is also given.

 Values are provided for
    a) the Initial (sum-of-fragments) density
    b) the Orthogonalized-Fragments density
    c) the SCF density
    d) the Voronoi Deformation Density (VDD): the difference SCF-Initial for the complete atomic cell

  Atom                Initial                    OrthFrag                   SCF
             Sphere RestCell NetTotal   Sphere RestCell NetTotal   Sphere RestCell NetTotal      VDD
 -------     ------------------------   ------------------------   ------------------------    -----
    1 Cl    -11.543   -6.195   -0.739  -11.568   -6.217   -0.786  -11.543   -5.975   -0.518    0.220
    2 C      -2.109   -2.901    0.990   -2.111   -2.871    1.018   -2.106   -2.834    1.059    0.069
    3 C      -2.110   -2.716    1.174   -2.112   -2.728    1.161   -2.112   -2.741    1.147   -0.027
    4 Cl    -10.172   -6.494    0.334  -10.173   -6.502    0.326  -10.174   -6.652    0.174   -0.160
    5 H      -0.078   -1.694   -0.772   -0.078   -1.701   -0.779   -0.077   -1.741   -0.818   -0.046
    6 H      -0.110   -1.429   -0.540   -0.112   -1.405   -0.517   -0.111   -1.415   -0.526    0.013
    7 H      -0.109   -1.337   -0.446   -0.110   -1.336   -0.446   -0.111   -1.378   -0.488   -0.042
    8 H      -0.110   -1.346   -0.456   -0.110   -1.345   -0.455   -0.111   -1.386   -0.497   -0.041
    9 H      -0.111   -1.435   -0.546   -0.112   -1.412   -0.523   -0.112   -1.421   -0.532    0.013
 ---------------------------------------------------------------------------------------------------
 Total NetCharge:              -1.000                     -1.000                     -1.000    0.000
 (accuracy NumInt/Tails)

 Remark: the 'NetTotal' Voronoi charges often do not match the Mulliken and/or Hirshfeld charges very
 well. This is caused by the fact that chemically different atoms are not treated in accordance with
 their relative sizes. (Voronoi cells are defined by boundary planes halfway between the atoms.)
 However, the CHANGES in charge, comparing 'Initial' to 'SCF' for instance, do give a fair indication
 of the flow of charge caused by the relaxation from sum-of-fragments to self-consistency.

 Warning: the absolute accuracy of the VDD charges obtained using the Fuzzy Cells (Becke) integration
 scheme is much poorer than the one obtained with an 'equivalent' Voronoi integration grid. 



 =================================================================
 M U L T I P O L E   D E R I V E D   C H A R G E   A N A L Y S I S
 =================================================================

 This charge analysis uses the atomic multipoles (obtained from the fitted density) up to some level X,
 and reconstructs these multipoles exactly (up to level X) by distributing charges over all atoms.
 This is achieved by using Lagrange multipliers and a weight function to keep the multipoles local.

 Dummy atoms can be included (by setting INCDUM in MDC-block to 1) to obtain a fractional charge.
 This is generally useful and necessary only for small symmetrical molecules, when there are not
 enough degrees of freedom to reconstruct the multipoles.

 Since the atomic multipoles are reconstructed up to level X,
 the molecular multipoles are represented also up to level X.
 The recommended level is to reconstruct up to quadrupole : -> MDC-q charges.

 See: M. Swart, P.Th. van Duijnen, J.G. Snijders, J.Comput.Chem., (2001), p. 79-88.

 ------------------------------------------------------------- 
 Atomic electronic multipole moments from SCF equations (a.u.)
 ------------------------------------------------------------- 

   atom        charge        dip-x     dip-y     dip-z      quad-xx   quad-xy   quad-xz   quad-yy   quad-yz   quad-zz
 --------------------------------------------------------------------------------------------------------------------
    1 Cl    -0.532671    -0.439814 -0.034389  0.276565     0.809711  0.076680 -0.611767 -0.664175 -0.047701 -0.145535
    2 C      0.154565    -0.203417 -0.017158  0.041739    -0.745708 -0.065613  0.195471  0.405537  0.015954  0.340171
    3 C      0.130515    -0.006988 -0.000140  0.045257    -0.502645 -0.042988  0.161422  0.266330  0.013354  0.236315
    4 Cl    -0.187120     0.681823  0.065138 -0.337741     1.348160  0.150728 -0.742208 -0.947957 -0.072575 -0.400203
    5 H     -0.231166     0.188217  0.017607 -0.081157     0.181633  0.019447 -0.076819 -0.123157 -0.006809 -0.058476
    6 H     -0.084226    -0.030369 -0.005195  0.027446    -0.185546  0.032002  0.071401  0.205831  0.072697 -0.020285
    7 H     -0.082878    -0.011332 -0.004323 -0.008326    -0.155022  0.033797  0.052751  0.169383  0.069073 -0.014361
    8 H     -0.082716    -0.011679  0.001970 -0.008479    -0.127439 -0.067501  0.066672  0.135031 -0.061996 -0.007592
    9 H     -0.084304    -0.030867  0.000609  0.027244    -0.157089 -0.072696  0.084978  0.170685 -0.063104 -0.013596

 --------------------------------------- 
 Multipole derived atomic charges (a.u.)
 --------------------------------------- 

 The MDC-m charges are just the Monopole terms in the multipole expansion, while for the MDC-d charges
 also the Dipoles are reconstructed. The usually preferred charges are the MDC-q charges.
 These reconstruct the Monopoles, Dipoles and Quadrupoles (both atomic AND molecular).

        Atom    Level:     MDC-m        MDC-d        MDC-q
 ---------------------------------------------------------
     1     Cl          -0.532671    -0.662470    -1.715924
     2     C            0.154565     0.030118    47.480340
     3     C            0.130515     0.172026   -64.980830
     4     Cl          -0.187120    -0.435782    -1.100241
     5     H           -0.231166    -0.010275     8.153863
     6     H           -0.084226     0.015925   -11.317838
     7     H           -0.082878    -0.062768    16.891871
     8     H           -0.082716    -0.062730    16.894135
     9     H           -0.084304     0.015956   -11.305376

 ------------------------------------------------ 
 Average absolute deviations in atomic multipoles
 ------------------------------------------------ 

 Stated here are the average differences between the atomic multipoles
 and the reconstructed atomic multipoles (from the distributed charges).
 If these values are not zero, this means there are not enough degrees of freedom,
 to be able to reconstruct the atomic multipoles. (This usually happens only
 for small and/or highly symmetric molecules). If this is the case, one could add
 dummy atoms as extra point charges (and setting INCDUM in MDC-block to 1).

 Level:                                 MDC-d        MDC-q
 ---------------------------------------------------------
 Charge   (a.u.)                       0.0000       0.0000
 Dipole   (Debye)                      0.0000       0.0202
 Quad.    (a.u.)                       0.1983       0.0006

 --------------------------------------- 
 Represented molecular multipole moments
 --------------------------------------- 

 Given here are the Molecular multipole moments from the atomic charges, and from the Fit Density.
 Note that the atomic charges represent the latter, NOT the ones from the Exact density.

            Q (a.u.)             Dipole moment (Debye)                                          Quadrupole moment (a.u.)
                                 x         y         z              xx        xy        xz        yy        yz        zz
------------------------------------------------------------------------------------------------------------------------
MDC-m        -1.0000       -0.3089   -0.1128    0.6525         -7.8899   -1.5458   17.0414   11.6363    1.3280   -3.7464
MDC-d        -1.0000        0.0357   -0.0515    0.6081        -13.7963   -2.5148   25.0916   17.0960    2.0255   -3.2997
MDC-q        -1.0000        0.2421   -0.0249    0.5422        -16.3956   -2.8606   28.1195   19.3421    2.0974   -2.9465
 
Fit.Dens.    -1.0000        0.0357   -0.0515    0.6081        -16.1771   -2.9326   27.8339   19.3470    2.2437   -3.1699



 =============
 Dipole Moment  ***  (Debye)  ***
 =============
  
 Vector   :         0.03540631     -0.05230927      0.61238491
 Magnitude:         0.61563394

 This molecular dipole moment is calculated with analytic integration
 ************************************************************************************
 Since the molecule is NOT NEUTRAL, the dipole moment depends on the choice of origin
 ************************************************************************************



 =========================================
 Quadrupole Moment (Buckingham convention)  ***  (a.u.)  ***
 =========================================
  
      quad-xx        quad-xy        quad-xz        quad-yy        quad-yz        quad-zz
    -16.23078822    -2.90940179    27.51493678    19.39889197     2.21064495    -3.16810374

 This molecular quadrupole moment is calculated with analytic integration
 Becke grid quality: Special        
  
 Lebedev angular grid order:             min:  35 max:  35
 Nr. of radial points:                   min:  92 max: 134



 ========================
 Density Fitting (zlmFit)
 ========================
  
 ZlmFit Fit Quality: VERYGOOD       
  
 Max L-expansion:                        min:  11 max:  11
 Nr. of radial interpolation points:     min: 200 max: 200



 ========================
 Density Fitting (zlmFit)
 ========================
  
 ZlmFit Fit Quality: VERYGOOD       
  
 Max L-expansion:                        min:  10 max:  11
 Nr. of radial interpolation points:     min: 130 max: 200



 ===========================
 B O N D I N G   E N E R G Y  ***  (decomposition)  ***
 ===========================
  
*** IMPORTANT NOTE ***

The bond energy is computed as an energy difference between molecule and
fragments. In particular when the fragments are single atoms, they are usually
computed as SPHERICALLY SYMMETRIC and SPIN-RESTRICTED. Obviously, this usually
does NOT represent the true atomic groundstate.

To obtain the 'real' bond energy, (atomic) correction terms must be applied
for the true (multiplet) fragment ground state. See ref: E.J.Baerends,
V.Branchadell, M.Sodupe, Chem.Phys.Lett.265 (1997) 481

General theoretical background on the bond energy decomposition scheme used
here (Morokuma-Ziegler) can be found in the review paper:
F.M. Bickelhaupt and E.J. Baerends,
"Kohn-Sham Density Functional Theory: Predicting and Understanding Chemistry"
In: Rev. Comput. Chem.; Lipkowitz, K. B. and Boyd, D. B., Eds.;
Wiley-VCH: New York, 2000, Vol. 15, 1-86.

Symbols used in the Bickelhaupt-Baerends (BB) paper are given below to make
the direct connection to that paper, where detailed explanations can be found
on the meaning of the various terms.


                                                   hartree              eV         kcal/mol           kJ/mol
[...]
        7   SFO contribution:  -0.01011

   4   NOCV eigenvalues:  -0.06939   0.06939, sum from all SFOs:   -0.14052E-15
       Corresponding Delta E k:  -0.55593  (kcal/mol)
        9   SFO contribution:  -0.01289
 The rest of NOCVs:
 Corresponding Delta E rest: -1.53364079210832  (kcal/mol)
 There are no SFO contributions larger than : 1.000000000000000E-002
 Trace of (Delta P S) = 1.417020938181975E-014



 =============================
 END OF ETS-NOCV decomposition
 =============================
  



 ===========================================================
 S F O   P O P U L A T I O N S ,   N O C V   A N A L Y S I S
 ===========================================================
  
 A Mulliken population analysis is performed on (input-)selected NOCVs. All populations refer to SFOs.


                                       === A ===


 SFO contributions (%) per orbital
 (multiplication by the orbital occupation yields the SFO Gross Populations)

 NOCV:        1      2      3      4    172    173    174    175
 occup:    -0.67  -0.12  -0.07  -0.07   0.07   0.07   0.12   0.67
 CF+SFO     ----   ----   ----   ----   ----   ----   ----   ----
 ------
      7:   18.98  -0.17  39.70   2.13   1.25  26.02   0.74   6.75
      8:   43.78   6.34  12.38   3.53   2.13   4.95   6.80  15.11
      9:    0.82   0.39   5.58  45.77  27.20   3.01   0.29   0.27
     10:   -0.04   4.39   0.25  -0.00  -0.00   0.14   1.56  -0.01
     11:   -0.19   3.78  16.05   1.54   1.69  14.65   1.44   0.18
     12:   -0.09   2.02   1.05  13.93  15.28   0.69   1.03   0.06
     13:   -0.43  10.66   1.48   0.76   0.83   3.90   6.98   0.21
     14:    0.01   0.72   0.14   0.22   0.21   0.19   1.30   0.01
     16:    0.02   1.46   0.88   0.00   0.00   1.08   2.70   0.01
     17:    0.02   1.36   0.09   0.04   0.03   0.16   2.40   0.01
     44:    0.45   0.10  -0.08   0.00  -0.00   0.07   1.22   0.13
     45:    0.00   0.00   0.00   1.51   3.89   0.00   0.00   0.00
     46:    0.64  -0.01   2.43  -0.00   0.00   1.28   0.37   0.22
     47:    0.02   0.07   0.72  -0.00   0.00   1.09   0.38   0.01
     48:   -0.00   0.00   0.00   7.42   4.82   0.00   0.00   0.00
     49:    8.35  41.51   0.17   0.00   0.00   0.61  41.28   3.31
     52:   22.44   0.50   0.44   0.00   0.00   0.41   0.17  72.27
     53:    0.91  10.89   1.12   0.00   0.00   1.62  11.11   0.30
     54:    0.29   0.97   9.05   0.14   0.27  16.71   0.80   0.20
     55:    0.00   0.01   0.09  10.89  21.16   0.18   0.01   0.00
     56:    0.51   9.25   3.72   0.00   0.00   5.98  11.20   0.56
     57:    0.00   0.00   0.00   6.98   5.60   0.00   0.00   0.00
     58:    0.18   1.17  -0.70   0.00   0.00   0.60   1.38   0.09
     59:    0.20  -0.05  -0.55   0.00   0.00   2.57   0.08  -0.01
     60:    0.45   0.08   1.61   0.00   0.00   1.08  -0.04  -0.11
     61:    0.00   0.00   0.00   2.40   1.78   0.00   0.00  -0.00
     62:    0.48   0.67  -1.64  -0.00   0.00   0.87   0.90   0.19
     63:    0.22   2.18   1.07  -0.00   0.00   4.44   1.84   0.05
     64:    0.00   0.00  -0.00  -2.30   4.12   0.00  -0.00   0.00
     73:    0.00   0.00   0.00   0.17   4.74   0.00   0.00  -0.00
     78:    0.00   0.00   0.00   0.39   1.81   0.00   0.00   0.00
     81:    0.00   0.00   0.00   2.03   0.67   0.00  -0.00  -0.00


 Summation over all NOCVs, multiplied by occupation: Total SFO Gross Populations in this Irrep
 ===========================================================================================

     0.00   -0.00    0.00    0.00    0.00   -0.01   -0.09   -0.20   -0.02   -0.00   -0.00   -0.00
    -0.00    0.00    0.00    0.00    0.00    0.00    0.00    0.00    0.00    0.00    0.00    0.00
     0.00    0.00    0.00    0.00    0.00    0.00    0.00   -0.00   -0.00    0.00   -0.00    0.00
    -0.00    0.00   -0.00   -0.00   -0.00    0.00    0.00   -0.00   -0.00   -0.00    0.00   -0.00
    -0.03   -0.00   -0.00    0.34   -0.00    0.01    0.01    0.00    0.00    0.00    0.00   -0.00
    -0.00    0.00    0.00    0.01    0.00   -0.00    0.00   -0.00    0.00   -0.00   -0.00    0.00
     0.00   -0.00    0.00   -0.00   -0.00    0.00    0.00   -0.00   -0.00   -0.00    0.00   -0.00
    -0.00   -0.00   -0.00    0.00   -0.00   -0.00   -0.00   -0.00   -0.00   -0.00   -0.00   -0.00
    -0.00   -0.00   -0.00   -0.00   -0.00   -0.00   -0.00   -0.00   -0.00    0.00    0.00   -0.00
    -0.00   -0.00    0.00   -0.00    0.00   -0.00    0.00    0.00   -0.00   -0.00   -0.00    0.00
    -0.00    0.00    0.00    0.00    0.00   -0.00   -0.00    0.00    0.00    0.00   -0.00   -0.00
     0.00   -0.00    0.00   -0.00   -0.00    0.00    0.00    0.00   -0.00   -0.00   -0.00    0.00
    -0.00    0.00   -0.00   -0.00    0.00    0.00   -0.00   -0.00   -0.00   -0.00   -0.00   -0.00
    -0.00   -0.00   -0.00    0.00    0.00    0.00    0.00   -0.00   -0.00   -0.00    0.00   -0.00
     0.00   -0.00   -0.00    0.00    0.00    0.00   -0.00



 List of selected NOCVs, ordered by occupation, with the most significant SFO gross populations
 ========================================================================================

 Each percentage contribution in the table below corres ponds to the indicated SFO.
 In general, a SFO may be a linear combination of several Fragment Orbitals on the same,
 or on symmetry-related Fragments. Only the first 'member' of such a combination is
 specified here. A full definition of all SFOs is given in an earlier part of the output.
 The numbering of the SFOs in this table does NOT include the Core Orbitals, and starts
 from one for each symmetry representation, as in the SFO definition list earlier.

       Occ             NOCV          %     SFO (first member)   E(eV)  Occ   Fragment
 -------------------------------------------------------------------------------------

      -0.67327         1 A         43.78%     8 A               0.928  2.00     1 fA
                                   22.44%    18 A              -3.227  0.00     2 fB
                                   18.98%     7 A               0.928  2.00     1 fA
                                    8.35%    15 A              -7.238  2.00     2 fB
       0.67327       175 A         72.27%    18 A              -3.227  0.00     2 fB
                                   15.11%     8 A               0.928  2.00     1 fA
                                    6.75%     7 A               0.928  2.00     1 fA
                                    3.31%    15 A              -7.238  2.00     2 fB
      -0.12085         2 A         41.51%    15 A              -7.238  2.00     2 fB
                                   10.89%    19 A              -0.256  0.00     2 fB
                                   10.66%    13 A              13.303  0.00     1 fA
                                    9.25%    22 A               1.618  0.00     2 fB
                                    6.34%     8 A               0.928  2.00     1 fA
                                    4.39%    10 A              12.862  0.00     1 fA
                                    3.78%    11 A              13.303  0.00     1 fA
                                    2.18%    29 A               5.707  0.00     2 fB
                                    2.02%    12 A              13.303  0.00     1 fA
                                    1.46%    16 A              20.220  0.00     1 fA
                                    1.36%    17 A              20.220  0.00     1 fA
                                    1.17%    24 A               2.528  0.00     2 fB
       0.12085       174 A         41.28%    15 A              -7.238  2.00     2 fB
                                   11.20%    22 A               1.618  0.00     2 fB
                                   11.11%    19 A              -0.256  0.00     2 fB
                                    6.98%    13 A              13.303  0.00     1 fA
                                    6.80%     8 A               0.928  2.00     1 fA
                                    2.70%    16 A              20.220  0.00     1 fA
                                    2.40%    17 A              20.220  0.00     1 fA
                                    1.84%    29 A               5.707  0.00     2 fB
                                    1.56%    10 A              12.862  0.00     1 fA
                                    1.44%    11 A              13.303  0.00     1 fA
                                    1.38%    24 A               2.528  0.00     2 fB
                                    1.30%    14 A              20.220  0.00     1 fA
                                    1.22%    10 A             -15.414  2.00     2 fB
                                    1.03%    12 A              13.303  0.00     1 fA
      -0.07397         3 A         39.70%     7 A               0.928  2.00     1 fA
                                   16.05%    11 A              13.303  0.00     1 fA
                                   12.38%     8 A               0.928  2.00     1 fA
                                    9.05%    20 A               0.452  0.00     2 fB
                                    5.58%     9 A               0.928  2.00     1 fA
                                    3.72%    22 A               1.618  0.00     2 fB
                                    2.43%    12 A             -11.067  2.00     2 fB
                                   -1.64%    28 A               5.164  0.00     2 fB
                                    1.61%    26 A               4.412  0.00     2 fB
                                    1.48%    13 A              13.303  0.00     1 fA
                                    1.12%    19 A              -0.256  0.00     2 fB
                                    1.07%    29 A               5.707  0.00     2 fB
                                    1.05%    12 A              13.303  0.00     1 fA
       0.07397       173 A         26.02%     7 A               0.928  2.00     1 fA
                                   16.71%    20 A               0.452  0.00     2 fB
                                   14.65%    11 A              13.303  0.00     1 fA
                                    5.98%    22 A               1.618  0.00     2 fB
                                    4.95%     8 A               0.928  2.00     1 fA
                                    4.44%    29 A               5.707  0.00     2 fB
                                    3.90%    13 A              13.303  0.00     1 fA
                                    3.01%     9 A               0.928  2.00     1 fA
                                    2.57%    25 A               3.246  0.00     2 fB
                                    1.62%    19 A              -0.256  0.00     2 fB
                                    1.28%    12 A             -11.067  2.00     2 fB
                                    1.09%    13 A             -10.773  2.00     2 fB
                                    1.08%    26 A               4.412  0.00     2 fB
                                    1.08%    16 A              20.220  0.00     1 fA
      -0.06939         4 A         45.77%     9 A               0.928  2.00     1 fA
                                   13.93%    12 A              13.303  0.00     1 fA
                                   10.89%    21 A               0.461  0.00     2 fB
                                    7.42%    14 A              -9.603  2.00     2 fB
                                    6.98%    23 A               2.117  0.00     2 fB
                                    3.53%     8 A               0.928  2.00     1 fA
                                    2.40%    27 A               4.444  0.00     2 fB
                                   -2.30%    30 A               5.750  0.00     2 fB
                                    2.13%     7 A               0.928  2.00     1 fA
                                    2.03%    47 A              19.418  0.00     2 fB
                                    1.54%    11 A              13.303  0.00     1 fA
                                    1.51%    11 A             -12.406  2.00     2 fB
       0.06939       172 A         27.20%     9 A               0.928  2.00     1 fA
                                   21.16%    21 A               0.461  0.00     2 fB
                                   15.28%    12 A              13.303  0.00     1 fA
                                    5.60%    23 A               2.117  0.00     2 fB
                                    4.82%    14 A              -9.603  2.00     2 fB
                                    4.74%    39 A              11.655  0.00     2 fB
                                    4.12%    30 A               5.750  0.00     2 fB
                                    3.89%    11 A             -12.406  2.00     2 fB
                                    2.13%     8 A               0.928  2.00     1 fA
                                    1.81%    44 A              14.530  0.00     2 fB
                                    1.78%    27 A               4.444  0.00     2 fB
                                    1.69%    11 A              13.303  0.00     1 fA
                                    1.25%     7 A               0.928  2.00     1 fA
 Mulliken charges used for AMS results%charges...


    =====================
     CALCULATION RESULTS
    =====================

Energy (hartree)            -0.03962379


--------------
Atomic charges
--------------
  Index   Atom    Charge
      1     Cl   -0.6806
      2      C    0.5028
      3      C    0.4112
      4     Cl   -0.4576
      5      H    0.0621
      6      H   -0.1918
      7      H   -0.2270
      8      H   -0.2272
      9      H   -0.1919


Dipole moment vector    (Debye):     0.03540631   -0.05230927    0.61238491
              magnitude (Debye):     0.61563394


-----------------------
Molecular orbitals info
-----------------------
n orbitals:              175
n spin:                    1

Note: only printing virtual orbitals with
      energy smaller than HOMO + 100. eV

HOMO (eV):              -1.0411
LUMO (eV):               2.1813
HOMO-LUMO gap (eV):      3.2224

   Index   Energy (eV)    Occupation
     131       97.6065         0.000       
     130       96.7045         0.000       
     129       95.3935         0.000       
     128       94.5595         0.000       
     127       94.5518         0.000       
     126       89.8477         0.000       
     125       88.4299         0.000       
     124       85.2949         0.000       
     123       84.8809         0.000       
     122       84.7417         0.000       
     121       83.9258         0.000       
     120       82.6184         0.000       
     119       80.1401         0.000       
     118       79.5664         0.000       
     117       78.9234         0.000       
     116       77.8667         0.000       
     115       75.6552         0.000       
     114       72.8213         0.000       
     113       71.8943         0.000       
     112       71.2363         0.000       
     111       70.2491         0.000       
     110       68.4937         0.000       
     109       67.5261         0.000       
     108       66.6485         0.000       
     107       66.5982         0.000       
     106       65.4601         0.000       
     105       64.5171         0.000       
     104       63.5055         0.000       
     103       63.2330         0.000       
     102       61.1468         0.000       
     101       60.6350         0.000       
     100       58.1366         0.000       
      99       56.4076         0.000       
      98       55.1036         0.000       
      97       53.5840         0.000       
      96       52.5506         0.000       
      95       48.7618         0.000       
      94       48.4415         0.000       
      93       47.7574         0.000       
      92       44.5584         0.000       
      91       43.8918         0.000       
      90       41.6198         0.000       
      89       41.4606         0.000       
      88       41.4255         0.000       
      87       40.8552         0.000       
      86       40.6022         0.000       
      85       39.9371         0.000       
      84       39.5318         0.000       
      83       39.3639         0.000       
      82       39.1944         0.000       
      81       38.3971         0.000       
      80       37.9569         0.000       
      79       37.8807         0.000       
      78       37.3419         0.000       
      77       37.2614         0.000       
      76       37.0906         0.000       
      75       35.5971         0.000       
      74       34.7637         0.000       
      73       34.2789         0.000       
      72       33.0010         0.000       
      71       32.9812         0.000       
      70       31.4933         0.000       
      69       31.3534         0.000       
      68       28.8944         0.000       
      67       28.3857         0.000       
      66       27.2844         0.000       
      65       24.2560         0.000       
      64       23.8878         0.000       
      63       22.9445         0.000       
      62       21.4995         0.000       
      61       20.6581         0.000       
      60       18.7471         0.000       
      59       18.3496         0.000       
      58       18.1768         0.000       
      57       17.8822         0.000       
      56       17.8648         0.000       
      55       17.7048         0.000       
      54       16.4380         0.000       
      53       16.4023         0.000       
      52       16.3830         0.000       
      51       15.5532         0.000       
      50       15.2568         0.000       
      49       15.1796         0.000       
      48       13.9829         0.000       
      47       13.4404         0.000       
      46       13.2983         0.000       
      45       12.8808         0.000       
      44       12.7371         0.000       
      43       12.2743         0.000       
      42       11.6830         0.000       
      41       11.0434         0.000       
      40       10.8803         0.000       
      39       10.1019         0.000       
      38        9.7962         0.000       
      37        9.2762         0.000       
      36        9.0304         0.000       
      35        8.7306         0.000       
      34        7.4946         0.000       
      33        6.6409         0.000       
      32        5.8098         0.000       
      31        5.3713         0.000       
      30        4.3155         0.000       
      29        4.2677         0.000       
      28        3.7389         0.000       
      27        2.1813         0.000 < LUMO
      26       -1.0411         2.000 < HOMO
      25       -1.2695         2.000       
      24       -1.3099         2.000       
      23       -2.8391         2.000       
      22       -2.8435         2.000       
      21       -3.0860         2.000       
      20       -4.9319         2.000       
      19       -6.2434         2.000       
      18       -6.4051         2.000       
      17       -7.6989         2.000       
      16      -10.6174         2.000       
      15      -13.0936         2.000       
      14      -14.8753         2.000       
      13      -15.4859         2.000       
      12     -183.3561         2.000       
      11     -183.3574         2.000       
      10     -183.4525         2.000       
       9     -184.9935         2.000       
       8     -184.9962         2.000       
       7     -185.1323         2.000       
       6     -244.3354         2.000       
       5     -245.9910         2.000       
       4     -265.8245         2.000       
       3     -266.8271         2.000       
       2    -2743.6154         2.000       
       1    -2745.2390         2.000       

AMS application finished. Exiting.
NORMAL TERMINATION
     Total cpu time:      33.09
  Total system time:       0.21
 Total elapsed time:      33.39
NORMAL TERMINATION
