
 *******************************************************************************
 *                                                                             *
 *  --------------------------------                                           *
 *   Amsterdam Modeling Suite (AMS)              2026.103                      *
 *  --------------------------------                                           *
 *                                               r260501 2026-05-01 873454b5   *
 *                                                                             *
 *                                                                             *
 *                              =================                              *
 *                              |               |                              *
 *                              |     A M S     |                              *
 *                              |               |                              *
 *                              =================                              *
 *                                                                             *
 *                                                                             *
 *   Online information and documentation:  https://www.scm.com/support/       *
 *   E-mail:  support@scm.com   info@scm.com                                   *
 *                                                                             *
 *   Scientific publications using AMS results must be properly referenced     *
 *   See the User Manuals (or the web site) for recommended citations          *
 *   The terms and conditions of the End User License Agreement apply to       *
 *   the use of AMS, https://www.scm.com/license-terms/                        *
 *                                                                             *
 **********************  x86_64_linux_intel / intelmpi  ************************
 
 Licensed to: Jong-June Jeon / University of Seoul 2026-06-02 13:44:15
 SCM User ID: u30731
  
 AMS 2026.103  RunTime: Jun03-2026 10:36:00  ShM Nodes: 1  Procs: 1

 AMS jobname: c5_fragB_opt
 AMS jobid  : 1499044181

 Start   directory: /gpfs/home1/yeseo1ee/projects/eda-asm-prediction/ADF_800/adf_outputs/batch_002/qmrxn20_e2_A_A_A_A_B_C/
 Results directory: /gpfs/home1/yeseo1ee/projects/eda-asm-prediction/ADF_800/adf_outputs/batch_002/qmrxn20_e2_A_A_A_A_B_C/c5_fragB_opt.results/
 Scratch directory: /tmp/amstmp_c5_fragB_opt_kid0.1499044181/

 RNG seed: -419314982 -46627100 -244870077 -1330341296 -931386380 1009167540 2139282778 -2017436587



                      ************************************************************************
                      *  ADF 2026.103  RunTime: Jun03-2026 10:36:00  ShM Nodes: 1  Procs: 1  *
                      ************************************************************************
  

       ***************************
       *  GEOMETRY OPTIMIZATION  *
       ***************************

Optimization Method                    Quasi Newton
Optimization Coordinates               Delocalized Coordinates
Optimize lattice                       F
 
 ------------------------------------------------------
 Convergence criteria (Hartree,Angstrom)
 ------------------------------------------------------
 Maximum gradient               0.000100000000
 Maximum rms gradient           0.000066666667
 Maximum step allowed           0.010000000000
 Maximum rms step allowed       0.006666666667
 Maximum energy change allowe   0.000080000000
 Maximum stress energy allowe   0.000500000000
 
Initial model Hessian                  Automatic Hessian
 
------------------------------------
Quasi-Newton Optimizer Parameters
------------------------------------
Hessian Update Method                  BFGS
Maximum number of steps                  200
First GDIIS cycle                          0
Maximum GDIIS vectors                      0
Trust radius (bohr)                        0.200000
Trust radius varies                        T
Constraints converged at all steps         T
Use projector                              T
 
 Rigid motions settings for: old optimizer
 Atomic rotations (x,y,z):     T T T
 Atomic translations (x,y,z):  T T T
 Tolerance:                  1.000000000000000E-006

--------
Geometry
--------
Formula: C2H5Cl
Atoms
  Index Symbol   x (angstrom)   y (angstrom)   z (angstrom)
      1      C    -0.26180407    -0.00098815    -0.31191342
      2      C    -0.11464155     0.03508676     1.05272108
      3     Cl    -2.90202629    -0.22296558     2.11586453
      4      H    -1.56801644    -0.09220463     1.44934098
      5      H    -0.42866883    -0.94515247    -0.81183930
      6      H     0.10162174     0.98588978     1.53088076
      7      H     0.26543950    -0.84534829     1.56227997
      8      H    -0.59230492     0.88179142    -0.84184550

Total System Charge              0.00000


----------------
ADF Engine Input
----------------
 
   Basis
     Type TZ2P
     Core None
   End
   XC
     GGA BLYP
     Dispersion GRIMME3 BJDAMP
   End
   Symmetry NOSYM
   NumericalQuality Normal
   Unrestricted No
   SCF
     Iterations 200
     Converge 1.0e-6
   End
   Save TAPE21
 

 Title: *** (NO TITLE) ***

 Using automatic Hessian for delocalized coordinates.
 *** GO1_GOStep1 ***

 Energy gradients wrt nuclear displacements
 ==========================================

     Atom      Cartesian (a.u./angstrom)
                 X         Y         Z
 ----------------------------------------
     1 C     0.035682  0.002042 -0.048047
     2 C    -0.055270 -0.003971  0.051467
     3 Cl   -0.039470 -0.004190  0.018277
     4 H     0.062537  0.006297 -0.025757
     5 H    -0.011251  0.009009  0.009042
     6 H     0.009244 -0.004654 -0.007212
     7 H     0.008212  0.005930 -0.007207
     8 H    -0.009683 -0.010463  0.009437
 ----------------------------------------
 
----------------------------------------------------------------------
Geometry Convergence after Step   1       (Hartree/Angstrom,Angstrom)
----------------------------------------------------------------------
current energy                               -1.33027570 Hartree
energy change                      -1.33027570     0.00008000    F
constrained gradient max            0.06252847     0.00010000    F
constrained gradient rms            0.02639771     0.00006667    F
gradient max                        0.06252847
gradient rms                        0.02639771
cart. step max                      0.02592757     0.01000000    F
cart. step rms                      0.01456189     0.00666667    F
 

--------
Geometry
--------
Formula: C2H5Cl
Atoms
  Index Symbol   x (angstrom)   y (angstrom)   z (angstrom)
      1      C    -0.28500089    -0.00283112    -0.30644650
      2      C    -0.11242047     0.03497032     1.04221561
      3     Cl    -2.87633718    -0.22029885     2.13978489
      4      H    -1.57895529    -0.09286986     1.45699104
      5      H    -0.40274126    -0.94886146    -0.82770633
      6      H     0.07863021     0.98745618     1.53385378
      7      H     0.24332373    -0.85117553     1.56501708
      8      H    -0.56689970     0.88971916    -0.85822046

Total System Charge              0.00000

 *** GO1_GOStep2 ***

 Energy gradients wrt nuclear displacements
 ==========================================

     Atom      Cartesian (a.u./angstrom)
                 X         Y         Z
 ----------------------------------------
     1 C     0.022822  0.001563 -0.022765
     2 C    -0.052036 -0.004154  0.033532
     3 Cl   -0.033838 -0.003822  0.016739
     4 H     0.061541  0.006207 -0.025988
     5 H    -0.007172  0.002586  0.003308
     6 H     0.007781 -0.001100 -0.004167
     7 H     0.007453  0.002479 -0.004119
     8 H    -0.006552 -0.003759  0.003460
 ----------------------------------------

 dE(predicted):    -0.33236E-02, dE(actual):    -0.40305E-02, Trust radius:    0.400000, all in a.u.
 
----------------------------------------------------------------------
Geometry Convergence after Step   2       (Hartree/Angstrom,Angstrom)
----------------------------------------------------------------------
current energy                               -1.33430619 Hartree
energy change                      -0.00403049     0.00008000    F
constrained gradient max            0.06152840     0.00010000    F
constrained gradient rms            0.02153259     0.00006667    F
gradient max                        0.06152840
gradient rms                        0.02153259
cart. step max                      0.07208579     0.01000000    F
cart. step rms                      0.02893902     0.00666667    F
 

--------
Geometry
--------
Formula: C2H5Cl
Atoms
  Index Symbol   x (angstrom)   y (angstrom)   z (angstrom)
      1      C    -0.29799470    -0.00380066    -0.29966443
      2      C    -0.08661495     0.03556139     1.00902303
      3     Cl    -2.80425140    -0.21076617     2.17598353
      4      H    -1.62264604    -0.09541752     1.47202107
      5      H    -0.36473732    -0.95214357    -0.84666993
      6      H     0.02232615     0.98573050     1.54034676
      7      H     0.18972765    -0.86169496     1.57037032
      8      H    -0.53621026     0.89863983    -0.87592124

Total System Charge              0.00000

 *** GO1_GOStep3 ***

 Energy gradients wrt nuclear displacements
 ==========================================

     Atom      Cartesian (a.u./angstrom)
                 X         Y         Z
 ----------------------------------------
     1 C     0.015534  0.002012  0.043274
     2 C    -0.048211 -0.005038 -0.025911
     3 Cl   -0.004965 -0.001230  0.003228
     4 H     0.041448  0.004311 -0.015502
     5 H    -0.003278 -0.007550 -0.004573
     6 H     0.001896  0.004571  0.002081
     7 H     0.002363 -0.003777  0.002425
     8 H    -0.004787  0.006701 -0.005023
 ----------------------------------------

 dE(predicted):    -0.59477E-02, dE(actual):    -0.64334E-02, Trust radius:    0.800000, all in a.u.
 
----------------------------------------------------------------------
Geometry Convergence after Step   3       (Hartree/Angstrom,Angstrom)
----------------------------------------------------------------------
current energy                               -1.34073961 Hartree
energy change                      -0.00643341     0.00008000    F
constrained gradient max            0.04820785     0.00010000    F
constrained gradient rms            0.01754600     0.00006667    F
gradient max                        0.04820785
gradient rms                        0.01754600
cart. step max                      0.06428378     0.01000000    F
cart. step rms                      0.03047332     0.00666667    F
 

--------
Geometry
--------
Formula: C2H5Cl
Atoms
  Index Symbol   x (angstrom)   y (angstrom)   z (angstrom)
      1      C    -0.31535705    -0.00598404    -0.31726795
      2      C    -0.07286963     0.03510111     0.98878003
      3     Cl    -2.78391051    -0.20345716     2.24026730
      4      H    -1.68345200    -0.10059083     1.51909738
      5      H    -0.30810920    -0.94555671    -0.88325077
      6      H    -0.01286062     0.97791436     1.53992915
      7      H     0.16096312    -0.86256589     1.56792799
      8      H    -0.48480498     0.90124800    -0.90999403

Total System Charge              0.00000

 *** GO1_GOStep4 ***

 Energy gradients wrt nuclear displacements
 ==========================================

     Atom      Cartesian (a.u./angstrom)
                 X         Y         Z
 ----------------------------------------
     1 C    -0.008909 -0.000112  0.035105
     2 C    -0.030088 -0.003363 -0.017972
     3 Cl    0.023466  0.001527 -0.014636
     4 H     0.010891  0.001225  0.002499
     5 H     0.004006 -0.006265 -0.007462
     6 H    -0.001231  0.003094  0.004960
     7 H    -0.000744 -0.002709  0.005317
     8 H     0.002608  0.006603 -0.007811
 ----------------------------------------

 dE(predicted):    -0.23054E-02, dE(actual):    -0.27208E-02, Trust radius:    0.800000, all in a.u.
 
----------------------------------------------------------------------
Geometry Convergence after Step   4       (Hartree/Angstrom,Angstrom)
----------------------------------------------------------------------
current energy                               -1.34346040 Hartree
energy change                      -0.00272080     0.00008000    F
constrained gradient max            0.03509578     0.00010000    F
constrained gradient rms            0.01248173     0.00006667    F
gradient max                        0.03509578
gradient rms                        0.01248173
cart. step max                      0.03738207     0.01000000    F
cart. step rms                      0.01592533     0.00666667    F
 

--------
Geometry
--------
Formula: C2H5Cl
Atoms
  Index Symbol   x (angstrom)   y (angstrom)   z (angstrom)
      1      C    -0.30632448    -0.00566903    -0.33194290
      2      C    -0.05578889     0.03584699     0.98017367
      3     Cl    -2.81221078    -0.20191730     2.27689245
      4      H    -1.72083407    -0.10448931     1.54598250
      5      H    -0.28836666    -0.94119235    -0.89688167
      6      H    -0.01385633     0.97574194     1.53352971
      7      H     0.16532778    -0.86217771     1.55960281
      8      H    -0.46834742     0.89996562    -0.92186745

Total System Charge              0.00000

 *** GO1_GOStep5 ***

 Energy gradients wrt nuclear displacements
 ==========================================

     Atom      Cartesian (a.u./angstrom)
                 X         Y         Z
 ----------------------------------------
     1 C    -0.014039 -0.000936  0.013992
     2 C    -0.017610 -0.001792 -0.002127
     3 Cl    0.018582  0.001086 -0.011932
     4 H     0.008822  0.001051  0.002686
     5 H     0.004556 -0.002316 -0.005418
     6 H    -0.002320  0.000794  0.004070
     7 H    -0.001998 -0.000737  0.004300
     8 H     0.004008  0.002851 -0.005570
 ----------------------------------------

 dE(predicted):    -0.11542E-02, dE(actual):    -0.19277E-02, Trust radius:    0.800000, all in a.u.
 
----------------------------------------------------------------------
Geometry Convergence after Step   5       (Hartree/Angstrom,Angstrom)
----------------------------------------------------------------------
current energy                               -1.34538813 Hartree
energy change                      -0.00192773     0.00008000    F
constrained gradient max            0.01862379     0.00010000    F
constrained gradient rms            0.00775326     0.00006667    F
gradient max                        0.01862379
gradient rms                        0.00775326
cart. step max                      0.11674891     0.01000000    F
cart. step rms                      0.04421370     0.00666667    F
 

--------
Geometry
--------
Formula: C2H5Cl
Atoms
  Index Symbol   x (angstrom)   y (angstrom)   z (angstrom)
      1      C    -0.25688163    -0.00229629    -0.35904150
      2      C     0.00717704     0.03884210     0.95236378
      3     Cl    -2.91206606    -0.19733010     2.35457804
      4      H    -1.83758298    -0.11646790     1.60882173
      5      H    -0.25610599    -0.93593020    -0.91352878
      6      H     0.00814862     0.97408863     1.50699064
      7      H     0.20214618    -0.86332537     1.52695464
      8      H    -0.45523605     0.89852798    -0.93164945

Total System Charge              0.00000

 *** GO1_GOStep6 ***

 Energy gradients wrt nuclear displacements
 ==========================================

     Atom      Cartesian (a.u./angstrom)
                 X         Y         Z
 ----------------------------------------
     1 C    -0.007480 -0.000749 -0.004233
     2 C     0.001210  0.000390  0.004728
     3 Cl    0.008388  0.000231 -0.005785
     4 H     0.003829  0.000534  0.002889
     5 H     0.001700  0.003813  0.000703
     6 H    -0.004614 -0.002769  0.000395
     7 H    -0.005199  0.002120  0.000493
     8 H     0.002167 -0.003570  0.000810
 ----------------------------------------

 dE(predicted):    -0.29176E-02, dE(actual):    -0.37052E-02, Trust radius:    0.800000, all in a.u.
 
----------------------------------------------------------------------
Geometry Convergence after Step   6       (Hartree/Angstrom,Angstrom)
----------------------------------------------------------------------
current energy                               -1.34909336 Hartree
energy change                      -0.00370523     0.00008000    F
constrained gradient max            0.00844722     0.00010000    F
constrained gradient rms            0.00366433     0.00006667    F
gradient max                        0.00844722
gradient rms                        0.00366433
cart. step max                      0.08173659     0.01000000    F
cart. step rms                      0.03142758     0.00666667    F
 

--------
Geometry
--------
Formula: C2H5Cl
Atoms
  Index Symbol   x (angstrom)   y (angstrom)   z (angstrom)
      1      C    -0.23352458    -0.00067708    -0.37233660
      2      C     0.03413271     0.03971844     0.93882658
      3     Cl    -2.99380264    -0.19691884     2.39954120
      4      H    -1.91912669    -0.12561081     1.64556884
      5      H    -0.24038313    -0.93678227    -0.92131710
      6      H     0.04616787     0.97788777     1.48788751
      7      H     0.25211020    -0.86305258     1.50383374
      8      H    -0.44597460     0.90154421    -0.93651508

Total System Charge              0.00000

 *** GO1_GOStep7 ***

 Energy gradients wrt nuclear displacements
 ==========================================

     Atom      Cartesian (a.u./angstrom)
                 X         Y         Z
 ----------------------------------------
     1 C    -0.003347 -0.000462 -0.008965
     2 C     0.000643  0.000442  0.006744
     3 Cl   -0.000736 -0.000393  0.000332
     4 H     0.006667  0.000611 -0.000854
     5 H     0.000825  0.003566  0.002455
     6 H    -0.002818 -0.002070 -0.001119
     7 H    -0.002913  0.001690 -0.001031
     8 H     0.001679 -0.003383  0.002438
 ----------------------------------------
 Rebuilding optimization coordinates

 dE(predicted):    -0.87554E-03, dE(actual):    -0.11417E-02, Trust radius:    1.000000, all in a.u.
 
----------------------------------------------------------------------
Geometry Convergence after Step   7       (Hartree/Angstrom,Angstrom)
----------------------------------------------------------------------
current energy                               -1.35023507 Hartree
energy change                      -0.00114171     0.00008000    F
constrained gradient max            0.00898365     0.00010000    F
constrained gradient rms            0.00322472     0.00006667    F
gradient max                        0.00898365
gradient rms                        0.00322472
cart. step max                      0.08398940     0.01000000    F
cart. step rms                      0.02976995     0.00666667    F
 

--------
Geometry
--------
Formula: C2H5Cl
Atoms
  Index Symbol   x (angstrom)   y (angstrom)   z (angstrom)
      1      C    -0.21465205     0.00013674    -0.37838502
      2      C     0.07052467     0.04059395     0.92531926
      3     Cl    -3.06546457    -0.19290778     2.42794569
      4      H    -2.00311608    -0.13341025     1.67518709
      5      H    -0.22734016    -0.93822274    -0.92852743
      6      H     0.08873488     0.98010834     1.47480239
      7      H     0.30493588    -0.86306174     1.48515952
      8      H    -0.45402342     0.90287232    -0.93601239

Total System Charge              0.00000

 *** GO1_GOStep8 ***

 Energy gradients wrt nuclear displacements
 ==========================================

     Atom      Cartesian (a.u./angstrom)
                 X         Y         Z
 ----------------------------------------
     1 C     0.001732  0.000057 -0.000860
     2 C    -0.000684  0.000345 -0.001227
     3 Cl    0.004038 -0.000100 -0.003087
     4 H    -0.001599  0.000007  0.003727
     5 H     0.000364  0.000630  0.001415
     6 H    -0.001574 -0.000269 -0.000877
     7 H    -0.002135  0.000031 -0.000679
     8 H    -0.000143 -0.000701  0.001590
 ----------------------------------------

 dE(predicted):    -0.44001E-03, dE(actual):    -0.48132E-03, Trust radius:    1.000000, all in a.u.
 
----------------------------------------------------------------------
Geometry Convergence after Step   8       (Hartree/Angstrom,Angstrom)
----------------------------------------------------------------------
current energy                               -1.35071639 Hartree
energy change                      -0.00048132     0.00008000    F
constrained gradient max            0.00407347     0.00010000    F
constrained gradient rms            0.00160585     0.00006667    F
gradient max                        0.00407347
gradient rms                        0.00160585
cart. step max                      0.02826837     0.01000000    F
cart. step rms                      0.01069255     0.00666667    F
 

--------
Geometry
--------
Formula: C2H5Cl
Atoms
  Index Symbol   x (angstrom)   y (angstrom)   z (angstrom)
      1      C    -0.21556341    -0.00001456    -0.37727050
      2      C     0.08222558     0.04140477     0.92540359
      3     Cl    -3.09311321    -0.19414915     2.42784782
      4      H    -2.02376944    -0.13651355     1.67659673
      5      H    -0.23666881    -0.93904779    -0.92670875
      6      H     0.11043677     0.98214453     1.47290645
      7      H     0.33320424    -0.86041657     1.48154674
      8      H    -0.45715259     0.90270115    -0.93483299

Total System Charge              0.00000

 *** GO1_GOStep9 ***

 Energy gradients wrt nuclear displacements
 ==========================================

     Atom      Cartesian (a.u./angstrom)
                 X         Y         Z
 ----------------------------------------
     1 C     0.001509  0.000020 -0.003808
     2 C    -0.001415  0.000097  0.002147
     3 Cl   -0.000570 -0.000352  0.000119
     4 H     0.002022  0.000177  0.000841
     5 H    -0.000063  0.000370  0.001050
     6 H    -0.001082  0.000024 -0.000676
     7 H    -0.000657 -0.000012 -0.000621
     8 H     0.000256 -0.000324  0.000948
 ----------------------------------------

 dE(predicted):    -0.86668E-04, dE(actual):    -0.10576E-03, Trust radius:    1.000000, all in a.u.
 
----------------------------------------------------------------------
Geometry Convergence after Step   9       (Hartree/Angstrom,Angstrom)
----------------------------------------------------------------------
current energy                               -1.35082215 Hartree
energy change                      -0.00010576     0.00008000    F
constrained gradient max            0.00382079     0.00010000    F
constrained gradient rms            0.00117823     0.00006667    F
gradient max                        0.00382079
gradient rms                        0.00117823
cart. step max                      0.05774391     0.01000000    F
cart. step rms                      0.02367992     0.00666667    F
 

--------
Geometry
--------
Formula: C2H5Cl
Atoms
  Index Symbol   x (angstrom)   y (angstrom)   z (angstrom)
      1      C    -0.21883305    -0.00088411    -0.37000414
      2      C     0.11711801     0.04230687     0.92343050
      3     Cl    -3.14572893    -0.19079676     2.41724898
      4      H    -2.07046934    -0.14025667     1.67535352
      5      H    -0.24707307    -0.93940483    -0.92216523
      6      H     0.16039229     0.98347815     1.47047546
      7      H     0.39094815    -0.85727752     1.47361277
      8      H    -0.48675492     0.89894370    -0.92246275

Total System Charge              0.00000

 *** GO1_GOStep10 ***

 Energy gradients wrt nuclear displacements
 ==========================================

     Atom      Cartesian (a.u./angstrom)
                 X         Y         Z
 ----------------------------------------
     1 C     0.002076  0.000446 -0.002387
     2 C    -0.001422 -0.000379  0.001478
     3 Cl   -0.001529 -0.000396  0.000715
     4 H     0.001503  0.000108  0.000612
     5 H     0.000145 -0.000279 -0.000171
     6 H     0.000056  0.000561 -0.000174
     7 H    -0.000239 -0.000344  0.000158
     8 H    -0.000590  0.000285 -0.000232
 ----------------------------------------

 dE(predicted):    -0.11453E-03, dE(actual):    -0.12718E-03, Trust radius:    1.000000, all in a.u.
 
----------------------------------------------------------------------
Geometry Convergence after Step  10       (Hartree/Angstrom,Angstrom)
----------------------------------------------------------------------
current energy                               -1.35094933 Hartree
energy change                      -0.00012718     0.00008000    F
constrained gradient max            0.00239721     0.00010000    F
constrained gradient rms            0.00094121     0.00006667    F
gradient max                        0.00239721
gradient rms                        0.00094121
cart. step max                      0.05171845     0.01000000    F
cart. step rms                      0.02068455     0.00666667    F
 

--------
Geometry
--------
Formula: C2H5Cl
Atoms
  Index Symbol   x (angstrom)   y (angstrom)   z (angstrom)
      1      C    -0.22972308    -0.00214366    -0.35687920
      2      C     0.14788841     0.04497901     0.92468122
      3     Cl    -3.17767707    -0.19177619     2.39036954
      4      H    -2.09521149    -0.14461197     1.66040427
      5      H    -0.28014965    -0.94145878    -0.90677328
      6      H     0.20060304     0.98624694     1.47096115
      7      H     0.44266661    -0.85127748     1.46964844
      8      H    -0.50879763     0.89615098    -0.90692304

Total System Charge              0.00000

 *** GO1_GOStep11 ***

 Energy gradients wrt nuclear displacements
 ==========================================

     Atom      Cartesian (a.u./angstrom)
                 X         Y         Z
 ----------------------------------------
     1 C     0.001968  0.000568 -0.000679
     2 C    -0.000657 -0.000531  0.000170
     3 Cl   -0.001448 -0.000389  0.000645
     4 H     0.000765  0.000049  0.000765
     5 H    -0.000784 -0.000305 -0.000729
     6 H    -0.000628  0.000362  0.000505
     7 H     0.000676 -0.000042  0.000395
     8 H     0.000108  0.000288 -0.001073
 ----------------------------------------

 dE(predicted):    -0.61244E-04, dE(actual):    -0.90283E-04, Trust radius:    1.000000, all in a.u.
 
----------------------------------------------------------------------
Geometry Convergence after Step  11       (Hartree/Angstrom,Angstrom)
----------------------------------------------------------------------
current energy                               -1.35103962 Hartree
energy change                      -0.00009028     0.00008000    F
constrained gradient max            0.00195176     0.00010000    F
constrained gradient rms            0.00073638     0.00006667    F
gradient max                        0.00195176
gradient rms                        0.00073638
cart. step max                      0.07734020     0.01000000    F
cart. step rms                      0.03601729     0.00666667    F
 

--------
Geometry
--------
Formula: C2H5Cl
Atoms
  Index Symbol   x (angstrom)   y (angstrom)   z (angstrom)
      1      C    -0.25660576    -0.00495071    -0.32821467
      2      C     0.19417863     0.04694541     0.93047217
      3     Cl    -3.21584390    -0.18651954     2.32838148
      4      H    -2.11633390    -0.14594386     1.62069412
      5      H    -0.32134798    -0.94339934    -0.87782322
      6      H     0.27202216     0.98801495     1.47369658
      7      H     0.52000681    -0.84513294     1.46413109
      8      H    -0.57647692     0.88709487    -0.86584845

Total System Charge              0.00000

 *** GO1_GOStep12 ***

 Energy gradients wrt nuclear displacements
 ==========================================

     Atom      Cartesian (a.u./angstrom)
                 X         Y         Z
 ----------------------------------------
     1 C     0.000224  0.001120 -0.001570
     2 C     0.001018 -0.000968  0.001302
     3 Cl   -0.003109 -0.000423  0.001860
     4 H     0.001908  0.000059 -0.000439
     5 H     0.000006  0.000417 -0.001492
     6 H     0.000374 -0.000183  0.000776
     7 H     0.000223  0.000498  0.001341
     8 H    -0.000644 -0.000520 -0.001778
 ----------------------------------------

 dE(predicted):    -0.84474E-04, dE(actual):    -0.14464E-03, Trust radius:    1.000000, all in a.u.
 
----------------------------------------------------------------------
Geometry Convergence after Step  12       (Hartree/Angstrom,Angstrom)
----------------------------------------------------------------------
current energy                               -1.35118425 Hartree
energy change                      -0.00014464     0.00008000    F
constrained gradient max            0.00312983     0.00010000    F
constrained gradient rms            0.00118292     0.00006667    F
gradient max                        0.00312983
gradient rms                        0.00118292
cart. step max                      0.09076026     0.01000000    F
cart. step rms                      0.04377729     0.00666667    F
 

--------
Geometry
--------
Formula: C2H5Cl
Atoms
  Index Symbol   x (angstrom)   y (angstrom)   z (angstrom)
      1      C    -0.29487147    -0.00902411    -0.28615293
      2      C     0.24089330     0.05146191     0.93847098
      3     Cl    -3.23534900    -0.18532373     2.23762122
      4      H    -2.11736813    -0.14869789     1.55954552
      5      H    -0.39370458    -0.94876278    -0.82775687
      6      H     0.34568659     0.99303933     1.47570753
      7      H     0.60098107    -0.83568788     1.45732221
      8      H    -0.64666864     0.87910399    -0.80926856

Total System Charge              0.00000

 *** GO1_GOStep13 ***

 Energy gradients wrt nuclear displacements
 ==========================================

     Atom      Cartesian (a.u./angstrom)
                 X         Y         Z
 ----------------------------------------
     1 C    -0.001061  0.000629 -0.001407
     2 C     0.002332 -0.000587  0.001043
     3 Cl   -0.002365 -0.000331  0.001569
     4 H     0.001212 -0.000009 -0.000411
     5 H    -0.000395  0.001140 -0.001846
     6 H     0.000098 -0.000917  0.001503
     7 H     0.000339  0.001237  0.001605
     8 H    -0.000160 -0.001162 -0.002057
 ----------------------------------------

 dE(predicted):    -0.91404E-04, dE(actual):    -0.18923E-03, Trust radius:    1.000000, all in a.u.
 
----------------------------------------------------------------------
Geometry Convergence after Step  13       (Hartree/Angstrom,Angstrom)
----------------------------------------------------------------------
current energy                               -1.35137349 Hartree
energy change                      -0.00018923     0.00008000    F
constrained gradient max            0.00238725     0.00010000    F
constrained gradient rms            0.00125611     0.00006667    F
gradient max                        0.00238725
gradient rms                        0.00125611
cart. step max                      0.21117322     0.01000000    F
cart. step rms                      0.09618489     0.00666667    F
 

--------
Geometry
--------
Formula: C2H5Cl
Atoms
  Index Symbol   x (angstrom)   y (angstrom)   z (angstrom)
      1      C    -0.37992933    -0.01720888    -0.18344249
      2      C     0.32665682     0.05968494     0.95147162
      3     Cl    -3.25508875    -0.18171163     2.02644801
      4      H    -2.09625256    -0.15165344     1.41963297
      5      H    -0.54522387    -0.95954696    -0.70257494
      6      H     0.49549466     1.00239583     1.46913816
      7      H     0.75724588    -0.81648265     1.43273198
      8      H    -0.80330371     0.86063163    -0.66791622

Total System Charge              0.00000

 *** GO1_GOStep14 ***

 Energy gradients wrt nuclear displacements
 ==========================================

     Atom      Cartesian (a.u./angstrom)
                 X         Y         Z
 ----------------------------------------
     1 C    -0.004321  0.000085 -0.000123
     2 C     0.003906 -0.000229  0.000200
     3 Cl    0.000067  0.000068 -0.000045
     4 H     0.000039 -0.000156 -0.000691
     5 H    -0.000972  0.002730 -0.002423
     6 H     0.000936 -0.002648  0.002854
     7 H     0.000722  0.003039  0.002851
     8 H    -0.000378 -0.002890 -0.002623
 ----------------------------------------

 dE(predicted):    -0.24023E-03, dE(actual):    -0.14877E-04, Trust radius:    0.207382, all in a.u.
 
----------------------------------------------------------------------
Geometry Convergence after Step  14       (Hartree/Angstrom,Angstrom)
----------------------------------------------------------------------
current energy                               -1.35138836 Hartree
energy change                      -0.00001488     0.00008000    T
constrained gradient max            0.00434811     0.00010000    F
constrained gradient rms            0.00202146     0.00006667    F
gradient max                        0.00434811
gradient rms                        0.00202146
cart. step max                      0.05345014     0.01000000    F
cart. step rms                      0.02627086     0.00666667    F
 

--------
Geometry
--------
Formula: C2H5Cl
Atoms
  Index Symbol   x (angstrom)   y (angstrom)   z (angstrom)
      1      C    -0.36174005    -0.01576200    -0.20872111
      2      C     0.29722353     0.05832170     0.94940250
      3     Cl    -3.23435988    -0.18295119     2.07786642
      4      H    -2.08734837    -0.15101926     1.45063893
      5      H    -0.50573282    -0.96120412    -0.72873994
      6      H     0.44699373     1.00410789     1.46769307
      7      H     0.70379574    -0.82623225     1.43665083
      8      H    -0.75923275     0.87084807    -0.69930159

Total System Charge              0.00000

 *** GO1_GOStep15 ***

 Energy gradients wrt nuclear displacements
 ==========================================

     Atom      Cartesian (a.u./angstrom)
                 X         Y         Z
 ----------------------------------------
     1 C    -0.000860 -0.000686  0.005141
     2 C    -0.000041  0.000575 -0.005463
     3 Cl    0.000425 -0.000014 -0.000094
     4 H    -0.000306 -0.000161 -0.000204
     5 H     0.000471  0.000993 -0.000763
     6 H    -0.000318 -0.000892  0.001180
     7 H    -0.000261  0.000884  0.000589
     8 H     0.000889 -0.000698 -0.000385
 ----------------------------------------

 dE(predicted):    -0.16215E-03, dE(actual):    -0.16659E-03, Trust radius:    0.414764, all in a.u.
 
----------------------------------------------------------------------
Geometry Convergence after Step  15       (Hartree/Angstrom,Angstrom)
----------------------------------------------------------------------
current energy                               -1.35155495 Hartree
energy change                      -0.00016659     0.00008000    F
constrained gradient max            0.00546957     0.00010000    F
constrained gradient rms            0.00164329     0.00006667    F
gradient max                        0.00546957
gradient rms                        0.00164329
cart. step max                      0.03084229     0.01000000    F
cart. step rms                      0.01469852     0.00666667    F
 

--------
Geometry
--------
Formula: C2H5Cl
Atoms
  Index Symbol   x (angstrom)   y (angstrom)   z (angstrom)
      1      C    -0.34539531    -0.01342309    -0.22719861
      2      C     0.28335894     0.05664203     0.95006552
      3     Cl    -3.23104571    -0.18408847     2.10870872
      4      H    -2.08748240    -0.15006800     1.47280236
      5      H    -0.48463145    -0.95995014    -0.74766679
      6      H     0.42431669     1.00406307     1.46851365
      7      H     0.67892375    -0.83103263     1.44171882
      8      H    -0.73844537     0.87396607    -0.72145457

Total System Charge              0.00000

 *** GO1_GOStep16 ***

 Energy gradients wrt nuclear displacements
 ==========================================

     Atom      Cartesian (a.u./angstrom)
                 X         Y         Z
 ----------------------------------------
     1 C     0.000168 -0.000030  0.000816
     2 C     0.000860  0.000184 -0.000776
     3 Cl   -0.001045 -0.000113  0.000751
     4 H     0.000861 -0.000113 -0.000675
     5 H    -0.000120  0.000159 -0.000545
     6 H    -0.000387  0.000077  0.000520
     7 H    -0.000073 -0.000125  0.000315
     8 H    -0.000264 -0.000041 -0.000406
 ----------------------------------------

 dE(predicted):    -0.29249E-04, dE(actual):    -0.21764E-04, Trust radius:    0.414764, all in a.u.
 
----------------------------------------------------------------------
Geometry Convergence after Step  16       (Hartree/Angstrom,Angstrom)
----------------------------------------------------------------------
current energy                               -1.35157671 Hartree
energy change                      -0.00002176     0.00008000    T
constrained gradient max            0.00105215     0.00010000    F
constrained gradient rms            0.00049965     0.00006667    F
gradient max                        0.00105215
gradient rms                        0.00049965
cart. step max                      0.00648657     0.01000000    T
cart. step rms                      0.00267086     0.00666667    T
 

--------
Geometry
--------
Formula: C2H5Cl
Atoms
  Index Symbol   x (angstrom)   y (angstrom)   z (angstrom)
      1      C    -0.34847474    -0.01349616    -0.22476313
      2      C     0.28243592     0.05695522     0.95123906
      3     Cl    -3.22831916    -0.18544291     2.10222214
      4      H    -2.08360504    -0.15004483     1.46942468
      5      H    -0.48944469    -0.96095216    -0.74290154
      6      H     0.42754436     1.00499014     1.46718547
      7      H     0.67958778    -0.83083035     1.44118552
      8      H    -0.74012529     0.87492989    -0.71810310

Total System Charge              0.00000

 *** GO1_GOStep17 ***

 Energy gradients wrt nuclear displacements
 ==========================================

     Atom      Cartesian (a.u./angstrom)
                 X         Y         Z
 ----------------------------------------
     1 C    -0.000016 -0.000203  0.000551
     2 C     0.000187  0.000256 -0.000476
     3 Cl   -0.000438 -0.000091  0.000394
     4 H     0.000414 -0.000129 -0.000423
     5 H     0.000081  0.000008 -0.000241
     6 H    -0.000265  0.000065  0.000292
     7 H     0.000063 -0.000096 -0.000016
     8 H    -0.000025  0.000189 -0.000080
 ----------------------------------------

 dE(predicted):    -0.36811E-05, dE(actual):    -0.98373E-05, Trust radius:    0.414764, all in a.u.
 
----------------------------------------------------------------------
Geometry Convergence after Step  17       (Hartree/Angstrom,Angstrom)
----------------------------------------------------------------------
current energy                               -1.35158655 Hartree
energy change                      -0.00000984     0.00008000    T
constrained gradient max            0.00054958     0.00010000    F
constrained gradient rms            0.00025810     0.00006667    F
gradient max                        0.00054958
gradient rms                        0.00025810
cart. step max                      0.00686946     0.01000000    T
cart. step rms                      0.00275922     0.00666667    T
 

--------
Geometry
--------
Formula: C2H5Cl
Atoms
  Index Symbol   x (angstrom)   y (angstrom)   z (angstrom)
      1      C    -0.35062141    -0.01327095    -0.22237966
      2      C     0.28340764     0.05740681     0.95206573
      3     Cl    -3.22813924    -0.18737683     2.09535269
      4      H    -2.08177010    -0.15010593     1.46691524
      5      H    -0.49526212    -0.96139553    -0.73808630
      6      H     0.43299563     1.00592338     1.46563319
      7      H     0.68155518    -0.83037157     1.44101106
      8      H    -0.74256646     0.87529945    -0.71502285

Total System Charge              0.00000

 *** GO1_GOStep18 ***

 Energy gradients wrt nuclear displacements
 ==========================================

     Atom      Cartesian (a.u./angstrom)
                 X         Y         Z
 ----------------------------------------
     1 C     0.000005 -0.000191  0.000044
     2 C    -0.000133  0.000237  0.000064
     3 Cl    0.000180 -0.000071  0.000021
     4 H    -0.000118 -0.000153 -0.000126
     5 H     0.000085  0.000023 -0.000058
     6 H    -0.000153 -0.000005  0.000145
     7 H     0.000152 -0.000010 -0.000168
     8 H    -0.000019  0.000170  0.000077
 ----------------------------------------

 dE(predicted):    -0.15386E-05, dE(actual):    -0.39141E-05, Trust radius:    0.414764, all in a.u.
 
----------------------------------------------------------------------
Geometry Convergence after Step  18       (Hartree/Angstrom,Angstrom)
----------------------------------------------------------------------
current energy                               -1.35159046 Hartree
energy change                      -0.00000391     0.00008000    T
constrained gradient max            0.00024962     0.00010000    F
constrained gradient rms            0.00010642     0.00006667    F
gradient max                        0.00024962
gradient rms                        0.00010642
cart. step max                      0.00499970     0.01000000    T
cart. step rms                      0.00198330     0.00666667    T
 

--------
Geometry
--------
Formula: C2H5Cl
Atoms
  Index Symbol   x (angstrom)   y (angstrom)   z (angstrom)
      1      C    -0.35167813    -0.01291237    -0.22097785
      2      C     0.28471584     0.05788399     0.95232662
      3     Cl    -3.22961583    -0.18965035     2.09102515
      4      H    -2.08150397    -0.15026656     1.46640100
      5      H    -0.49970416    -0.96144995    -0.73480028
      6      H     0.43799533     1.00677727     1.46398828
      7      H     0.68264963    -0.82993362     1.44123212
      8      H    -0.74325958     0.87566043    -0.71370595

Total System Charge              0.00000

 *** GO1_GOStep19 ***

 Energy gradients wrt nuclear displacements
 ==========================================

     Atom      Cartesian (a.u./angstrom)
                 X         Y         Z
 ----------------------------------------
     1 C    -0.000011 -0.000146 -0.000350
     2 C    -0.000206  0.000203  0.000452
     3 Cl    0.000390 -0.000064 -0.000127
     4 H    -0.000315 -0.000169 -0.000000
     5 H     0.000062  0.000095  0.000029
     6 H    -0.000082 -0.000066  0.000074
     7 H     0.000194  0.000071 -0.000216
     8 H    -0.000033  0.000075  0.000138
 ----------------------------------------
 
----------------------------------------------------------------------
Geometry Convergence after Step  19       (Hartree/Angstrom,Angstrom)
----------------------------------------------------------------------
current energy                               -1.35159135 Hartree
energy change                      -0.00000089     0.00008000    T
constrained gradient max            0.00044327     0.00010000    F
constrained gradient rms            0.00018245     0.00006667    F
gradient max                        0.00044327
gradient rms                        0.00018245
cart. step max                      0.00997116     0.01000000    T
cart. step rms                      0.00378470     0.00666667    T
 

--------
Geometry
--------
Formula: C2H5Cl
Atoms
  Index Symbol   x (angstrom)   y (angstrom)   z (angstrom)
      1      C    -0.35297453    -0.01196751    -0.21902946
      2      C     0.28728813     0.05907285     0.95231780
      3     Cl    -3.23349299    -0.19553334     2.08417377
      4      H    -2.08149484    -0.15063513     1.46757327
      5      H    -0.50825006    -0.96131410    -0.72898877
      6      H     0.44796649     1.00880154     1.46003521
      7      H     0.68261523    -0.82916331     1.44238689
      8      H    -0.74205830     0.87684785    -0.71297961

Total System Charge              0.00000

 *** GO1_GOStep20 ***

 Energy gradients wrt nuclear displacements
 ==========================================

     Atom      Cartesian (a.u./angstrom)
                 X         Y         Z
 ----------------------------------------
     1 C    -0.000003 -0.000112 -0.000828
     2 C    -0.000235  0.000186  0.000880
     3 Cl    0.000519 -0.000060 -0.000269
     4 H    -0.000456 -0.000195  0.000145
     5 H     0.000013  0.000220  0.000136
     6 H     0.000000 -0.000121 -0.000012
     7 H     0.000211  0.000169 -0.000276
     8 H    -0.000049 -0.000087  0.000223
 ----------------------------------------

 dE(predicted):    -0.14801E-05, dE(actual):    -0.11863E-05, Trust radius:    0.414764, all in a.u.
 
----------------------------------------------------------------------
Geometry Convergence after Step  20       (Hartree/Angstrom,Angstrom)
----------------------------------------------------------------------
current energy                               -1.35159254 Hartree
energy change                      -0.00000119     0.00008000    T
constrained gradient max            0.00086998     0.00010000    F
constrained gradient rms            0.00031543     0.00006667    F
gradient max                        0.00086998
gradient rms                        0.00031543
cart. step max                      0.00935075     0.01000000    T
cart. step rms                      0.00386824     0.00666667    T
 

--------
Geometry
--------
Formula: C2H5Cl
Atoms
  Index Symbol   x (angstrom)   y (angstrom)   z (angstrom)
      1      C    -0.35339654    -0.01074779    -0.21828120
      2      C     0.28921479     0.06047514     0.95177155
      3     Cl    -3.23767593    -0.20305954     2.07968881
      4      H    -2.08147711    -0.15088185     1.47149591
      5      H    -0.51604874    -0.96092155    -0.72436765
      6      H     0.45731724     1.01110992     1.45539462
      7      H     0.67918513    -0.82856699     1.44462083
      8      H    -0.73751971     0.87870150    -0.71483378

Total System Charge              0.00000

 *** GO1_GOStep21 ***

 Energy gradients wrt nuclear displacements
 ==========================================

     Atom      Cartesian (a.u./angstrom)
                 X         Y         Z
 ----------------------------------------
     1 C     0.000027 -0.000121 -0.000897
     2 C    -0.000187  0.000215  0.000882
     3 Cl    0.000366 -0.000056 -0.000273
     4 H    -0.000348 -0.000204  0.000205
     5 H    -0.000003  0.000245  0.000151
     6 H     0.000025 -0.000100 -0.000044
     7 H     0.000164  0.000176 -0.000282
     8 H    -0.000045 -0.000155  0.000259
 ----------------------------------------

 dE(predicted):    -0.15016E-05, dE(actual):    -0.15962E-05, Trust radius:    0.414764, all in a.u.
 
----------------------------------------------------------------------
Geometry Convergence after Step  21       (Hartree/Angstrom,Angstrom)
----------------------------------------------------------------------
current energy                               -1.35159413 Hartree
energy change                      -0.00000160     0.00008000    T
constrained gradient max            0.00089996     0.00010000    F
constrained gradient rms            0.00031327     0.00006667    F
gradient max                        0.00089996
gradient rms                        0.00031327
cart. step max                      0.00755623     0.01000000    T
cart. step rms                      0.00362978     0.00666667    T
 

--------
Geometry
--------
Formula: C2H5Cl
Atoms
  Index Symbol   x (angstrom)   y (angstrom)   z (angstrom)
      1      C    -0.35309084    -0.00952350    -0.21883844
      2      C     0.28973997     0.06173531     0.95091357
      3     Cl    -3.24024473    -0.21061577     2.07846989
      4      H    -2.08072520    -0.15081919     1.47679406
      5      H    -0.52161043    -0.96036260    -0.72195298
      6      H     0.46354249     1.01311720     1.45132024
      7      H     0.67263713    -0.82825351     1.44773859
      8      H    -0.73064924     0.88083090    -0.71895583

Total System Charge              0.00000

 *** GO1_GOStep22 ***

 Energy gradients wrt nuclear displacements
 ==========================================

     Atom      Cartesian (a.u./angstrom)
                 X         Y         Z
 ----------------------------------------
     1 C     0.000069 -0.000161 -0.000473
     2 C    -0.000083  0.000287  0.000405
     3 Cl    0.000040 -0.000058 -0.000167
     4 H    -0.000061 -0.000196  0.000183
     5 H     0.000025  0.000150  0.000057
     6 H    -0.000030 -0.000031 -0.000008
     7 H     0.000069  0.000092 -0.000200
     8 H    -0.000029 -0.000083  0.000202
 ----------------------------------------

 dE(predicted):    -0.13011E-05, dE(actual):    -0.20341E-05, Trust radius:    0.414764, all in a.u.
 
----------------------------------------------------------------------
Geometry Convergence after Step  22       (Hartree/Angstrom,Angstrom)
----------------------------------------------------------------------
current energy                               -1.35159617 Hartree
energy change                      -0.00000203     0.00008000    T
constrained gradient max            0.00047580     0.00010000    F
constrained gradient rms            0.00016952     0.00006667    F
gradient max                        0.00047580
gradient rms                        0.00016952
cart. step max                      0.00388474     0.01000000    T
cart. step rms                      0.00166351     0.00666667    T
 

--------
Geometry
--------
Formula: C2H5Cl
Atoms
  Index Symbol   x (angstrom)   y (angstrom)   z (angstrom)
      1      C    -0.35317376    -0.00896457    -0.21914807
      2      C     0.28950343     0.06219857     0.95054270
      3     Cl    -3.24003033    -0.21406145     2.07857877
      4      H    -2.07966377    -0.15057490     1.47852609
      5      H    -0.52393353    -0.96006416    -0.72120881
      6      H     0.46534666     1.01386549     1.44983226
      7      H     0.66875240    -0.82815613     1.44968244
      8      H    -0.72720197     0.88186599    -0.72131628

Total System Charge              0.00000

 *** GO1_GOStep23 ***

 Energy gradients wrt nuclear displacements
 ==========================================

     Atom      Cartesian (a.u./angstrom)
                 X         Y         Z
 ----------------------------------------
     1 C     0.000041 -0.000153 -0.000031
     2 C    -0.000015  0.000268 -0.000051
     3 Cl   -0.000112 -0.000070 -0.000097
     4 H     0.000106 -0.000186  0.000143
     5 H     0.000057  0.000068 -0.000025
     6 H    -0.000087  0.000019  0.000053
     7 H     0.000032  0.000034 -0.000081
     8 H    -0.000023  0.000019  0.000088
 ----------------------------------------

 dE(predicted):    -0.45291E-06, dE(actual):    -0.16333E-05, Trust radius:    0.414764, all in a.u.
 
----------------------------------------------------------------------
Geometry Convergence after Step  23       (Hartree/Angstrom,Angstrom)
----------------------------------------------------------------------
current energy                               -1.35159780 Hartree
energy change                      -0.00000163     0.00008000    T
constrained gradient max            0.00021928     0.00010000    F
constrained gradient rms            0.00008568     0.00006667    F
gradient max                        0.00021928
gradient rms                        0.00008568
cart. step max                      0.00248122     0.01000000    T
cart. step rms                      0.00093795     0.00666667    T
 

--------
Geometry
--------
Formula: C2H5Cl
Atoms
  Index Symbol   x (angstrom)   y (angstrom)   z (angstrom)
      1      C    -0.35326794    -0.00865807    -0.21937496
      2      C     0.28896188     0.06233338     0.95049820
      3     Cl    -3.23880094    -0.21576457     2.07935526
      4      H    -2.07889375    -0.15026182     1.47844291
      5      H    -0.52490163    -0.95989872    -0.72102514
      6      H     0.46560133     1.01412247     1.44938462
      7      H     0.66627118    -0.82815815     1.45098245
      8      H    -0.72537099     0.88239432    -0.72277424

Total System Charge              0.00000

 *** GO1_GOStep24 ***

 Energy gradients wrt nuclear displacements
 ==========================================

     Atom      Cartesian (a.u./angstrom)
                 X         Y         Z
 ----------------------------------------
     1 C     0.000016 -0.000094  0.000234
     2 C     0.000006  0.000195 -0.000305
     3 Cl   -0.000140 -0.000088 -0.000057
     4 H     0.000166 -0.000177  0.000111
     5 H     0.000074  0.000004 -0.000076
     6 H    -0.000115  0.000059  0.000094
     7 H     0.000031  0.000010  0.000011
     8 H    -0.000038  0.000092 -0.000012
 ----------------------------------------

 dE(predicted):    -0.25690E-06, dE(actual):    -0.15535E-05, Trust radius:    0.414764, all in a.u.
 
----------------------------------------------------------------------
Geometry Convergence after Step  24       (Hartree/Angstrom,Angstrom)
----------------------------------------------------------------------
current energy                               -1.35159935 Hartree
energy change                      -0.00000155     0.00008000    T
constrained gradient max            0.00030961     0.00010000    F
constrained gradient rms            0.00010934     0.00006667    F
gradient max                        0.00030961
gradient rms                        0.00010934
cart. step max                      0.00278074     0.01000000    T
cart. step rms                      0.00128635     0.00666667    T
 

--------
Geometry
--------
Formula: C2H5Cl
Atoms
  Index Symbol   x (angstrom)   y (angstrom)   z (angstrom)
      1      C    -0.35363712    -0.00824338    -0.21923586
      2      C     0.28852224     0.06261530     0.95063799
      3     Cl    -3.23699040    -0.21839322     2.07998395
      4      H    -2.07832025    -0.14973398     1.47690829
      5      H    -0.52709070    -0.95971944    -0.71997311
      6      H     0.46698283     1.01458838     1.44864346
      7      H     0.66349044    -0.82804539     1.45266960
      8      H    -0.72335789     0.88304057    -0.72414524

Total System Charge              0.00000

 *** GO1_GOStep25 ***

 Energy gradients wrt nuclear displacements
 ==========================================

     Atom      Cartesian (a.u./angstrom)
                 X         Y         Z
 ----------------------------------------
     1 C    -0.000009 -0.000026  0.000449
     2 C    -0.000002  0.000113 -0.000495
     3 Cl   -0.000099 -0.000118 -0.000018
     4 H     0.000177 -0.000165  0.000073
     5 H     0.000072 -0.000058 -0.000130
     6 H    -0.000118  0.000100  0.000140
     7 H     0.000040  0.000008  0.000090
     8 H    -0.000060  0.000145 -0.000109
 ----------------------------------------

 dE(predicted):    -0.36817E-06, dE(actual):    -0.24040E-05, Trust radius:    0.414764, all in a.u.
 
----------------------------------------------------------------------
Geometry Convergence after Step  25       (Hartree/Angstrom,Angstrom)
----------------------------------------------------------------------
current energy                               -1.35160176 Hartree
energy change                      -0.00000240     0.00008000    T
constrained gradient max            0.00049362     0.00010000    F
constrained gradient rms            0.00015763     0.00006667    F
gradient max                        0.00049362
gradient rms                        0.00015763
cart. step max                      0.00335661     0.01000000    T
cart. step rms                      0.00155175     0.00666667    T
 

--------
Geometry
--------
Formula: C2H5Cl
Atoms
  Index Symbol   x (angstrom)   y (angstrom)   z (angstrom)
      1      C    -0.35427757    -0.00778358    -0.21842184
      2      C     0.28891867     0.06302313     0.95090535
      3     Cl    -3.23595604    -0.22151918     2.07972222
      4      H    -2.07888541    -0.14914896     1.47402649
      5      H    -0.53044730    -0.95956894    -0.71766970
      6      H     0.47032896     1.01526227     1.44736594
      7      H     0.66200926    -0.82777803     1.45408560
      8      H    -0.72209143     0.88362214    -0.72452496

Total System Charge              0.00000

 *** GO1_GOStep26 ***

 Energy gradients wrt nuclear displacements
 ==========================================

     Atom      Cartesian (a.u./angstrom)
                 X         Y         Z
 ----------------------------------------
     1 C    -0.000036  0.000062  0.000461
     2 C    -0.000028  0.000030 -0.000475
     3 Cl   -0.000006 -0.000149  0.000009
     4 H     0.000120 -0.000153  0.000037
     5 H     0.000068 -0.000070 -0.000135
     6 H    -0.000087  0.000112  0.000131
     7 H     0.000056  0.000038  0.000120
     8 H    -0.000087  0.000130 -0.000148
 ----------------------------------------

 dE(predicted):    -0.39563E-06, dE(actual):    -0.20387E-05, Trust radius:    0.414764, all in a.u.
 
----------------------------------------------------------------------
Geometry Convergence after Step  26       (Hartree/Angstrom,Angstrom)
----------------------------------------------------------------------
current energy                               -1.35160380 Hartree
energy change                      -0.00000204     0.00008000    T
constrained gradient max            0.00046702     0.00010000    F
constrained gradient rms            0.00015259     0.00006667    F
gradient max                        0.00046702
gradient rms                        0.00015259
cart. step max                      0.00455986     0.01000000    T
cart. step rms                      0.00172822     0.00666667    T
 

--------
Geometry
--------
Formula: C2H5Cl
Atoms
  Index Symbol   x (angstrom)   y (angstrom)   z (angstrom)
      1      C    -0.35481530    -0.00741310    -0.21729415
      2      C     0.29018410     0.06352117     0.95111584
      3     Cl    -3.23663131    -0.22444846     2.07853860
      4      H    -2.08059494    -0.14876887     1.47141385
      5      H    -0.53413510    -0.95949131    -0.71476379
      6      H     0.47488881     1.01607049     1.44568587
      7      H     0.66223710    -0.82742120     1.45471351
      8      H    -0.72153423     0.88406012    -0.72392062

Total System Charge              0.00000

 *** GO1_GOStep27 ***

 Energy gradients wrt nuclear displacements
 ==========================================

     Atom      Cartesian (a.u./angstrom)
                 X         Y         Z
 ----------------------------------------
     1 C    -0.000042  0.000088  0.000232
     2 C    -0.000042  0.000027 -0.000223
     3 Cl    0.000083 -0.000166  0.000019
     4 H     0.000033 -0.000146  0.000020
     5 H     0.000039 -0.000028 -0.000085
     6 H    -0.000047  0.000093  0.000066
     7 H     0.000068  0.000077  0.000062
     8 H    -0.000092  0.000056 -0.000092
 ----------------------------------------
 
----------------------------------------------------------------------
Geometry Convergence after Step  27       (Hartree/Angstrom,Angstrom)
----------------------------------------------------------------------
current energy                               -1.35160444 Hartree
energy change                      -0.00000064     0.00008000    T
constrained gradient max            0.00023705     0.00010000    F
constrained gradient rms            0.00007816     0.00006667    F
gradient max                        0.00023705
gradient rms                        0.00007816
cart. step max                      0.00166916     0.01000000    T
cart. step rms                      0.00075244     0.00666667    T
 

--------
Geometry
--------
Formula: C2H5Cl
Atoms
  Index Symbol   x (angstrom)   y (angstrom)   z (angstrom)
      1      C    -0.35470743    -0.00742377    -0.21693118
      2      C     0.29110604     0.06358566     0.95109508
      3     Cl    -3.23812758    -0.22462224     2.07818103
      4      H    -2.08226410    -0.14874411     1.47090465
      5      H    -0.53450710    -0.95953595    -0.71402547
      6      H     0.47640803     1.01622065     1.44517188
      7      H     0.66379940    -0.82734432     1.45414320
      8      H    -0.72210813     0.88397291    -0.72305009

Total System Charge              0.00000

 *** GO1_GOStep28 ***

 Energy gradients wrt nuclear displacements
 ==========================================

     Atom      Cartesian (a.u./angstrom)
                 X         Y         Z
 ----------------------------------------
     1 C    -0.000034  0.000085 -0.000007
     2 C    -0.000026  0.000041  0.000012
     3 Cl    0.000108 -0.000169  0.000017
     4 H    -0.000025 -0.000146  0.000029
     5 H     0.000038  0.000026 -0.000024
     6 H    -0.000033  0.000068 -0.000005
     7 H     0.000065  0.000096 -0.000002
     8 H    -0.000093 -0.000001 -0.000020
 ----------------------------------------

 dE(predicted):    -0.12406E-06, dE(actual):     0.12272E-05, Trust radius:    0.020000, all in a.u.
 
---------------------------------------------------------
Geometry Convergence after Step  28       ** CONVERGED **
---------------------------------------------------------
current energy                               -1.35160321 Hartree
energy change                       0.00000123     0.00008000    T
constrained gradient max            0.00007228     0.00010000    T
constrained gradient rms            0.00002730     0.00006667    T
gradient max                        0.00007228
gradient rms                        0.00002730
cart. step max                      0.00148939     0.01000000    T
cart. step rms                      0.00056490     0.00666667    T
 
Geometry optimization converged

Optimized geometry:

--------
Geometry
--------
Formula: C2H5Cl
Atoms
  Index Symbol   x (angstrom)   y (angstrom)   z (angstrom)
      1      C    -0.35470743    -0.00742377    -0.21693118
      2      C     0.29110604     0.06358566     0.95109508
      3     Cl    -3.23812758    -0.22462224     2.07818103
      4      H    -2.08226410    -0.14874411     1.47090465
      5      H    -0.53450710    -0.95953595    -0.71402547
      6      H     0.47640803     1.01622065     1.44517188
      7      H     0.66379940    -0.82734432     1.45414320
      8      H    -0.72210813     0.88397291    -0.72305009

Total System Charge              0.00000

Performing a single point calculation on the final geometry ...

 *** adf ***



 ===========================
 A T T A C H E D   F I L E S
 ===========================
  
 Restart/tmp/amstmp_c5_fragB_opt_kid0.1499044181/GO1_GOStep28.rkf*** GO1_GOStep28 ***



 ===============================
 M O D E L   P A R A M E T E R S
 ===============================
  
 DENSITY FUNCTIONAL POTENTIAL (scf)
    LDA:                               Exchange only                           == Not Default ==
    Gradient Corrections:              Becke88 LYP                             == Not Default ==

 SPIN  (restricted / unrestr.)
    Molecule:                          Restricted                               
    Fragments:                         Restricted                               

 OTHER ASPECTS
    Relativistic Corrections:          scalar (ZORA,MAPA)                       

    Nuclear Charge Density Model:      Point Charge Nuclei                      
    Core Treatment:                    Frozen Orbital(s)                        

    Hyperfine or Zeeman Interaction:   ---                                      

 Settings for Grimme D3 dispersion correction

      damping                        BJ
      s6                          1.000
      s8                          2.700
      a1                          0.430
      a2                          4.236

 Other (technical) parameters

      alpha                      14.000
      version                         4
 



 ===============
 G E O M E T R Y  ***  3D  Molecule  ***
 ===============
  

 ATOMS
 =====                            X Y Z                    CHARGE
                                (Angstrom)             Nucl     +Core       At.Mass
                       --------------------------    ----------------       -------
    1  C              -0.3547   -0.0074   -0.2169      6.00      6.00       12.0000
    2  C               0.2911    0.0636    0.9511      6.00      6.00       12.0000
    3  Cl             -3.2381   -0.2246    2.0782     17.00     17.00       34.9689
    4  H              -2.0823   -0.1487    1.4709      1.00      1.00        1.0078
    5  H              -0.5345   -0.9595   -0.7140      1.00      1.00        1.0078
    6  H               0.4764    1.0162    1.4452      1.00      1.00        1.0078
    7  H               0.6638   -0.8273    1.4541      1.00      1.00        1.0078
    8  H              -0.7221    0.8840   -0.7231      1.00      1.00        1.0078


 FRAGMENTS
 =========                                     Atoms in this Fragment     Cart. coord.s (Angstrom)
                                               -------------------------------------------------------
    1  C                                                 1  C           -0.3547   -0.0074   -0.2169
    2  C                                                 2  C            0.2911    0.0636    0.9511
    3  Cl                                                3  Cl          -3.2381   -0.2246    2.0782
    4  H                                                 4  H           -2.0823   -0.1487    1.4709
    5  H                                                 5  H           -0.5345   -0.9595   -0.7140
    6  H                                                 6  H            0.4764    1.0162    1.4452
    7  H                                                 7  H            0.6638   -0.8273    1.4541
    8  H                                                 8  H           -0.7221    0.8840   -0.7231


 Interatomic Distance Matrix (Angstrom)
 --------------------------------------

   1)     0.000
   2)     1.337   0.000
   3)     3.692   3.716   0.000
   4)     2.419   2.439   1.308   0.000
   5)     1.089   2.122   3.956   2.798   0.000
   6)     2.122   1.089   3.967   2.812   3.096   0.000
   7)     2.122   1.089   3.997   2.829   2.481   1.853   0.000
   8)     1.089   2.122   3.925   2.780   1.853   2.481   3.097   0.000

 Min. Distance =    1.0889
 Max. Distance =    3.9972



 =====================================
 S Y M M E T R Y ,   E L E C T R O N S
 =====================================
  
 Symmetry: NOSYM

 Irreducible Representations, including subspecies
 -------------------------------------------------
 A


 Configuration of Valence Electrons
 ==================================
 ( determined in the SCF procedure )

 Total:   34

 Net Charge: 0 (Nuclei minus Electrons)

 Aufbau principle for MO occupations will be applied through SCF cycle no.     100
 Thereafter, the program will assign electrons to MOs that are spatially
 similar to the occupied MOs in a "reference" cycle ("KeepOrbitals").
 The reference cycle is always the PREVIOUS cycle: it will evolve with
 the SCF procedure.
 ***************************************************************************************************



                                      ****************************************
                                      *  B U I L D : (Fragments, Functions)  *
                                      ****************************************
  



 =======
 S F O s  ***  (Symmetrized Fragment Orbitals)  ***
 =======
  
 SFOs are linear combinations of (valence) Fragment Orbitals (FOs), such that the SFOs transform as the
 irreducible representations of the (molecular) symmetry group. Each SFO is therefore characterized by
 an irrep of the molecule and by a few (or only one) generating FOs.
 The SFOs constitute a symmetry-adapted basis for the Fock matrix. The MO eigenvector coefficients in
 this basis provide a direct interpretation of the MOs in terms of Frontier Orbital Theory.

 The SFOs are combined with auxiliary Core Functions (CFs) to ensure orthogonalization on the (frozen)
 Core Orbitals (COs). The Core-orthogonalized SFOs (CSFOs) constitute the true Fock basis.

 The FOs, and hence also the (C)SFOs are combinations of the elementary basis functions (BAS). The basis
 functions that participate in the description of the SFOs depend on the irrep. The indices of the
 involved functions are printed below for each irrep.
 (The complete list of primitive basis functions is printed in another section)

 Total nr. of (C)SFOs (summation over all irreps) :   141

 NOTE: a (C)SFO that is defined as a combination of more than one FO is usually NOT normalized.



                                       === A ===
 Nr. of SFOs :  141
 Cartesian basis functions that participate in this irrep (total number =   158) :
      1     2     3     4     5     6     9    12     7    10
     13     8    11    14    15    16    17    18    19    20
     21    22    23    24    25    26    27    28    29    30
     31    32    33    34    35    36    39    42    37    40
     43    38    41    44    45    46    47    48    49    50
     51    52    53    54    55    56    57    58    59    60
     61    62    63    64    71    72    73    65    68    74
     77    80    66    69    75    78    81    67    70    76
     79    82    83    84    85    86    87    88    89    90
     91    92    93    94    95    96    97    98    99   100
    101   102   103   104   105   106   107   108   109   110
    111   112   113   114   115   116   117   118   119   120
    121   122   123   124   125   126   127   128   129   130
    131   132   133   134   135   136   137   138   139   140
    141   142   143   144   145   146   147   148   149   150
    151   152   153   154   155   156   157   158

    SFO  (index         Fragment          Generating    Expansion in Fragment Orbitals
  indx  incl.CFs)   Occup   Orb.Energy   FragmentType  Coeff.   Orbital     on Fragment
 --------------------------------------------------------------------------------------
     1       1      2.000     -10.066 au  C             1.00      1 S               1
                        (    -273.921 eV)
     2       2      2.000      -0.501 au  C             1.00      2 S               1
                        (     -13.620 eV)
     3       3       --         0.373 au  C             1.00      3 S               1
                        (      10.158 eV)
     4       4       --         5.405 au  C             1.00      4 S               1
                        (     147.073 eV)
     5       5       --        49.848 au  C             1.00      5 S               1
                        (    1356.422 eV)
     6       6      0.667      -0.193 au  C             1.00      1 P:x             1
                        (      -5.239 eV)
     7       7       --         0.169 au  C             1.00      2 P:x             1
                        (       4.589 eV)
     8       8       --         2.013 au  C             1.00      3 P:x             1
                        (      54.789 eV)
     9       9      0.667      -0.193 au  C             1.00      1 P:y             1
                        (      -5.239 eV)
    10      10       --         0.169 au  C             1.00      2 P:y             1
                        (       4.589 eV)
    11      11       --         2.013 au  C             1.00      3 P:y             1
                        (      54.789 eV)
    12      12      0.667      -0.193 au  C             1.00      1 P:z             1
                        (      -5.239 eV)
    13      13       --         0.169 au  C             1.00      2 P:z             1
                        (       4.589 eV)
    14      14       --         2.013 au  C             1.00      3 P:z             1
                        (      54.789 eV)
    15      15       --         1.243 au  C             1.00      1 D:z2            1
                        (      33.824 eV)
    16      16       --         1.243 au  C             1.00      1 D:x2-y2         1
                        (      33.824 eV)
    17      17       --         1.243 au  C             1.00      1 D:xy            1
                        (      33.824 eV)
    18      18       --         1.243 au  C             1.00      1 D:xz            1
                        (      33.824 eV)
    19      19       --         1.243 au  C             1.00      1 D:yz            1
                        (      33.824 eV)
    20      20       --         4.016 au  C             1.00      1 F:z3            1
                        (     109.271 eV)
    21      21       --         4.016 au  C             1.00      1 F:z             1
                        (     109.271 eV)
    22      22       --         4.016 au  C             1.00      1 F:xyz           1
                        (     109.271 eV)
    23      23       --         4.016 au  C             1.00      1 F:z2x           1
                        (     109.271 eV)
    24      24       --         4.016 au  C             1.00      1 F:z2y           1
                        (     109.271 eV)
    25      25       --         4.016 au  C             1.00      1 F:x             1
                        (     109.271 eV)
    26      26       --         4.016 au  C             1.00      1 F:y             1
                        (     109.271 eV)
    27      27      2.000     -10.066 au  C             1.00      1 S               2
                        (    -273.921 eV)
    28      28      2.000      -0.501 au  C             1.00      2 S               2
                        (     -13.620 eV)
    29      29       --         0.373 au  C             1.00      3 S               2
                        (      10.158 eV)
    30      30       --         5.405 au  C             1.00      4 S               2
                        (     147.073 eV)
    31      31       --        49.848 au  C             1.00      5 S               2
                        (    1356.422 eV)
    32      32      0.667      -0.193 au  C             1.00      1 P:x             2
                        (      -5.239 eV)
    33      33       --         0.169 au  C             1.00      2 P:x             2
                        (       4.589 eV)
    34      34       --         2.013 au  C             1.00      3 P:x             2
                        (      54.789 eV)
    35      35      0.667      -0.193 au  C             1.00      1 P:y             2
                        (      -5.239 eV)
    36      36       --         0.169 au  C             1.00      2 P:y             2
                        (       4.589 eV)
    37      37       --         2.013 au  C             1.00      3 P:y             2
                        (      54.789 eV)
    38      38      0.667      -0.193 au  C             1.00      1 P:z             2
                        (      -5.239 eV)
    39      39       --         0.169 au  C             1.00      2 P:z             2
                        (       4.589 eV)
    40      40       --         2.013 au  C             1.00      3 P:z             2
                        (      54.789 eV)
    41      41       --         1.243 au  C             1.00      1 D:z2            2
                        (      33.824 eV)
    42      42       --         1.243 au  C             1.00      1 D:x2-y2         2
                        (      33.824 eV)
    43      43       --         1.243 au  C             1.00      1 D:xy            2
                        (      33.824 eV)
    44      44       --         1.243 au  C             1.00      1 D:xz            2
                        (      33.824 eV)
    45      45       --         1.243 au  C             1.00      1 D:yz            2
                        (      33.824 eV)
    46      46       --         4.016 au  C             1.00      1 F:z3            2
                        (     109.271 eV)
    47      47       --         4.016 au  C             1.00      1 F:z             2
                        (     109.271 eV)
    48      48       --         4.016 au  C             1.00      1 F:xyz           2
                        (     109.271 eV)
    49      49       --         4.016 au  C             1.00      1 F:z2x           2
                        (     109.271 eV)
    50      50       --         4.016 au  C             1.00      1 F:z2y           2
                        (     109.271 eV)
    51      51       --         4.016 au  C             1.00      1 F:x             2
                        (     109.271 eV)
    52      52       --         4.016 au  C             1.00      1 F:y             2
                        (     109.271 eV)
    53      53      2.000    -101.116 au  Cl            1.00      1 S               3
                        (   -2751.516 eV)
    54      54      2.000      -9.276 au  Cl            1.00      2 S               3
                        (    -252.419 eV)
    55      55      2.000      -0.754 au  Cl            1.00      3 S               3
                        (     -20.523 eV)
    56      56       --         0.194 au  Cl            1.00      4 S               3
                        (       5.292 eV)
    57      57       --         1.998 au  Cl            1.00      5 S               3
                        (      54.377 eV)
    58      58       --        12.618 au  Cl            1.00      6 S               3
                        (     343.355 eV)
    59      59       --       205.328 au  Cl            1.00      7 S               3
                        (    5587.258 eV)
    60      60      2.000      -7.038 au  Cl            1.00      1 P:x             3
                        (    -191.503 eV)
    61      61      1.667      -0.310 au  Cl            1.00      2 P:x             3
                        (      -8.439 eV)
    62      62       --         0.226 au  Cl            1.00      3 P:x             3
                        (       6.147 eV)
    63      63       --         2.102 au  Cl            1.00      4 P:x             3
                        (      57.194 eV)
    64      64       --        18.665 au  Cl            1.00      5 P:x             3
                        (     507.904 eV)
    65      65      2.000      -7.038 au  Cl            1.00      1 P:y             3
                        (    -191.503 eV)
    66      66      1.667      -0.310 au  Cl            1.00      2 P:y             3
                        (      -8.439 eV)
    67      67       --         0.226 au  Cl            1.00      3 P:y             3
                        (       6.147 eV)
    68      68       --         2.102 au  Cl            1.00      4 P:y             3
                        (      57.194 eV)
    69      69       --        18.665 au  Cl            1.00      5 P:y             3
                        (     507.904 eV)
    70      70      2.000      -7.038 au  Cl            1.00      1 P:z             3
                        (    -191.503 eV)
    71      71      1.667      -0.310 au  Cl            1.00      2 P:z             3
                        (      -8.439 eV)
    72      72       --         0.226 au  Cl            1.00      3 P:z             3
                        (       6.147 eV)
    73      73       --         2.102 au  Cl            1.00      4 P:z             3
                        (      57.194 eV)
    74      74       --        18.665 au  Cl            1.00      5 P:z             3
                        (     507.904 eV)
    75      75       --         0.388 au  Cl            1.00      1 D:z2            3
                        (      10.568 eV)
[...]
      -7.477  2.00    15 A         76.47%     2 P:z            -8.439  1.67     3 Cl
                                   21.38%     2 P:x            -8.439  1.67     3 Cl
                                    1.38%     1 P:z            11.051  0.00     4 H
      -7.473  2.00    16 A         97.60%     2 P:y            -8.439  1.67     3 Cl
                                    1.75%     1 P:y            11.051  0.00     4 H
      -7.240  2.00    17 A         34.83%     1 P:x            -5.239  0.67     1 C
                                   33.73%     1 P:x            -5.239  0.67     2 C
                                   11.33%     1 P:z            -5.239  0.67     2 C
                                   10.13%     1 P:z            -5.239  0.67     1 C
                                    2.57%     2 P:x            -8.439  1.67     3 Cl
      -1.593  0.00    18 A         37.09%     1 P:x            -5.239  0.67     2 C
                                   36.60%     1 P:x            -5.239  0.67     1 C
                                   11.53%     1 P:z            -5.239  0.67     1 C
                                   11.46%     1 P:z            -5.239  0.67     2 C
                                   -3.06%     2 P:x             4.589  0.00     1 C
                                   -3.02%     2 P:x             4.589  0.00     2 C
                                    1.44%     1 P:x            11.051  0.00     8 H
                                    1.44%     1 P:x            11.051  0.00     6 H
                                    1.42%     1 P:x            11.051  0.00     7 H
                                    1.42%     1 P:x            11.051  0.00     5 H
      -0.339  0.00    19 A         38.01%     1 S              -6.532  1.00     4 H
                                   15.80%     2 S               2.394  0.00     4 H
                                   10.01%     2 S               2.394  0.00     7 H
                                    9.72%     2 S               2.394  0.00     5 H
                                    9.55%     2 S               2.394  0.00     6 H
                                    9.25%     2 S               2.394  0.00     8 H
                                    8.29%     2 P:x            -8.439  1.67     3 Cl
                                   -7.33%     4 S               5.292  0.00     3 Cl
                                   -4.47%     3 S              10.158  0.00     2 C
                                   -4.41%     3 S              10.158  0.00     1 C
                                   -4.06%     3 P:x             6.147  0.00     3 Cl
                                    3.34%     1 S              -6.532  1.00     7 H
                                    3.20%     1 S              -6.532  1.00     5 H
                                    3.12%     1 S              -6.532  1.00     6 H
                                    2.98%     1 S              -6.532  1.00     8 H
                                    2.26%     2 P:z            -8.439  1.67     3 Cl
                                   -2.13%     3 S              40.869  0.00     4 H
                                    1.77%     3 S             -20.523  2.00     3 Cl
                                    1.62%     1 P:z            -5.239  0.67     2 C
                                    1.39%     1 P:x            -5.239  0.67     1 C
                                   -1.10%     3 P:z             6.147  0.00     3 Cl
       0.513  0.00    20 A         44.36%     1 S              -6.532  1.00     4 H
                                   12.41%     2 P:x            -8.439  1.67     3 Cl
                                  -11.20%     2 S               2.394  0.00     4 H
                                  -10.49%     4 S               5.292  0.00     3 Cl
                                    7.55%     2 S               2.394  0.00     6 H
                                    7.48%     2 S               2.394  0.00     8 H
                                    7.41%     2 S               2.394  0.00     7 H
                                    7.33%     2 S               2.394  0.00     5 H
                                    6.85%     1 S              -6.532  1.00     6 H
                                    6.82%     1 S              -6.532  1.00     8 H
                                    6.70%     1 S              -6.532  1.00     7 H
                                    6.67%     1 S              -6.532  1.00     5 H
                                   -3.52%     3 S              10.158  0.00     2 C
                                   -3.46%     3 S              10.158  0.00     1 C
                                    3.36%     2 P:z            -8.439  1.67     3 Cl
                                    3.23%     3 S             -20.523  2.00     3 Cl
                                    2.24%     1 P:z            -5.239  0.67     1 C
                                    2.24%     1 D:xz           10.568  0.00     3 Cl
                                    2.05%     1 D:x2-y2        10.568  0.00     3 Cl
                                   -1.95%     2 P:z             4.589  0.00     1 C
                                   -1.83%     2 P:x             4.589  0.00     2 C
                                    1.67%     2 S             -13.620  2.00     2 C
                                    1.67%     2 S             -13.620  2.00     1 C
                                    1.47%     1 P:x            -5.239  0.67     2 C
       0.579  0.00    21 A        -22.47%     2 P:y             4.589  0.00     2 C
                                  -22.33%     2 P:y             4.589  0.00     1 C
                                   20.50%     1 S              -6.532  1.00     6 H
                                   20.36%     1 S              -6.532  1.00     5 H
                                   19.47%     1 S              -6.532  1.00     7 H
                                   19.47%     1 S              -6.532  1.00     8 H
                                   14.95%     2 S               2.394  0.00     6 H
                                   14.67%     2 S               2.394  0.00     5 H
                                   14.00%     2 S               2.394  0.00     8 H
                                   13.84%     2 S               2.394  0.00     7 H
       0.596  0.00    22 A         18.95%     2 S               2.394  0.00     8 H
                                   18.81%     2 S               2.394  0.00     7 H
                                   18.18%     2 S               2.394  0.00     5 H
                                   17.80%     2 S               2.394  0.00     6 H
                                   17.17%     1 S              -6.532  1.00     8 H
                                   17.08%     1 S              -6.532  1.00     7 H
                                   16.32%     1 S              -6.532  1.00     5 H
                                   16.01%     1 S              -6.532  1.00     6 H
                                  -14.10%     2 P:z             4.589  0.00     1 C
                                  -13.78%     2 P:z             4.589  0.00     2 C
                                   -4.66%     3 S              10.158  0.00     1 C
                                   -4.55%     3 S              10.158  0.00     2 C
                                   -4.40%     2 P:x             4.589  0.00     2 C
                                   -4.16%     2 P:x             4.589  0.00     1 C
                                    4.04%     2 S             -13.620  2.00     1 C
                                    3.99%     2 S             -13.620  2.00     2 C
                                   -3.26%     1 P:z            -5.239  0.67     1 C
                                   -3.21%     1 P:z            -5.239  0.67     2 C
                                   -1.02%     1 P:x            -5.239  0.67     2 C
       2.345  0.00    23 A         94.55%     2 S               2.394  0.00     4 H
                                   -6.76%     4 S               5.292  0.00     3 Cl
                                   -5.55%     2 P:x             4.589  0.00     2 C
                                    4.89%     1 D:xz           10.568  0.00     3 Cl
                                    4.85%     2 P:z             4.589  0.00     2 C
                                    4.69%     2 P:x            -8.439  1.67     3 Cl
                                    4.19%     1 D:x2-y2        10.568  0.00     3 Cl
                                   -2.92%     2 P:z             4.589  0.00     1 C
                                   -1.71%     3 S             -20.523  2.00     3 Cl
                                    1.68%     2 P:x             4.589  0.00     1 C
                                   -1.44%     2 S               2.394  0.00     6 H
                                   -1.44%     2 S               2.394  0.00     5 H
                                    1.32%     2 P:z            -8.439  1.67     3 Cl
                                   -1.23%     2 S               2.394  0.00     8 H
                                   -1.22%     2 S               2.394  0.00     7 H
                                    1.00%     3 S              40.869  0.00     4 H
       2.367  0.00    24 A        -34.53%     2 P:y             4.589  0.00     1 C
                                  -34.36%     2 P:y             4.589  0.00     2 C
                                   19.87%     1 S              -6.532  1.00     8 H
                                   19.77%     1 S              -6.532  1.00     7 H
                                   19.64%     1 S              -6.532  1.00     6 H
                                   19.60%     1 S              -6.532  1.00     5 H
                                   14.44%     2 S               2.394  0.00     6 H
                                   14.41%     2 S               2.394  0.00     5 H
                                   14.32%     2 S               2.394  0.00     8 H
                                   14.18%     2 S               2.394  0.00     7 H
                                    9.48%     1 P:y            -5.239  0.67     2 C
                                    9.45%     1 P:y            -5.239  0.67     1 C
                                    3.98%     3 S              40.869  0.00     8 H
                                    3.98%     3 S              40.869  0.00     7 H
                                    3.92%     3 S              40.869  0.00     5 H
                                    3.92%     3 S              40.869  0.00     6 H
       3.622  0.00    25 A         29.21%     2 P:z             4.589  0.00     1 C
                                   16.20%     2 P:x             4.589  0.00     2 C
                                   11.95%     2 P:z             4.589  0.00     2 C
                                    8.41%     1 P:z            -5.239  0.67     1 C
                                    7.19%     1 P:z            -5.239  0.67     2 C
                                   -3.69%     3 S              10.158  0.00     2 C
                                   -3.67%     3 S              10.158  0.00     1 C
                                    3.50%     2 S             -13.620  2.00     1 C
                                    3.42%     2 S             -13.620  2.00     2 C
                                    2.85%     1 P:x            -5.239  0.67     2 C
                                    2.19%     1 S              -6.532  1.00     5 H
                                    2.18%     1 S              -6.532  1.00     8 H
                                    2.15%     1 S              -6.532  1.00     7 H
                                    2.13%     1 S              -6.532  1.00     6 H
                                    1.89%     2 S               2.394  0.00     4 H
                                    1.79%     1 P:x            -5.239  0.67     1 C
                                    1.70%     1 P:z            11.051  0.00     5 H
                                    1.67%     1 P:z            11.051  0.00     8 H
                                    1.52%     2 S               2.394  0.00     6 H
                                    1.48%     2 S               2.394  0.00     8 H
                                    1.46%     2 S               2.394  0.00     7 H
                                    1.46%     2 S               2.394  0.00     5 H
                                    1.42%     1 P:z            11.051  0.00     6 H
                                    1.41%     1 P:z            11.051  0.00     7 H

 Energy gradients wrt nuclear displacements
 ==========================================

     Atom      Cartesian (a.u./angstrom)
                 X         Y         Z
 ----------------------------------------
     1 C    -0.000034  0.000085 -0.000007
     2 C    -0.000026  0.000041  0.000012
     3 Cl    0.000108 -0.000169  0.000017
     4 H    -0.000025 -0.000146  0.000029
     5 H     0.000038  0.000026 -0.000024
     6 H    -0.000033  0.000068 -0.000005
     7 H     0.000065  0.000096 -0.000002
     8 H    -0.000093 -0.000001 -0.000020
 ----------------------------------------



 =======================================================================
 Electrostatic potential at the Nuclei due to electrons and other nuclei
 =======================================================================
  
         Atom                  Potential
         ----                  ---------
     1)   C                  14.77311160
     2)   C                  14.77303226
     3)   Cl                 64.87157497
     4)   H                   0.96902680
     5)   H                   1.09009063
     6)   H                   1.09008158
     7)   H                   1.09018234
     8)   H                   1.09019975
 Mulliken charges used for AMS results%charges...


    =====================
     CALCULATION RESULTS
    =====================

Energy (hartree)            -1.35160321

Gradients (hartree/bohr)
  Index   Atom            d/dx            d/dy            d/dz
      1      C   -0.0000177666    0.0000450290   -0.0000039306
      2      C   -0.0000137160    0.0000215189    0.0000061359
      3     Cl    0.0000569937   -0.0000892773    0.0000092172
      4      H   -0.0000132709   -0.0000772646    0.0000153834
      5      H    0.0000200846    0.0000137884   -0.0000127692
      6      H   -0.0000175312    0.0000360624   -0.0000026667
      7      H    0.0000345029    0.0000509261   -0.0000009202
      8      H   -0.0000492964   -0.0000007830   -0.0000104497


--------------
Atomic charges
--------------
  Index   Atom    Charge
      1      C    0.3760
      2      C    0.3777
      3     Cl   -0.1617
      4      H    0.1251
      5      H   -0.1795
      6      H   -0.1793
      7      H   -0.1795
      8      H   -0.1789


Dipole moment vector    (Debye):     1.73586418    0.12767179   -0.91885048
              magnitude (Debye):     1.96819987


-----------------------
Molecular orbitals info
-----------------------
n orbitals:              141
n spin:                    1

Note: only printing virtual orbitals with
      energy smaller than HOMO + 100. eV

HOMO (eV):              -7.2399
LUMO (eV):              -1.5926
HOMO-LUMO gap (eV):      5.6473

   Index   Energy (eV)    Occupation
     101       92.6409         0.000       
     100       89.6823         0.000       
      99       89.2623         0.000       
      98       88.6543         0.000       
      97       84.2169         0.000       
      96       81.0862         0.000       
      95       80.5614         0.000       
      94       79.2820         0.000       
      93       78.9274         0.000       
      92       78.5199         0.000       
      91       77.9689         0.000       
      90       75.0961         0.000       
      89       74.4251         0.000       
      88       73.2965         0.000       
      87       68.6540         0.000       
      86       67.8802         0.000       
      85       66.7076         0.000       
      84       66.3583         0.000       
      83       65.0654         0.000       
      82       64.1012         0.000       
      81       63.2488         0.000       
      80       61.0566         0.000       
      79       60.6091         0.000       
      78       59.5368         0.000       
      77       58.8099         0.000       
      76       54.4723         0.000       
      75       52.0740         0.000       
      74       51.1764         0.000       
      73       49.8322         0.000       
      72       49.6099         0.000       
      71       47.4626         0.000       
      70       41.2225         0.000       
      69       40.1919         0.000       
      68       40.0721         0.000       
      67       39.2543         0.000       
      66       39.2103         0.000       
      65       38.7200         0.000       
      64       36.2762         0.000       
      63       33.4572         0.000       
      62       33.4441         0.000       
      61       33.0660         0.000       
      60       33.0234         0.000       
      59       31.9865         0.000       
      58       31.3135         0.000       
      57       29.6818         0.000       
      56       28.8085         0.000       
      55       27.2948         0.000       
      54       27.2519         0.000       
      53       25.9623         0.000       
      52       24.1423         0.000       
      51       24.0289         0.000       
      50       21.9115         0.000       
      49       21.4900         0.000       
      48       21.3275         0.000       
      47       18.8021         0.000       
      46       17.9941         0.000       
      45       15.1740         0.000       
      44       14.6241         0.000       
      43       13.2233         0.000       
      42       13.1848         0.000       
      41       11.8964         0.000       
      40       11.8013         0.000       
      39       11.7323         0.000       
      38       11.3922         0.000       
      37       10.3510         0.000       
      36       10.0044         0.000       
      35        9.7951         0.000       
      34        7.9785         0.000       
      33        7.8195         0.000       
      32        7.5632         0.000       
      31        6.9474         0.000       
      30        6.1441         0.000       
      29        5.7464         0.000       
      28        5.1516         0.000       
      27        4.6842         0.000       
      26        4.6041         0.000       
      25        3.6224         0.000       
      24        2.3675         0.000       
      23        2.3449         0.000       
      22        0.5962         0.000       
      21        0.5793         0.000       
      20        0.5131         0.000       
      19       -0.3390         0.000       
      18       -1.5926         0.000 < LUMO
      17       -7.2399         2.000 < HOMO
      16       -7.4729         2.000       
      15       -7.4775         2.000       
      14       -9.0256         2.000       
      13      -10.7023         2.000       
      12      -11.1599         2.000       
      11      -11.9147         2.000       
      10      -14.6771         2.000       
       9      -19.2523         2.000       
       8      -20.5391         2.000       
       7     -190.0191         2.000       
       6     -190.0207         2.000       
       5     -190.2755         2.000       
       4     -251.0556         2.000       
       3     -270.4918         2.000       
       2     -270.5099         2.000       
       1    -2750.2978         2.000       

AMS application finished. Exiting.
NORMAL TERMINATION
     Total cpu time:     280.69
  Total system time:       2.19
 Total elapsed time:     283.93
NORMAL TERMINATION
