
 *******************************************************************************
 *                                                                             *
 *  --------------------------------                                           *
 *   Amsterdam Modeling Suite (AMS)              2026.103                      *
 *  --------------------------------                                           *
 *                                               r260501 2026-05-01 873454b5   *
 *                                                                             *
 *                                                                             *
 *                              =================                              *
 *                              |               |                              *
 *                              |     A M S     |                              *
 *                              |               |                              *
 *                              =================                              *
 *                                                                             *
 *                                                                             *
 *   Online information and documentation:  https://www.scm.com/support/       *
 *   E-mail:  support@scm.com   info@scm.com                                   *
 *                                                                             *
 *   Scientific publications using AMS results must be properly referenced     *
 *   See the User Manuals (or the web site) for recommended citations          *
 *   The terms and conditions of the End User License Agreement apply to       *
 *   the use of AMS, https://www.scm.com/license-terms/                        *
 *                                                                             *
 **********************  x86_64_linux_intel / intelmpi  ************************
 
 Licensed to: Jong-June Jeon / University of Seoul 2026-06-02 13:44:15
 SCM User ID: u30731
  
 AMS 2026.103  RunTime: Jun03-2026 05:18:03  ShM Nodes: 1  Procs: 1

 AMS jobname: c5_fragB_opt
 AMS jobid  : 2015274628

 Start   directory: /gpfs/home1/yeseo1ee/projects/eda-asm-prediction/ADF_800/adf_outputs/batch_000/dipolar_000716/
 Results directory: /gpfs/home1/yeseo1ee/projects/eda-asm-prediction/ADF_800/adf_outputs/batch_000/dipolar_000716/c5_fragB_opt.results/
 Scratch directory: /tmp/amstmp_c5_fragB_opt_kid0.2015274628/

 RNG seed: -454531946 -829262363 -1729500751 147450934 -439029084 -837967471 870713115 -37692025



                      ************************************************************************
                      *  ADF 2026.103  RunTime: Jun03-2026 05:18:04  ShM Nodes: 1  Procs: 1  *
                      ************************************************************************
  

       ***************************
       *  GEOMETRY OPTIMIZATION  *
       ***************************

Optimization Method                    Quasi Newton
Optimization Coordinates               Delocalized Coordinates
Optimize lattice                       F
 
 ------------------------------------------------------
 Convergence criteria (Hartree,Angstrom)
 ------------------------------------------------------
 Maximum gradient               0.000100000000
 Maximum rms gradient           0.000066666667
 Maximum step allowed           0.010000000000
 Maximum rms step allowed       0.006666666667
 Maximum energy change allowe   0.000160000000
 Maximum stress energy allowe   0.000500000000
 
Initial model Hessian                  Automatic Hessian
 
------------------------------------
Quasi-Newton Optimizer Parameters
------------------------------------
Hessian Update Method                  BFGS
Maximum number of steps                  200
First GDIIS cycle                          0
Maximum GDIIS vectors                      0
Trust radius (bohr)                        0.200000
Trust radius varies                        T
Constraints converged at all steps         T
Use projector                              T
 
 Rigid motions settings for: old optimizer
 Atomic rotations (x,y,z):     T T T
 Atomic translations (x,y,z):  T T T
 Tolerance:                  1.000000000000000E-006

--------
Geometry
--------
Formula: C7H5F3O
Atoms
  Index Symbol   x (angstrom)   y (angstrom)   z (angstrom)
      1      C     1.24007000    -0.34551000    -0.04943000
      2      C     1.55401000    -1.69642000     0.47537000
      3      F     0.45088000    -2.42147000     0.73460000
      4      F     2.28857000    -1.66366000     1.61134000
      5      F     2.29255000    -2.41840000    -0.40836000
      6      C     2.34922000     0.70402000    -0.33820000
      7      C     2.98281000     0.33764000    -1.69882000
      8      C     2.03175000     0.59454000    -2.60287000
      9      C     0.83137000     1.11573000    -1.78339000
     10      O     1.52187000     1.81008000    -0.72507000
     11      C     0.28953000    -0.10206000    -1.01204000
     12      H     3.02212000     0.95820000     0.48720000
     13      H     3.97565000    -0.08970000    -1.83349000
     14      H     2.02700000     0.42325000    -3.67874000
     15      H     0.10601000     1.75505000    -2.29590000
     16      H    -0.43132000    -0.80348000    -1.42660000

Total System Charge              0.00000


----------------
ADF Engine Input
----------------
 
   Basis
     Type TZ2P
     Core None
   End
   XC
     GGA BLYP
     Dispersion GRIMME3 BJDAMP
   End
   Symmetry NOSYM
   NumericalQuality Normal
   Unrestricted No
   SCF
     Iterations 200
     Converge 1.0e-6
   End
   Save TAPE21
 

 Title: *** (NO TITLE) ***

 Using automatic Hessian for delocalized coordinates.
 *** GO1_GOStep1 ***

 Energy gradients wrt nuclear displacements
 ==========================================

     Atom      Cartesian (a.u./angstrom)
                 X         Y         Z
 ----------------------------------------
     1 C     0.029706  0.005266  0.067465
     2 C     0.011703 -0.018246 -0.009401
     3 F     0.037716  0.020837 -0.007007
     4 F    -0.021049 -0.007908 -0.035782
     5 F    -0.022853  0.016409  0.030807
     6 C    -0.007473  0.000540 -0.027826
     7 C    -0.009677  0.006925  0.019088
     8 C    -0.015919  0.008241  0.013928
     9 C     0.023371 -0.008426  0.005930
    10 O     0.005400 -0.031888 -0.008908
    11 C    -0.043579  0.019906 -0.029604
    12 H     0.003674 -0.000545  0.004666
    13 H     0.006748 -0.003601 -0.000734
    14 H    -0.000797 -0.001992 -0.006989
    15 H    -0.003951  0.000010 -0.002838
    16 H     0.006979 -0.005529 -0.012795
 ----------------------------------------
 
----------------------------------------------------------------------
Geometry Convergence after Step   1       (Hartree/Angstrom,Angstrom)
----------------------------------------------------------------------
current energy                               -3.42298065 Hartree
energy change                      -3.42298065     0.00016000    F
constrained gradient max            0.06746303     0.00010000    F
constrained gradient rms            0.01972086     0.00006667    F
gradient max                        0.06746303
gradient rms                        0.01972086
cart. step max                      0.04644441     0.01000000    F
cart. step rms                      0.01972190     0.00666667    F
 

--------
Geometry
--------
Formula: C7H5F3O
Atoms
  Index Symbol   x (angstrom)   y (angstrom)   z (angstrom)
      1      C     1.25111700    -0.37051486    -0.07680660
      2      C     1.54241981    -1.71762423     0.49146391
      3      F     0.40755177    -2.43228310     0.74777772
      4      F     2.26145836    -1.63715890     1.65778441
      5      F     2.30694996    -2.46147269    -0.38155636
      6      C     2.35482708     0.69775459    -0.34984414
      7      C     2.99273902     0.35264151    -1.72439053
      8      C     2.03893904     0.61498331    -2.62223505
      9      C     0.83224747     1.11884845    -1.78445811
     10      O     1.52054370     1.81652346    -0.71848749
     11      C     0.31414211    -0.11941002    -1.01798735
     12      H     3.02160789     0.95001929     0.47731510
     13      H     3.98514343    -0.06347935    -1.86637558
     14      H     2.03290637     0.45879873    -3.69674037
     15      H     0.09953757     1.76113513    -2.27816994
     16      H    -0.43004057    -0.81095133    -1.40168961

Total System Charge              0.00000

 *** GO1_GOStep2 ***

 Energy gradients wrt nuclear displacements
 ==========================================

     Atom      Cartesian (a.u./angstrom)
                 X         Y         Z
 ----------------------------------------
     1 C     0.006085  0.009837  0.041341
     2 C     0.007954 -0.017316 -0.009110
     3 F     0.003625  0.006564 -0.001193
     4 F    -0.003469  0.002268 -0.007329
     5 F    -0.005442  0.006465  0.002750
     6 C    -0.010017 -0.001676 -0.022605
     7 C    -0.002447  0.002353  0.010000
     8 C    -0.009212  0.003713  0.004610
     9 C     0.017135 -0.006106  0.004446
    10 O     0.002580 -0.011771 -0.005028
    11 C    -0.015880  0.012739 -0.008442
    12 H     0.000833  0.000576  0.002635
    13 H     0.002328 -0.001627 -0.000704
    14 H    -0.000229 -0.001524 -0.002648
    15 H    -0.001535  0.001151 -0.000597
    16 H     0.007691 -0.005648 -0.008126
 ----------------------------------------

 dE(predicted):    -0.47817E-02, dE(actual):    -0.46583E-02, Trust radius:    0.400000, all in a.u.
 
----------------------------------------------------------------------
Geometry Convergence after Step   2       (Hartree/Angstrom,Angstrom)
----------------------------------------------------------------------
current energy                               -3.42763895 Hartree
energy change                      -0.00465830     0.00016000    F
constrained gradient max            0.04134100     0.00010000    F
constrained gradient rms            0.00972075     0.00006667    F
gradient max                        0.04134100
gradient rms                        0.00972075
cart. step max                      0.12102253     0.01000000    F
cart. step rms                      0.03926663     0.00666667    F
 

--------
Geometry
--------
Formula: C7H5F3O
Atoms
  Index Symbol   x (angstrom)   y (angstrom)   z (angstrom)
      1      C     1.27546852    -0.41656945    -0.13806401
      2      C     1.53021941    -1.73280911     0.52155494
      3      F     0.38216285    -2.44457470     0.76630371
      4      F     2.19249034    -1.59815272     1.72544770
      5      F     2.33934317    -2.54304604    -0.26053384
      6      C     2.37691447     0.67187443    -0.36953532
      7      C     3.00870214     0.38027880    -1.76788568
      8      C     2.04658500     0.65959651    -2.65136347
      9      C     0.82681921     1.11928405    -1.79163866
     10      O     1.51996628     1.79418198    -0.70433191
     11      C     0.33430673    -0.14995079    -1.05057276
     12      H     3.03833616     0.91106073     0.46260267
     13      H     4.00491477    -0.01211929    -1.92929629
     14      H     2.04162851     0.54763419    -3.72870945
     15      H     0.08444355     1.77181334    -2.25234530
     16      H    -0.47021110    -0.80069194    -1.37603233

Total System Charge              0.00000

 *** GO1_GOStep3 ***

 Energy gradients wrt nuclear displacements
 ==========================================

     Atom      Cartesian (a.u./angstrom)
                 X         Y         Z
 ----------------------------------------
     1 C    -0.011401  0.015681  0.013683
     2 C     0.002746 -0.002407 -0.009630
     3 F    -0.001809 -0.003019  0.002054
     4 F     0.002433 -0.002031  0.002359
     5 F     0.000074 -0.003432  0.000506
     6 C     0.000673 -0.000578 -0.004588
     7 C     0.002382 -0.001265  0.002321
     8 C    -0.003249  0.000859 -0.001388
     9 C     0.001315 -0.000742 -0.001211
    10 O     0.001804 -0.007360 -0.003916
    11 C     0.001745  0.005844  0.000776
    12 H    -0.000480  0.001630  0.000962
    13 H    -0.000742 -0.000016 -0.000011
    14 H    -0.000038 -0.000329  0.000526
    15 H    -0.000137  0.001573  0.000955
    16 H     0.004682 -0.004408 -0.003398
 ----------------------------------------

 dE(predicted):    -0.34714E-02, dE(actual):    -0.33028E-02, Trust radius:    0.800000, all in a.u.
 
----------------------------------------------------------------------
Geometry Convergence after Step   3       (Hartree/Angstrom,Angstrom)
----------------------------------------------------------------------
current energy                               -3.43094173 Hartree
energy change                      -0.00330278     0.00016000    F
constrained gradient max            0.01563113     0.00010000    F
constrained gradient rms            0.00441624     0.00006667    F
gradient max                        0.01563113
gradient rms                        0.00441624
cart. step max                      0.13857719     0.01000000    F
cart. step rms                      0.04688409     0.00666667    F
 

--------
Geometry
--------
Formula: C7H5F3O
Atoms
  Index Symbol   x (angstrom)   y (angstrom)   z (angstrom)
      1      C     1.31063670    -0.48646947    -0.21454108
      2      C     1.52557029    -1.74629461     0.54688133
      3      F     0.36543908    -2.45279191     0.74558853
      4      F     2.08703458    -1.51113759     1.78665638
      5      F     2.40545541    -2.58639629    -0.12195665
      6      C     2.39839074     0.63011698    -0.39569991
      7      C     3.02681354     0.41127551    -1.81247876
      8      C     2.05182004     0.69833866    -2.67438619
      9      C     0.82856034     1.11079315    -1.78696747
     10      O     1.52066266     1.75930867    -0.67472495
     11      C     0.34332663    -0.18595811    -1.08349575
     12      H     3.06013183     0.83592702     0.44279581
     13      H     4.02856162     0.04409494    -1.99546436
     14      H     2.04097551     0.62955774    -3.75474296
     15      H     0.07798520     1.77124120    -2.21894306
     16      H    -0.53927416    -0.76379590    -1.33292091

Total System Charge              0.00000

 *** GO1_GOStep4 ***

 Energy gradients wrt nuclear displacements
 ==========================================

     Atom      Cartesian (a.u./angstrom)
                 X         Y         Z
 ----------------------------------------
     1 C    -0.008794  0.004761  0.001423
     2 C     0.002445 -0.003016 -0.002409
     3 F    -0.004969 -0.000761  0.000269
     4 F     0.002222  0.002538  0.003410
     5 F     0.001923 -0.001856 -0.003262
     6 C     0.002970  0.001180  0.006296
     7 C     0.002128  0.000266 -0.005757
     8 C     0.003645 -0.004137 -0.001721
     9 C    -0.002407 -0.000741  0.000487
    10 O    -0.000349  0.000136  0.000528
    11 C     0.001361  0.000944 -0.002434
    12 H    -0.000968  0.001521 -0.000794
    13 H    -0.001178  0.000291  0.000108
    14 H     0.000489 -0.000216  0.001294
    15 H     0.000987  0.000716  0.001685
    16 H     0.000495 -0.001627  0.000878
 ----------------------------------------

 dE(predicted):    -0.17954E-02, dE(actual):    -0.20819E-02, Trust radius:    0.800000, all in a.u.
 
----------------------------------------------------------------------
Geometry Convergence after Step   4       (Hartree/Angstrom,Angstrom)
----------------------------------------------------------------------
current energy                               -3.43302365 Hartree
energy change                      -0.00208193     0.00016000    F
constrained gradient max            0.00874129     0.00010000    F
constrained gradient rms            0.00266363     0.00006667    F
gradient max                        0.00874129
gradient rms                        0.00266363
cart. step max                      0.12712220     0.01000000    F
cart. step rms                      0.03682949     0.00666667    F
 

--------
Geometry
--------
Formula: C7H5F3O
Atoms
  Index Symbol   x (angstrom)   y (angstrom)   z (angstrom)
      1      C     1.33492678    -0.52725586    -0.24893187
      2      C     1.51707142    -1.74795972     0.57589998
      3      F     0.36190939    -2.46800779     0.73151827
      4      F     1.99073712    -1.45698859     1.83749470
      5      F     2.45087480    -2.59884412     0.00516555
      6      C     2.41459645     0.59710514    -0.42120834
      7      C     3.02614500     0.41758804    -1.84813936
      8      C     2.04860202     0.74834228    -2.69135231
      9      C     0.82935054     1.11012783    -1.77967025
     10      O     1.53070025     1.73382401    -0.65776394
     11      C     0.36209828    -0.21230808    -1.10817122
     12      H     3.08759516     0.77576985     0.41476668
     13      H     4.02669051     0.05530631    -2.05131565
     14      H     2.02794465     0.72010619    -3.77416138
     15      H     0.06634487     1.77138525    -2.18866444
     16      H    -0.54349723    -0.76038074    -1.33986641

Total System Charge              0.00000

 *** GO1_GOStep5 ***

 Energy gradients wrt nuclear displacements
 ==========================================

     Atom      Cartesian (a.u./angstrom)
                 X         Y         Z
 ----------------------------------------
     1 C    -0.002479 -0.002433  0.004310
     2 C     0.000240  0.001395 -0.000831
     3 F    -0.000505 -0.000166  0.000650
     4 F     0.001142 -0.000963  0.000569
     5 F    -0.000900  0.000341 -0.001002
     6 C     0.000804  0.001907  0.003939
     7 C    -0.000952 -0.002546 -0.005028
     8 C     0.005346  0.002108 -0.000672
     9 C    -0.005345 -0.001324  0.003433
    10 O     0.000307  0.001955 -0.001167
    11 C     0.002509 -0.000597 -0.005850
    12 H    -0.001051  0.000176 -0.000357
    13 H    -0.000294 -0.000154  0.000162
    14 H     0.000167 -0.000083  0.000563
    15 H     0.001097  0.000555  0.000206
    16 H    -0.000085 -0.000172  0.001075
 ----------------------------------------

 dE(predicted):    -0.43740E-03, dE(actual):    -0.58523E-03, Trust radius:    0.800000, all in a.u.
 
----------------------------------------------------------------------
Geometry Convergence after Step   5       (Hartree/Angstrom,Angstrom)
----------------------------------------------------------------------
current energy                               -3.43360888 Hartree
energy change                      -0.00058523     0.00016000    F
constrained gradient max            0.00580875     0.00010000    F
constrained gradient rms            0.00212630     0.00006667    F
gradient max                        0.00580875
gradient rms                        0.00212630
cart. step max                      0.16448432     0.01000000    F
cart. step rms                      0.04755528     0.00666667    F
 

--------
Geometry
--------
Formula: C7H5F3O
Atoms
  Index Symbol   x (angstrom)   y (angstrom)   z (angstrom)
      1      C     1.36552700    -0.57466727    -0.29598347
      2      C     1.50885499    -1.75186684     0.59287164
      3      F     0.37443974    -2.51263702     0.66625171
      4      F     1.83148535    -1.38637133     1.88008040
      5      F     2.52932451    -2.58798180     0.16964987
      6      C     2.44052448     0.55635197    -0.45167130
      7      C     3.03329210     0.43795301    -1.88768626
      8      C     2.03491973     0.77152288    -2.70642558
      9      C     0.83497624     1.11029407    -1.76672961
     10      O     1.55100661     1.70125648    -0.63438167
     11      C     0.37085851    -0.22462428    -1.11512676
     12      H     3.12770103     0.69998349     0.38034257
     13      H     4.03646123     0.09588738    -2.11574237
     14      H     1.99589515     0.77552138    -3.79001334
     15      H     0.06302782     1.77588081    -2.15243502
     16      H    -0.56620449    -0.72869291    -1.31740083

Total System Charge              0.00000

 *** GO1_GOStep6 ***

 Energy gradients wrt nuclear displacements
 ==========================================

     Atom      Cartesian (a.u./angstrom)
                 X         Y         Z
 ----------------------------------------
     1 C     0.002401 -0.007329  0.001563
     2 C    -0.001738  0.005183  0.000427
     3 F     0.003341  0.001484  0.001543
     4 F    -0.001265 -0.002502 -0.002804
     5 F    -0.000921 -0.000324  0.001169
     6 C    -0.002160 -0.000058  0.002020
     7 C     0.000017  0.002891 -0.002653
     8 C     0.002840 -0.001759 -0.000576
     9 C    -0.003687  0.001399  0.003367
    10 O    -0.000390  0.000542 -0.000097
    11 C     0.001439  0.000282 -0.002867
    12 H    -0.000188 -0.001248 -0.000294
    13 H     0.000811 -0.000067  0.000332
    14 H    -0.000018 -0.000232 -0.000606
    15 H     0.000241 -0.000343 -0.001221
    16 H    -0.000724  0.002082  0.000698
 ----------------------------------------

 dE(predicted):    -0.39426E-03, dE(actual):    -0.12311E-03, Trust radius:    0.800000, all in a.u.
 
----------------------------------------------------------------------
Geometry Convergence after Step   6       (Hartree/Angstrom,Angstrom)
----------------------------------------------------------------------
current energy                               -3.43373199 Hartree
energy change                      -0.00012311     0.00016000    T
constrained gradient max            0.00732976     0.00010000    F
constrained gradient rms            0.00208629     0.00006667    F
gradient max                        0.00732976
gradient rms                        0.00208629
cart. step max                      0.04635114     0.01000000    F
cart. step rms                      0.01424208     0.00666667    F
 

--------
Geometry
--------
Formula: C7H5F3O
Atoms
  Index Symbol   x (angstrom)   y (angstrom)   z (angstrom)
      1      C     1.35673926    -0.55102875    -0.27540345
      2      C     1.51191502    -1.75013930     0.58504559
      3      F     0.37512262    -2.51036141     0.65461403
      4      F     1.85757441    -1.41227512     1.87535987
      5      F     2.52441731    -2.57592180     0.12329873
      6      C     2.43623625     0.57313083    -0.44180101
      7      C     3.02785939     0.42288102    -1.87504178
      8      C     2.03455006     0.75849242    -2.70042567
      9      C     0.83392371     1.11259476    -1.76861493
     10      O     1.55006640     1.71598705    -0.64371435
     11      C     0.36563281    -0.21369896    -1.10279305
     12      H     3.12260886     0.73062068     0.38869834
     13      H     4.02777684     0.06904396    -2.09760579
     14      H     1.99884011     0.75096595    -3.78377859
     15      H     0.06472953     1.77745504    -2.16107230
     16      H    -0.55590258    -0.73993636    -1.32116565

Total System Charge              0.00000

 *** GO1_GOStep7 ***

 Energy gradients wrt nuclear displacements
 ==========================================

     Atom      Cartesian (a.u./angstrom)
                 X         Y         Z
 ----------------------------------------
     1 C     0.001169 -0.001881  0.000129
     2 C    -0.001127  0.001513  0.000505
     3 F     0.000684  0.000580  0.000114
     4 F     0.000059 -0.000299 -0.001022
     5 F    -0.000208 -0.000301 -0.000122
     6 C    -0.000234  0.001288  0.001860
     7 C     0.000177 -0.000611 -0.001008
     8 C     0.001536  0.000220 -0.000992
     9 C    -0.002364 -0.000228  0.002441
    10 O    -0.000638 -0.000128 -0.000341
    11 C     0.001017 -0.000063 -0.001163
    12 H    -0.000077 -0.000498  0.000059
    13 H     0.000325 -0.000096  0.000300
    14 H    -0.000008  0.000097 -0.000206
    15 H     0.000123 -0.000217 -0.000664
    16 H    -0.000432  0.000625  0.000110
 ----------------------------------------

 dE(predicted):    -0.15317E-03, dE(actual):    -0.18898E-03, Trust radius:    0.800000, all in a.u.
 
----------------------------------------------------------------------
Geometry Convergence after Step   7       (Hartree/Angstrom,Angstrom)
----------------------------------------------------------------------
current energy                               -3.43392097 Hartree
energy change                      -0.00018898     0.00016000    F
constrained gradient max            0.00246790     0.00010000    F
constrained gradient rms            0.00087656     0.00006667    F
gradient max                        0.00246790
gradient rms                        0.00087656
cart. step max                      0.02562118     0.01000000    F
cart. step rms                      0.00829968     0.00666667    F
 

--------
Geometry
--------
Formula: C7H5F3O
Atoms
  Index Symbol   x (angstrom)   y (angstrom)   z (angstrom)
      1      C     1.35399192    -0.54442211    -0.26915547
      2      C     1.51215122    -1.74963062     0.58452919
      3      F     0.38450669    -2.52639172     0.62899285
      4      F     1.83252197    -1.41768817     1.88364836
      5      F     2.54353720    -2.55661679     0.13200887
      6      C     2.43815234     0.57373294    -0.44265247
      7      C     3.02459799     0.41677523    -1.87617399
      8      C     2.03026345     0.75359348    -2.70008012
      9      C     0.83560510     1.11626791    -1.76695518
     10      O     1.55771296     1.72011216    -0.64592818
     11      C     0.36320596    -0.20713209    -1.09628583
     12      H     3.12782460     0.73312824     0.38497914
     13      H     4.02222500     0.05871481    -2.10135676
     14      H     1.99186948     0.74283261    -3.78316625
     15      H     0.06762308     1.78392931    -2.15714418
     16      H    -0.55369896    -0.73939521    -1.31966000

Total System Charge              0.00000

 *** GO1_GOStep8 ***

 Energy gradients wrt nuclear displacements
 ==========================================

     Atom      Cartesian (a.u./angstrom)
                 X         Y         Z
 ----------------------------------------
     1 C     0.000103  0.000169 -0.000311
     2 C    -0.000778  0.000440  0.000620
     3 F    -0.000112  0.000103 -0.000027
     4 F     0.000298  0.000179 -0.000261
     5 F     0.000084 -0.000489 -0.000101
     6 C    -0.000659  0.000409  0.000355
     7 C    -0.000129 -0.000220 -0.000052
     8 C     0.000705  0.000180 -0.000705
     9 C    -0.000739 -0.000498  0.001540
    10 O     0.000298  0.000089 -0.000334
    11 C     0.000866 -0.000176 -0.000452
    12 H    -0.000050 -0.000114  0.000097
    13 H     0.000113  0.000021  0.000217
    14 H    -0.000002  0.000078 -0.000061
    15 H     0.000031 -0.000116 -0.000365
    16 H    -0.000028 -0.000055 -0.000160
 ----------------------------------------

 dE(predicted):    -0.34893E-04, dE(actual):    -0.46204E-04, Trust radius:    0.800000, all in a.u.
 
----------------------------------------------------------------------
Geometry Convergence after Step   8       (Hartree/Angstrom,Angstrom)
----------------------------------------------------------------------
current energy                               -3.43396718 Hartree
energy change                      -0.00004620     0.00016000    T
constrained gradient max            0.00160064     0.00010000    F
constrained gradient rms            0.00041147     0.00006667    F
gradient max                        0.00160064
gradient rms                        0.00041147
cart. step max                      0.05844451     0.01000000    F
cart. step rms                      0.01865729     0.00666667    F
 

--------
Geometry
--------
Formula: C7H5F3O
Atoms
  Index Symbol   x (angstrom)   y (angstrom)   z (angstrom)
      1      C     1.35131113    -0.53551470    -0.26221716
      2      C     1.51509355    -1.74876372     0.58123113
      3      F     0.41176058    -2.56201589     0.57111584
      4      F     1.77407746    -1.42717275     1.89749417
      5      F     2.58889202    -2.51332087     0.15670603
      6      C     2.44214259     0.57415006    -0.44469006
      7      C     3.01915726     0.40395978    -1.87863987
      8      C     2.02307175     0.74416988    -2.69950535
      9      C     0.83813328     1.12314006    -1.76522700
     10      O     1.56901266     1.72575077    -0.64876184
     11      C     0.35688709    -0.19287929    -1.08269402
     12      H     3.13765865     0.73441474     0.37821008
     13      H     4.01174165     0.03538515    -2.10834290
     14      H     1.97994543     0.72601593    -3.78215684
     15      H     0.07330863     1.79613256    -2.15258047
     16      H    -0.56010373    -0.72564173    -1.30434173

Total System Charge              0.00000

 *** GO1_GOStep9 ***

 Energy gradients wrt nuclear displacements
 ==========================================

     Atom      Cartesian (a.u./angstrom)
                 X         Y         Z
 ----------------------------------------
     1 C     0.000143  0.001832 -0.001166
     2 C     0.000121 -0.001154  0.000304
     3 F    -0.001054 -0.000380 -0.000018
     4 F     0.000191  0.000578  0.000366
     5 F     0.000107 -0.000467  0.000036
     6 C    -0.000525  0.000006 -0.000806
     7 C    -0.000218 -0.000552  0.001268
     8 C    -0.000409  0.000165  0.000061
     9 C     0.001451 -0.000495 -0.001317
    10 O    -0.000162 -0.000253  0.000170
    11 C    -0.000170  0.000690  0.000887
    12 H     0.000221  0.000281  0.000135
    13 H     0.000001  0.000091  0.000074
    14 H     0.000121  0.000032  0.000131
    15 H    -0.000092  0.000006  0.000047
    16 H     0.000273 -0.000380 -0.000173
 ----------------------------------------

 dE(predicted):    -0.41302E-04, dE(actual):    -0.47343E-04, Trust radius:    0.800000, all in a.u.
 
----------------------------------------------------------------------
Geometry Convergence after Step   9       (Hartree/Angstrom,Angstrom)
----------------------------------------------------------------------
current energy                               -3.43401452 Hartree
energy change                      -0.00004734     0.00016000    T
constrained gradient max            0.00180024     0.00010000    F
constrained gradient rms            0.00059281     0.00006667    F
gradient max                        0.00180024
gradient rms                        0.00059281
cart. step max                      0.07784986     0.01000000    F
cart. step rms                      0.02219765     0.00666667    F
 

--------
Geometry
--------
Formula: C7H5F3O
Atoms
  Index Symbol   x (angstrom)   y (angstrom)   z (angstrom)
      1      C     1.35053032    -0.53260926    -0.26025973
      2      C     1.51683171    -1.74586897     0.58238880
      3      F     0.44737754    -2.60023737     0.50989614
      4      F     1.69622760    -1.42847754     1.91346265
      5      F     2.63929897    -2.46242618     0.20507548
      6      C     2.44917057     0.56795219    -0.44996944
      7      C     3.01370390     0.39248922    -1.88717756
      8      C     2.01444838     0.74165002    -2.70082339
      9      C     0.84063136     1.13042100    -1.75996354
     10      O     1.58435550     1.72701010    -0.64785611
     11      C     0.35388278    -0.18447811    -1.07552083
     12      H     3.15177025     0.72285877     0.36798194
     13      H     3.99940404     0.01099949    -2.12503681
     14      H     1.96355249     0.72088652    -3.78307623
     15      H     0.07800357     1.80967031    -2.14061020
     16      H    -0.56709900    -0.71203021    -1.29291120

Total System Charge              0.00000

 *** GO1_GOStep10 ***

 Energy gradients wrt nuclear displacements
 ==========================================

     Atom      Cartesian (a.u./angstrom)
                 X         Y         Z
 ----------------------------------------
     1 C    -0.000424  0.002113 -0.001023
     2 C     0.000774 -0.001485  0.000087
     3 F    -0.001062 -0.000581 -0.000674
     4 F     0.000130  0.000772  0.000984
     5 F    -0.000211  0.000029 -0.000230
     6 C     0.000059 -0.000710 -0.001252
     7 C    -0.000236 -0.000341  0.001994
     8 C    -0.001406  0.000418  0.000803
     9 C     0.001909 -0.000187 -0.002353
    10 O     0.000556  0.000233  0.000502
    11 C    -0.000476 -0.000224  0.000417
    12 H     0.000193  0.000370  0.000214
    13 H    -0.000128 -0.000057  0.000058
    14 H     0.000176 -0.000040  0.000241
    15 H    -0.000104  0.000092  0.000217
    16 H     0.000251 -0.000400  0.000016
 ----------------------------------------

 dE(predicted):    -0.27953E-04, dE(actual):    -0.30142E-04, Trust radius:    0.800000, all in a.u.
 
----------------------------------------------------------------------
Geometry Convergence after Step  10       (Hartree/Angstrom,Angstrom)
----------------------------------------------------------------------
current energy                               -3.43404466 Hartree
energy change                      -0.00003014     0.00016000    T
constrained gradient max            0.00231014     0.00010000    F
constrained gradient rms            0.00081301     0.00006667    F
gradient max                        0.00231014
gradient rms                        0.00081301
cart. step max                      0.01587108     0.01000000    F
cart. step rms                      0.00473876     0.00666667    T
 

--------
Geometry
--------
Formula: C7H5F3O
Atoms
  Index Symbol   x (angstrom)   y (angstrom)   z (angstrom)
      1      C     1.35333750    -0.53879384    -0.26493313
      2      C     1.51529580    -1.74591425     0.58588487
      3      F     0.44712687    -2.60114852     0.51366706
      4      F     1.68562745    -1.42046746     1.91570383
      5      F     2.64084195    -2.46425092     0.22094656
      6      C     2.45145205     0.56312004    -0.45321661
      7      C     3.01501406     0.39532109    -1.89254237
      8      C     2.01450429     0.74707020    -2.70322373
      9      C     0.84053492     1.12929928    -1.75837081
     10      O     1.58470866     1.72220415    -0.64478235
     11      C     0.35622503    -0.18886285    -1.07904600
     12      H     3.15463893     0.71419417     0.36472674
     13      H     4.00128116     0.01664449    -2.13297397
     14      H     1.96250546     0.73230092    -3.78564563
     15      H     0.07685969     1.80885349    -2.13618867
     16      H    -0.56786381    -0.71176000    -1.29440578

Total System Charge              0.00000

 *** GO1_GOStep11 ***

 Energy gradients wrt nuclear displacements
 ==========================================

     Atom      Cartesian (a.u./angstrom)
                 X         Y         Z
 ----------------------------------------
     1 C    -0.000281  0.001031 -0.000215
     2 C     0.000333 -0.000534 -0.000002
     3 F    -0.000538 -0.000106 -0.000153
     4 F    -0.000152  0.000199  0.000294
     5 F    -0.000180  0.000073 -0.000095
     6 C     0.000262 -0.000629 -0.001046
     7 C    -0.000077 -0.000107  0.001112
     8 C    -0.000785  0.000380  0.000580
     9 C     0.001087  0.000043 -0.001504
    10 O     0.000206  0.000205  0.000583
    11 C    -0.000194 -0.000503  0.000125
    12 H     0.000010  0.000106  0.000154
    13 H    -0.000026 -0.000102  0.000041
    14 H     0.000208 -0.000027  0.000091
    15 H     0.000036  0.000060  0.000076
    16 H     0.000095 -0.000089 -0.000040
 ----------------------------------------

 dE(predicted):    -0.11382E-04, dE(actual):    -0.12303E-04, Trust radius:    0.800000, all in a.u.
 
----------------------------------------------------------------------
Geometry Convergence after Step  11       (Hartree/Angstrom,Angstrom)
----------------------------------------------------------------------
current energy                               -3.43405696 Hartree
energy change                      -0.00001230     0.00016000    T
constrained gradient max            0.00147100     0.00010000    F
constrained gradient rms            0.00045749     0.00006667    F
gradient max                        0.00147100
gradient rms                        0.00045749
cart. step max                      0.01136261     0.01000000    F
cart. step rms                      0.00306708     0.00666667    T
 

--------
Geometry
--------
Formula: C7H5F3O
Atoms
  Index Symbol   x (angstrom)   y (angstrom)   z (angstrom)
      1      C     1.35521082    -0.54203097    -0.26743563
      2      C     1.51470184    -1.74626187     0.58710228
      3      F     0.45002675    -2.60493241     0.51004153
      4      F     1.67489384    -1.41767655     1.91715828
      5      F     2.64488777    -2.46253253     0.23230917
      6      C     2.45285240     0.56112210    -0.45480687
      7      C     3.01553050     0.39624521    -1.89562586
      8      C     2.01390580     0.74827078    -2.70460948
      9      C     0.84046038     1.12911377    -1.75708112
     10      O     1.58622253     1.72083638    -0.64435185
     11      C     0.35685730    -0.18952445    -1.07909656
     12      H     3.15672614     0.70995246     0.36280756
     13      H     4.00214810     0.01909905    -2.13728481
     14      H     1.96065232     0.73578512    -3.78707629
     15      H     0.07674872     1.80911261    -2.13394057
     16      H    -0.56973522    -0.70876868    -1.29250978

Total System Charge              0.00000

 *** GO1_GOStep12 ***

 Energy gradients wrt nuclear displacements
 ==========================================

     Atom      Cartesian (a.u./angstrom)
                 X         Y         Z
 ----------------------------------------
     1 C     0.000073 -0.000208 -0.000050
     2 C    -0.000146  0.000138 -0.000118
     3 F    -0.000065  0.000022  0.000005
     4 F    -0.000163 -0.000166 -0.000091
     5 F    -0.000231 -0.000006  0.000085
     6 C     0.000126 -0.000375 -0.000359
     7 C     0.000019  0.000117  0.000592
     8 C    -0.000430  0.000190  0.000415
     9 C     0.000523  0.000148 -0.000809
    10 O     0.000163  0.000525  0.000064
    11 C    -0.000152 -0.000412  0.000183
    12 H    -0.000068 -0.000086  0.000101
    13 H     0.000051 -0.000090  0.000062
    14 H     0.000212 -0.000009 -0.000006
    15 H     0.000117  0.000052 -0.000007
    16 H    -0.000029  0.000162 -0.000067
 ----------------------------------------
 
----------------------------------------------------------------------
Geometry Convergence after Step  12       (Hartree/Angstrom,Angstrom)
----------------------------------------------------------------------
current energy                               -3.43405657 Hartree
energy change                       0.00000039     0.00016000    T
constrained gradient max            0.00078840     0.00010000    F
constrained gradient rms            0.00023490     0.00006667    F
gradient max                        0.00078840
gradient rms                        0.00023490
cart. step max                      0.00374451     0.01000000    T
cart. step rms                      0.00108979     0.00666667    T
 

--------
Geometry
--------
Formula: C7H5F3O
Atoms
  Index Symbol   x (angstrom)   y (angstrom)   z (angstrom)
      1      C     1.35578009    -0.54265830    -0.26778328
      2      C     1.51435659    -1.74614006     0.58784393
      3      F     0.45037479    -2.60543557     0.50893254
      4      F     1.67127857    -1.41625906     1.91796323
      5      F     2.64584870    -2.46197859     0.23605368
      6      C     2.45361287     0.56041881    -0.45527116
      7      C     3.01553585     0.39605313    -1.89697564
      8      C     2.01367341     0.74890093    -2.70517700
      9      C     0.84036019     1.12905365    -1.75630382
     10      O     1.58634331     1.71970318    -0.64345433
     11      C     0.35744775    -0.18996255    -1.07948346
     12      H     3.15801913     0.70877591     0.36194000
     13      H     4.00225653     0.01951393    -2.13919597
     14      H     1.95975902     0.73769075    -3.78762641
     15      H     0.07654005     1.80927855    -2.13255161
     16      H    -0.56909686    -0.70914471    -1.29331068

Total System Charge              0.00000

 *** GO1_GOStep13 ***

 Energy gradients wrt nuclear displacements
 ==========================================

     Atom      Cartesian (a.u./angstrom)
                 X         Y         Z
 ----------------------------------------
     1 C    -0.000009 -0.000167  0.000099
     2 C    -0.000198  0.000149  0.000028
     3 F    -0.000042  0.000102 -0.000066
     4 F    -0.000183 -0.000104 -0.000104
     5 F    -0.000146 -0.000053  0.000006
     6 C     0.000369 -0.000130 -0.000155
     7 C     0.000030 -0.000065  0.000241
     8 C    -0.000180  0.000083  0.000167
     9 C     0.000257  0.000251 -0.000462
    10 O    -0.000157  0.000111  0.000221
    11 C    -0.000020 -0.000243  0.000052
    12 H    -0.000080 -0.000116  0.000098
    13 H     0.000068 -0.000067  0.000060
    14 H     0.000207  0.000013 -0.000014
    15 H     0.000123  0.000059 -0.000045
    16 H    -0.000040  0.000178 -0.000128
 ----------------------------------------

 dE(predicted):    -0.73966E-06, dE(actual):     0.19053E-05, Trust radius:    0.020000, all in a.u.
 
----------------------------------------------------------------------
Geometry Convergence after Step  13       (Hartree/Angstrom,Angstrom)
----------------------------------------------------------------------
current energy                               -3.43405466 Hartree
energy change                       0.00000191     0.00016000    T
constrained gradient max            0.00044431     0.00010000    F
constrained gradient rms            0.00013845     0.00006667    F
gradient max                        0.00044431
gradient rms                        0.00013845
cart. step max                      0.00131949     0.01000000    T
cart. step rms                      0.00042617     0.00666667    T
 

--------
Geometry
--------
Formula: C7H5F3O
Atoms
  Index Symbol   x (angstrom)   y (angstrom)   z (angstrom)
      1      C     1.35563152    -0.54222991    -0.26739106
      2      C     1.51428626    -1.74623016     0.58761291
      3      F     0.44970348    -2.60490811     0.50924680
      4      F     1.67242375    -1.41674236     1.91772255
      5      F     2.64515253    -2.46258526     0.23473419
      6      C     2.45342329     0.56090183    -0.45494333
      7      C     3.01563075     0.39605413    -1.89680378
      8      C     2.01381316     0.74851247    -2.70514328
      9      C     0.84023087     1.12893869    -1.75608460
     10      O     1.58642815     1.72002340    -0.64383635
     11      C     0.35740831    -0.18973565    -1.07928557
     12      H     3.15789521     0.70966815     0.36213901
     13      H     4.00248324     0.01963549    -2.13863233
     14      H     1.95968288     0.73706836    -3.78755607
     15      H     0.07650966     1.80912827    -2.13261677
     16      H    -0.56861309    -0.70968933    -1.29356232

Total System Charge              0.00000

 *** GO1_GOStep14 ***

 Energy gradients wrt nuclear displacements
 ==========================================

     Atom      Cartesian (a.u./angstrom)
                 X         Y         Z
 ----------------------------------------
     1 C    -0.000122 -0.000085  0.000036
     2 C    -0.000205  0.000063 -0.000008
     3 F    -0.000124  0.000065 -0.000064
     4 F    -0.000181 -0.000045 -0.000076
     5 F    -0.000081 -0.000085 -0.000001
     6 C     0.000239 -0.000032 -0.000005
     7 C     0.000056 -0.000034  0.000112
     8 C    -0.000019  0.000057  0.000083
     9 C     0.000165  0.000131 -0.000143
    10 O    -0.000024  0.000061  0.000045
    11 C     0.000005 -0.000137  0.000021
    12 H    -0.000058 -0.000090  0.000081
    13 H     0.000066 -0.000062  0.000079
    14 H     0.000185  0.000015  0.000010
    15 H     0.000119  0.000061 -0.000040
    16 H    -0.000021  0.000119 -0.000130
 ----------------------------------------
 
----------------------------------------------------------------------
Geometry Convergence after Step  14       (Hartree/Angstrom,Angstrom)
----------------------------------------------------------------------
current energy                               -3.43405527 Hartree
energy change                      -0.00000060     0.00016000    T
constrained gradient max            0.00023423     0.00010000    F
constrained gradient rms            0.00006598     0.00006667    T
gradient max                        0.00023423
gradient rms                        0.00006598
cart. step max                      0.00186917     0.01000000    T
cart. step rms                      0.00061530     0.00666667    T
 

--------
Geometry
--------
Formula: C7H5F3O
Atoms
  Index Symbol   x (angstrom)   y (angstrom)   z (angstrom)
      1      C     1.35535833    -0.54160740    -0.26688782
      2      C     1.51443805    -1.74619970     0.58736171
      3      F     0.45073738    -2.60588934     0.50737764
      4      F     1.67117894    -1.41769539     1.91794123
      5      F     2.64626471    -2.46110455     0.23479433
      6      C     2.45326947     0.56122253    -0.45477770
      7      C     3.01543102     0.39547707    -1.89673838
      8      C     2.01370254     0.74789913    -2.70513684
      9      C     0.84023262     1.12917031    -1.75591311
     10      O     1.58680722     1.72043598    -0.64414496
     11      C     0.35713298    -0.18896115    -1.07875074
     12      H     3.15801289     0.71021917     0.36204610
     13      H     4.00213146     0.01853546    -2.13831515
     14      H     1.95924866     0.73607547    -3.78751178
     15      H     0.07677998     1.80957069    -2.13263265
     16      H    -0.56863623    -0.70933827    -1.29311187

Total System Charge              0.00000

 *** GO1_GOStep15 ***

 Energy gradients wrt nuclear displacements
 ==========================================

     Atom      Cartesian (a.u./angstrom)
                 X         Y         Z
 ----------------------------------------
     1 C    -0.000152 -0.000028 -0.000021
     2 C    -0.000146 -0.000017 -0.000030
     3 F    -0.000146  0.000015 -0.000093
     4 F    -0.000162 -0.000033 -0.000004
     5 F    -0.000089 -0.000076  0.000007
     6 C     0.000063  0.000032  0.000032
     7 C     0.000061 -0.000040  0.000054
     8 C     0.000082  0.000019  0.000028
     9 C     0.000160  0.000042 -0.000006
    10 O     0.000022 -0.000002  0.000004
    11 C     0.000009  0.000047 -0.000026
    12 H    -0.000036 -0.000064  0.000074
    13 H     0.000052 -0.000066  0.000094
    14 H     0.000166  0.000022  0.000028
    15 H     0.000116  0.000074 -0.000031
    16 H    -0.000000  0.000075 -0.000110
 ----------------------------------------
 
----------------------------------------------------------------------
Geometry Convergence after Step  15       (Hartree/Angstrom,Angstrom)
----------------------------------------------------------------------
current energy                               -3.43405570 Hartree
energy change                      -0.00000043     0.00016000    T
constrained gradient max            0.00010994     0.00010000    F
constrained gradient rms            0.00002688     0.00006667    T
gradient max                        0.00010994
gradient rms                        0.00002688
cart. step max                      0.00086177     0.01000000    T
cart. step rms                      0.00026376     0.00666667    T
 

--------
Geometry
--------
Formula: C7H5F3O
Atoms
  Index Symbol   x (angstrom)   y (angstrom)   z (angstrom)
      1      C     1.35544340    -0.54169631    -0.26697717
      2      C     1.51441117    -1.74621567     0.58737347
      3      F     0.45025195    -2.60539587     0.50808550
      4      F     1.67204071    -1.41757008     1.91780237
      5      F     2.64566892    -2.46172752     0.23428527
      6      C     2.45321046     0.56123215    -0.45473095
      7      C     3.01551421     0.39564542    -1.89665376
      8      C     2.01379783     0.74795385    -2.70512504
      9      C     0.84016938     1.12906282    -1.75597778
     10      O     1.58664900     1.72035903    -0.64414789
     11      C     0.35720759    -0.18912162    -1.07888943
     12      H     3.15788811     0.71026023     0.36214970
     13      H     4.00232178     0.01891182    -2.13812676
     14      H     1.95940885     0.73623221    -3.78750694
     15      H     0.07668043     1.80938178    -2.13277307
     16      H    -0.56857381    -0.70950224    -1.29318752

Total System Charge              0.00000

 *** GO1_GOStep16 ***

 Energy gradients wrt nuclear displacements
 ==========================================

     Atom      Cartesian (a.u./angstrom)
                 X         Y         Z
 ----------------------------------------
     1 C    -0.000085 -0.000042 -0.000015
     2 C    -0.000144 -0.000014 -0.000015
     3 F    -0.000143  0.000022 -0.000091
     4 F    -0.000163 -0.000031 -0.000013
     5 F    -0.000120 -0.000060  0.000005
     6 C     0.000049  0.000025  0.000053
     7 C     0.000067 -0.000037  0.000067
     8 C     0.000086  0.000012  0.000027
     9 C     0.000105  0.000063 -0.000001
    10 O     0.000043 -0.000033 -0.000015
    11 C     0.000006  0.000052 -0.000054
    12 H    -0.000028 -0.000069  0.000076
    13 H     0.000058 -0.000064  0.000100
    14 H     0.000160  0.000025  0.000025
    15 H     0.000114  0.000072 -0.000041
    16 H    -0.000004  0.000081 -0.000107
 ----------------------------------------
 
---------------------------------------------------------
Geometry Convergence after Step  16       ** CONVERGED **
---------------------------------------------------------
current energy                               -3.43405608 Hartree
energy change                      -0.00000038     0.00016000    T
constrained gradient max            0.00005836     0.00010000    T
constrained gradient rms            0.00001767     0.00006667    T
gradient max                        0.00005836
gradient rms                        0.00001767
cart. step max                      0.00010225     0.01000000    T
cart. step rms                      0.00003481     0.00666667    T
 
Geometry optimization converged

Optimized geometry:

--------
Geometry
--------
Formula: C7H5F3O
Atoms
  Index Symbol   x (angstrom)   y (angstrom)   z (angstrom)
      1      C     1.35544340    -0.54169631    -0.26697717
      2      C     1.51441117    -1.74621567     0.58737347
      3      F     0.45025195    -2.60539587     0.50808550
      4      F     1.67204071    -1.41757008     1.91780237
      5      F     2.64566892    -2.46172752     0.23428527
      6      C     2.45321046     0.56123215    -0.45473095
      7      C     3.01551421     0.39564542    -1.89665376
      8      C     2.01379783     0.74795385    -2.70512504
      9      C     0.84016938     1.12906282    -1.75597778
     10      O     1.58664900     1.72035903    -0.64414789
     11      C     0.35720759    -0.18912162    -1.07888943
     12      H     3.15788811     0.71026023     0.36214970
     13      H     4.00232178     0.01891182    -2.13812676
     14      H     1.95940885     0.73623221    -3.78750694
     15      H     0.07668043     1.80938178    -2.13277307
     16      H    -0.56857381    -0.70950224    -1.29318752

Total System Charge              0.00000

Performing a single point calculation on the final geometry ...

 *** adf ***



 ===========================
 A T T A C H E D   F I L E S
 ===========================
  
 Restart/tmp/amstmp_c5_fragB_opt_kid0.2015274628/GO1_GOStep16.rkf*** GO1_GOStep16 ***



 ===============================
 M O D E L   P A R A M E T E R S
 ===============================
  
 DENSITY FUNCTIONAL POTENTIAL (scf)
    LDA:                               Exchange only                           == Not Default ==
    Gradient Corrections:              Becke88 LYP                             == Not Default ==

 SPIN  (restricted / unrestr.)
    Molecule:                          Restricted                               
    Fragments:                         Restricted                               

 OTHER ASPECTS
    Relativistic Corrections:          scalar (ZORA,MAPA)                       

    Nuclear Charge Density Model:      Point Charge Nuclei                      
    Core Treatment:                    Frozen Orbital(s)                        

    Hyperfine or Zeeman Interaction:   ---                                      

 Settings for Grimme D3 dispersion correction

      damping                        BJ
      s6                          1.000
      s8                          2.700
      a1                          0.430
      a2                          4.236

 Other (technical) parameters

      alpha                      14.000
      version                         4
 



 ===============
 G E O M E T R Y  ***  3D  Molecule  ***
 ===============
  

 ATOMS
 =====                            X Y Z                    CHARGE
                                (Angstrom)             Nucl     +Core       At.Mass
                       --------------------------    ----------------       -------
    1  C               1.3554   -0.5417   -0.2670      6.00      6.00       12.0000
    2  C               1.5144   -1.7462    0.5874      6.00      6.00       12.0000
    3  F               0.4503   -2.6054    0.5081      9.00      9.00       18.9984
    4  F               1.6720   -1.4176    1.9178      9.00      9.00       18.9984
    5  F               2.6457   -2.4617    0.2343      9.00      9.00       18.9984
    6  C               2.4532    0.5612   -0.4547      6.00      6.00       12.0000
    7  C               3.0155    0.3956   -1.8967      6.00      6.00       12.0000
    8  C               2.0138    0.7480   -2.7051      6.00      6.00       12.0000
    9  C               0.8402    1.1291   -1.7560      6.00      6.00       12.0000
   10  O               1.5866    1.7204   -0.6441      8.00      8.00       15.9949
   11  C               0.3572   -0.1891   -1.0789      6.00      6.00       12.0000
   12  H               3.1579    0.7103    0.3621      1.00      1.00        1.0078
   13  H               4.0023    0.0189   -2.1381      1.00      1.00        1.0078
   14  H               1.9594    0.7362   -3.7875      1.00      1.00        1.0078
   15  H               0.0767    1.8094   -2.1328      1.00      1.00        1.0078
   16  H              -0.5686   -0.7095   -1.2932      1.00      1.00        1.0078


 FRAGMENTS
 =========                                     Atoms in this Fragment     Cart. coord.s (Angstrom)
                                               -------------------------------------------------------
    1  C                                                 1  C            1.3554   -0.5417   -0.2670
    2  C                                                 2  C            1.5144   -1.7462    0.5874
    3  C                                                 6  C            2.4532    0.5612   -0.4547
    4  C                                                 7  C            3.0155    0.3956   -1.8967
    5  C                                                 8  C            2.0138    0.7480   -2.7051
    6  C                                                 9  C            0.8402    1.1291   -1.7560
    7  C                                                11  C            0.3572   -0.1891   -1.0789
    8  F                                                 3  F            0.4503   -2.6054    0.5081
    9  F                                                 4  F            1.6720   -1.4176    1.9178
   10  F                                                 5  F            2.6457   -2.4617    0.2343
   11  O                                                10  O            1.5866    1.7204   -0.6441
   12  H                                                12  H            3.1579    0.7103    0.3621
   13  H                                                13  H            4.0023    0.0189   -2.1381
   14  H                                                14  H            1.9594    0.7362   -3.7875
   15  H                                                15  H            0.0767    1.8094   -2.1328
   16  H                                                16  H           -0.5686   -0.7095   -1.2932


 Interatomic Distance Matrix (Angstrom)
 --------------------------------------

   1)     0.000
   2)     1.485   0.000
   3)     2.383   1.370   0.000
   4)     2.375   1.379   2.212   0.000
   5)     2.367   1.384   2.217   2.207   0.000
   6)     1.567   2.700   3.869   3.187   3.106   0.000
   7)     2.508   3.607   4.623   4.432   3.584   1.557   0.000
   8)     2.836   4.161   4.900   5.116   4.398   2.300   1.335   0.000
   9)     2.297   3.770   4.385   4.547   4.485   2.149   2.300   1.557   0.000
  10)     2.305   3.680   4.619   4.052   4.403   1.460   2.316   2.319   1.464   0.000
  11)     1.334   2.557   2.892   3.495   3.482   2.312   2.842   2.503   1.559   2.312
          0.000
  12)     2.283   2.964   4.283   3.026   3.216   1.089   2.285   3.274   3.168   2.122
          3.276   0.000
  13)     3.290   4.091   5.148   4.893   3.691   2.351   1.084   2.193   3.373   3.311
          3.802   2.728   0.000
  14)     3.794   5.050   5.648   6.105   5.184   3.374   2.192   1.084   2.352   3.315
          3.280   4.319   2.722   0.000
  15)     3.263   4.702   5.158   5.419   5.518   3.166   3.270   2.282   1.090   2.122
          2.277   4.114   4.315   2.727   0.000
  16)     2.187   2.992   2.807   3.979   3.967   3.384   3.799   3.284   2.362   3.312
          1.083   4.318   4.705   3.834   2.732   0.000

 Min. Distance =    1.0834
 Max. Distance =    6.1051



 =====================================
 S Y M M E T R Y ,   E L E C T R O N S
 =====================================
  
 Symmetry: NOSYM

 Irreducible Representations, including subspecies
 -------------------------------------------------
 A


 Configuration of Valence Electrons
 ==================================
 ( determined in the SCF procedure )

 Total:   82

 Net Charge: 0 (Nuclei minus Electrons)

 Aufbau principle for MO occupations will be applied through SCF cycle no.     100
 Thereafter, the program will assign electrons to MOs that are spatially
 similar to the occupied MOs in a "reference" cycle ("KeepOrbitals").
 The reference cycle is always the PREVIOUS cycle: it will evolve with
 the SCF procedure.
 ***************************************************************************************************



                                      ****************************************
                                      *  B U I L D : (Fragments, Functions)  *
                                      ****************************************
  



 =======
 S F O s  ***  (Symmetrized Fragment Orbitals)  ***
 =======
  
 SFOs are linear combinations of (valence) Fragment Orbitals (FOs), such that the SFOs transform as the
 irreducible representations of the (molecular) symmetry group. Each SFO is therefore characterized by
 an irrep of the molecule and by a few (or only one) generating FOs.
 The SFOs constitute a symmetry-adapted basis for the Fock matrix. The MO eigenvector coefficients in
 this basis provide a direct interpretation of the MOs in terms of Frontier Orbital Theory.

 The SFOs are combined with auxiliary Core Functions (CFs) to ensure orthogonalization on the (frozen)
 Core Orbitals (COs). The Core-orthogonalized SFOs (CSFOs) constitute the true Fock basis.

 The FOs, and hence also the (C)SFOs are combinations of the elementary basis functions (BAS). The basis
 functions that participate in the description of the SFOs depend on the irrep. The indices of the
 involved functions are printed below for each irrep.
 (The complete list of primitive basis functions is printed in another section)

 Total nr. of (C)SFOs (summation over all irreps) :   341

 NOTE: a (C)SFO that is defined as a combination of more than one FO is usually NOT normalized.



                                       === A ===
 Nr. of SFOs :  341
 Cartesian basis functions that participate in this irrep (total number =   390) :
      1     2     3     4     5     6     9    12     7    10
     13     8    11    14    15    16    17    18    19    20
     21    22    23    24    25    26    27    28    29    30
     31    32    33    34    35    36    39    42    37    40
     43    38    41    44    45    46    47    48    49    50
     51    52    53    54    55    56    57    58    59    60
     61    62    63    64    65    66    69    72    67    70
     73    68    71    74    75    76    77    78    79    80
     81    82    83    84    85    86    87    88    89    90
     91    92    93    94    95    96    99   102    97   100
    103    98   101   104   105   106   107   108   109   110
    111   112   113   114   115   116   117   118   119   120
    121   122   123   124   125   126   129   132   127   130
    133   128   131   134   135   136   137   138   139   140
    141   142   143   144   145   146   147   148   149   150
    151   152   153   154   155   156   159   162   157   160
    163   158   161   164   165   166   167   168   169   170
    171   172   173   174   175   176   177   178   179   180
    181   182   183   184   185   186   189   192   187   190
    193   188   191   194   195   196   197   198   199   200
    201   202   203   204   205   206   207   208   209   210
    211   212   213   214   215   216   219   222   217   220
    223   218   221   224   225   226   227   228   229   230
    231   232   233   234   235   236   237   238   239   240
    241   242   243   244   245   246   249   252   247   250
    253   248   251   254   255   256   257   258   259   260
    261   262   263   264   265   266   267   268   269   270
    271   272   273   274   275   276   279   282   277   280
    283   278   281   284   285   286   287   288   289   290
    291   292   293   294   295   296   297   298   299   300
    301   302   303   304   305   306   309   312   307   310
    313   308   311   314   315   316   317   318   319   320
    321   322   323   324   325   326   327   328   329   330
    331   332   333   334   335   336   337   338   339   340
    341   342   343   344   345   346   347   348   349   350
    351   352   353   354   355   356   357   358   359   360
    361   362   363   364   365   366   367   368   369   370
    371   372   373   374   375   376   377   378   379   380
    381   382   383   384   385   386   387   388   389   390

    SFO  (index         Fragment          Generating    Expansion in Fragment Orbitals
  indx  incl.CFs)   Occup   Orb.Energy   FragmentType  Coeff.   Orbital     on Fragment
 --------------------------------------------------------------------------------------
     1       1      2.000     -10.066 au  C             1.00      1 S               1
                        (    -273.921 eV)
     2       2      2.000      -0.501 au  C             1.00      2 S               1
                        (     -13.620 eV)
     3       3       --         0.373 au  C             1.00      3 S               1
                        (      10.158 eV)
     4       4       --         5.405 au  C             1.00      4 S               1
                        (     147.073 eV)
     5       5       --        49.848 au  C             1.00      5 S               1
                        (    1356.422 eV)
     6       6      0.667      -0.193 au  C             1.00      1 P:x             1
                        (      -5.239 eV)
     7       7       --         0.169 au  C             1.00      2 P:x             1
                        (       4.589 eV)
     8       8       --         2.013 au  C             1.00      3 P:x             1
                        (      54.789 eV)
     9       9      0.667      -0.193 au  C             1.00      1 P:y             1
                        (      -5.239 eV)
    10      10       --         0.169 au  C             1.00      2 P:y             1
                        (       4.589 eV)
    11      11       --         2.013 au  C             1.00      3 P:y             1
                        (      54.789 eV)
    12      12      0.667      -0.193 au  C             1.00      1 P:z             1
                        (      -5.239 eV)
    13      13       --         0.169 au  C             1.00      2 P:z             1
                        (       4.589 eV)
    14      14       --         2.013 au  C             1.00      3 P:z             1
                        (      54.789 eV)
    15      15       --         1.243 au  C             1.00      1 D:z2            1
                        (      33.824 eV)
    16      16       --         1.243 au  C             1.00      1 D:x2-y2         1
                        (      33.824 eV)
    17      17       --         1.243 au  C             1.00      1 D:xy            1
                        (      33.824 eV)
    18      18       --         1.243 au  C             1.00      1 D:xz            1
                        (      33.824 eV)
    19      19       --         1.243 au  C             1.00      1 D:yz            1
                        (      33.824 eV)
    20      20       --         4.016 au  C             1.00      1 F:z3            1
                        (     109.271 eV)
    21      21       --         4.016 au  C             1.00      1 F:z             1
                        (     109.271 eV)
    22      22       --         4.016 au  C             1.00      1 F:xyz           1
                        (     109.271 eV)
    23      23       --         4.016 au  C             1.00      1 F:z2x           1
                        (     109.271 eV)
    24      24       --         4.016 au  C             1.00      1 F:z2y           1
                        (     109.271 eV)
    25      25       --         4.016 au  C             1.00      1 F:x             1
                        (     109.271 eV)
    26      26       --         4.016 au  C             1.00      1 F:y             1
                        (     109.271 eV)
    27      27      2.000     -10.066 au  C             1.00      1 S               2
                        (    -273.921 eV)
    28      28      2.000      -0.501 au  C             1.00      2 S               2
                        (     -13.620 eV)
    29      29       --         0.373 au  C             1.00      3 S               2
                        (      10.158 eV)
    30      30       --         5.405 au  C             1.00      4 S               2
                        (     147.073 eV)
    31      31       --        49.848 au  C             1.00      5 S               2
                        (    1356.422 eV)
    32      32      0.667      -0.193 au  C             1.00      1 P:x             2
                        (      -5.239 eV)
    33      33       --         0.169 au  C             1.00      2 P:x             2
                        (       4.589 eV)
    34      34       --         2.013 au  C             1.00      3 P:x             2
                        (      54.789 eV)
    35      35      0.667      -0.193 au  C             1.00      1 P:y             2
                        (      -5.239 eV)
    36      36       --         0.169 au  C             1.00      2 P:y             2
                        (       4.589 eV)
    37      37       --         2.013 au  C             1.00      3 P:y             2
                        (      54.789 eV)
    38      38      0.667      -0.193 au  C             1.00      1 P:z             2
                        (      -5.239 eV)
    39      39       --         0.169 au  C             1.00      2 P:z             2
                        (       4.589 eV)
    40      40       --         2.013 au  C             1.00      3 P:z             2
                        (      54.789 eV)
    41      41       --         1.243 au  C             1.00      1 D:z2            2
                        (      33.824 eV)
    42      42       --         1.243 au  C             1.00      1 D:x2-y2         2
                        (      33.824 eV)
    43      43       --         1.243 au  C             1.00      1 D:xy            2
                        (      33.824 eV)
    44      44       --         1.243 au  C             1.00      1 D:xz            2
                        (      33.824 eV)
    45      45       --         1.243 au  C             1.00      1 D:yz            2
                        (      33.824 eV)
    46      46       --         4.016 au  C             1.00      1 F:z3            2
                        (     109.271 eV)
    47      47       --         4.016 au  C             1.00      1 F:z             2
                        (     109.271 eV)
    48      48       --         4.016 au  C             1.00      1 F:xyz           2
                        (     109.271 eV)
    49      49       --         4.016 au  C             1.00      1 F:z2x           2
                        (     109.271 eV)
    50      50       --         4.016 au  C             1.00      1 F:z2y           2
                        (     109.271 eV)
    51      51       --         4.016 au  C             1.00      1 F:x             2
                        (     109.271 eV)
    52      52       --         4.016 au  C             1.00      1 F:y             2
                        (     109.271 eV)
    53      53      2.000     -10.066 au  C             1.00      1 S               3
                        (    -273.921 eV)
    54      54      2.000      -0.501 au  C             1.00      2 S               3
                        (     -13.620 eV)
    55      55       --         0.373 au  C             1.00      3 S               3
                        (      10.158 eV)
    56      56       --         5.405 au  C             1.00      4 S               3
                        (     147.073 eV)
    57      57       --        49.848 au  C             1.00      5 S               3
                        (    1356.422 eV)
    58      58      0.667      -0.193 au  C             1.00      1 P:x             3
                        (      -5.239 eV)
    59      59       --         0.169 au  C             1.00      2 P:x             3
                        (       4.589 eV)
    60      60       --         2.013 au  C             1.00      3 P:x             3
                        (      54.789 eV)
    61      61      0.667      -0.193 au  C             1.00      1 P:y             3
                        (      -5.239 eV)
    62      62       --         0.169 au  C             1.00      2 P:y             3
                        (       4.589 eV)
    63      63       --         2.013 au  C             1.00      3 P:y             3
                        (      54.789 eV)
    64      64      0.667      -0.193 au  C             1.00      1 P:z             3
                        (      -5.239 eV)
    65      65       --         0.169 au  C             1.00      2 P:z             3
                        (       4.589 eV)
    66      66       --         2.013 au  C             1.00      3 P:z             3
                        (      54.789 eV)
    67      67       --         1.243 au  C             1.00      1 D:z2            3
                        (      33.824 eV)
    68      68       --         1.243 au  C             1.00      1 D:x2-y2         3
                        (      33.824 eV)
    69      69       --         1.243 au  C             1.00      1 D:xy            3
                        (      33.824 eV)
    70      70       --         1.243 au  C             1.00      1 D:xz            3
                        (      33.824 eV)
    71      71       --         1.243 au  C             1.00      1 D:yz            3
                        (      33.824 eV)
    72      72       --         4.016 au  C             1.00      1 F:z3            3
                        (     109.271 eV)
    73      73       --         4.016 au  C             1.00      1 F:z             3
                        (     109.271 eV)
    74      74       --         4.016 au  C             1.00      1 F:xyz           3
                        (     109.271 eV)
    75      75       --         4.016 au  C             1.00      1 F:z2x           3
                        (     109.271 eV)
    76      76       --         4.016 au  C             1.00      1 F:z2y           3
                        (     109.271 eV)
    77      77       --         4.016 au  C             1.00      1 F:x             3
                        (     109.271 eV)
    78      78       --         4.016 au  C             1.00      1 F:y             3
                        (     109.271 eV)
    79      79      2.000     -10.066 au  C             1.00      1 S               4
                        (    -273.921 eV)
    80      80      2.000      -0.501 au  C             1.00      2 S               4
                        (     -13.620 eV)
    81      81       --         0.373 au  C             1.00      3 S               4
                        (      10.158 eV)
    82      82       --         5.405 au  C             1.00      4 S               4
                        (     147.073 eV)
    83      83       --        49.848 au  C             1.00      5 S               4
                        (    1356.422 eV)
    84      84      0.667      -0.193 au  C             1.00      1 P:x             4
                        (      -5.239 eV)
    85      85       --         0.169 au  C             1.00      2 P:x             4
                        (       4.589 eV)
    86      86       --         2.013 au  C             1.00      3 P:x             4
                        (      54.789 eV)
    87      87      0.667      -0.193 au  C             1.00      1 P:y             4
                        (      -5.239 eV)
    88      88       --         0.169 au  C             1.00      2 P:y             4
                        (       4.589 eV)
    89      89       --         2.013 au  C             1.00      3 P:y             4
                        (      54.789 eV)
    90      90      0.667      -0.193 au  C             1.00      1 P:z             4
                        (      -5.239 eV)
    91      91       --         0.169 au  C             1.00      2 P:z             4
                        (       4.589 eV)
    92      92       --         2.013 au  C             1.00      3 P:z             4
                        (      54.789 eV)
    93      93       --         1.243 au  C             1.00      1 D:z2            4
                        (      33.824 eV)
    94      94       --         1.243 au  C             1.00      1 D:x2-y2         4
                        (      33.824 eV)
    95      95       --         1.243 au  C             1.00      1 D:xy            4
                        (      33.824 eV)
    96      96       --         1.243 au  C             1.00      1 D:xz            4
                        (      33.824 eV)
    97      97       --         1.243 au  C             1.00      1 D:yz            4
                        (      33.824 eV)
    98      98       --         4.016 au  C             1.00      1 F:z3            4
                        (     109.271 eV)
    99      99       --         4.016 au  C             1.00      1 F:z             4
                        (     109.271 eV)
   100     100       --         4.016 au  C             1.00      1 F:xyz           4
                        (     109.271 eV)
   101     101       --         4.016 au  C             1.00      1 F:z2x           4
                        (     109.271 eV)
   102     102       --         4.016 au  C             1.00      1 F:z2y           4
                        (     109.271 eV)
   103     103       --         4.016 au  C             1.00      1 F:x             4
                        (     109.271 eV)
   104     104       --         4.016 au  C             1.00      1 F:y             4
                        (     109.271 eV)
   105     105      2.000     -10.066 au  C             1.00      1 S               5
                        (    -273.921 eV)
   106     106      2.000      -0.501 au  C             1.00      2 S               5
                        (     -13.620 eV)
   107     107       --         0.373 au  C             1.00      3 S               5
                        (      10.158 eV)
   108     108       --         5.405 au  C             1.00      4 S               5
                        (     147.073 eV)
   109     109       --        49.848 au  C             1.00      5 S               5
                        (    1356.422 eV)
   110     110      0.667      -0.193 au  C             1.00      1 P:x             5
                        (      -5.239 eV)
   111     111       --         0.169 au  C             1.00      2 P:x             5
                        (       4.589 eV)
   112     112       --         2.013 au  C             1.00      3 P:x             5
                        (      54.789 eV)
   113     113      0.667      -0.193 au  C             1.00      1 P:y             5
                        (      -5.239 eV)
   114     114       --         0.169 au  C             1.00      2 P:y             5
                        (       4.589 eV)
   115     115       --         2.013 au  C             1.00      3 P:y             5
                        (      54.789 eV)
   116     116      0.667      -0.193 au  C             1.00      1 P:z             5
                        (      -5.239 eV)
   117     117       --         0.169 au  C             1.00      2 P:z             5
                        (       4.589 eV)
   118     118       --         2.013 au  C             1.00      3 P:z             5
                        (      54.789 eV)
   119     119       --         1.243 au  C             1.00      1 D:z2            5
                        (      33.824 eV)
   120     120       --         1.243 au  C             1.00      1 D:x2-y2         5
                        (      33.824 eV)
   121     121       --         1.243 au  C             1.00      1 D:xy            5
                        (      33.824 eV)
   122     122       --         1.243 au  C             1.00      1 D:xz            5
                        (      33.824 eV)
   123     123       --         1.243 au  C             1.00      1 D:yz            5
                        (      33.824 eV)
   124     124       --         4.016 au  C             1.00      1 F:z3            5
                        (     109.271 eV)
   125     125       --         4.016 au  C             1.00      1 F:z             5
                        (     109.271 eV)
   126     126       --         4.016 au  C             1.00      1 F:xyz           5
                        (     109.271 eV)
   127     127       --         4.016 au  C             1.00      1 F:z2x           5
                        (     109.271 eV)
   128     128       --         4.016 au  C             1.00      1 F:z2y           5
                        (     109.271 eV)
   129     129       --         4.016 au  C             1.00      1 F:x             5
                        (     109.271 eV)
   130     130       --         4.016 au  C             1.00      1 F:y             5
                        (     109.271 eV)
   131     131      2.000     -10.066 au  C             1.00      1 S               6
                        (    -273.921 eV)
   132     132      2.000      -0.501 au  C             1.00      2 S               6
                        (     -13.620 eV)
   133     133       --         0.373 au  C             1.00      3 S               6
                        (      10.158 eV)
   134     134       --         5.405 au  C             1.00      4 S               6
                        (     147.073 eV)
[...]
                                   -1.02%     2 P:z            11.654  0.00     9 F
                                    1.00%     1 S              -6.532  1.00    15 H
       2.394  0.00    53 A         36.92%     3 S               0.624  0.00     9 F
                                   33.11%     3 S               0.624  0.00     8 F
                                    9.42%     1 P:x            -5.239  0.67     6 C
                                   -8.66%     2 P:z             4.589  0.00     2 C
                                   -7.99%     2 P:y             4.589  0.00     2 C
                                   -5.98%     2 P:z            11.654  0.00     9 F
                                    5.90%     2 S               2.394  0.00    16 H
                                    4.52%     1 S              -6.532  1.00    15 H
                                    4.27%     1 S              -6.532  1.00    13 H
                                    4.26%     1 P:x            -5.239  0.67     4 C
                                    4.08%     1 P:z            -5.239  0.67     3 C
                                    3.94%     1 S              -6.532  1.00    12 H
                                   -3.48%     2 S               2.394  0.00    15 H
                                   -3.41%     2 P:x             4.589  0.00     2 C
                                    2.91%     2 P:x             4.589  0.00     6 C
                                    2.76%     1 P:z            -9.020  1.33    11 O
                                   -2.52%     2 P:y            11.654  0.00     8 F
                                    2.36%     1 P:z           -11.127  1.67     9 F
                                    2.33%     1 P:x            -5.239  0.67     5 C
                                    2.21%     1 P:z            -5.239  0.67     2 C
                                    2.21%     1 P:x            -5.239  0.67     2 C
                                   -2.15%     2 P:z             9.437  0.00    11 O
                                    2.07%     2 P:x             4.589  0.00     4 C
                                    1.96%     2 P:y             4.589  0.00     1 C
                                    1.86%     2 P:x             4.589  0.00     3 C
                                   -1.79%     2 S               2.394  0.00    13 H
                                   -1.78%     2 P:x            11.654  0.00     8 F
                                    1.74%     1 P:y            -5.239  0.67     3 C
                                    1.66%     2 P:x             4.589  0.00     5 C
                                    1.41%     1 P:x            -5.239  0.67     3 C
                                   -1.39%     3 S              10.158  0.00     7 C
                                   -1.37%     3 S              10.158  0.00     6 C
                                    1.26%     2 S             -13.620  2.00     2 C
                                   -1.21%     1 P:y            -5.239  0.67     2 C
                                    1.08%     2 P:y             4.589  0.00     7 C
                                    1.04%     1 P:x            -9.020  1.33    11 O
                                   -1.03%     2 P:y             4.589  0.00     3 C
       2.824  0.00    54 A         24.86%     1 P:z            -5.239  0.67     6 C
                                   10.54%     2 S             -13.620  2.00     2 C
                                   10.47%     1 P:z            -5.239  0.67     4 C
                                    9.68%     1 P:z            -5.239  0.67     3 C
                                    8.94%     1 P:y            -5.239  0.67     3 C
                                    8.68%     1 P:x            -9.020  1.33    11 O
                                    5.98%     1 P:y            -5.239  0.67     7 C
                                    5.69%     1 P:z            -5.239  0.67     5 C
                                   -5.35%     2 S               2.394  0.00    14 H
                                   -4.84%     2 P:x             9.437  0.00    11 O
                                    3.82%     1 P:y            -5.239  0.67     1 C
                                    3.70%     1 S              -6.532  1.00    14 H
                                    3.29%     2 P:z             4.589  0.00     4 C
                                   -3.13%     3 S              10.158  0.00     5 C
                                    2.97%     3 S               0.624  0.00     9 F
                                   -2.64%     3 S              10.158  0.00     3 C
                                    2.61%     2 S             -13.620  2.00     3 C
                                   -2.52%     2 S             -13.620  2.00     1 C
                                   -2.51%     3 S              10.158  0.00     1 C
                                    2.36%     2 P:z             4.589  0.00     7 C
                                   -2.13%     3 S              10.158  0.00     2 C
                                    2.10%     1 P:z            -5.239  0.67     1 C
                                   -2.05%     2 P:y             4.589  0.00     1 C
                                    1.93%     1 P:x           -11.127  1.67    10 F
                                   -1.84%     2 P:z             4.589  0.00     2 C
                                    1.60%     2 P:y             4.589  0.00     2 C
                                    1.58%     2 P:z             4.589  0.00     6 C
                                    1.41%     1 P:x            -5.239  0.67     6 C
                                    1.29%     1 P:x           -11.127  1.67     8 F
                                    1.16%     1 P:z            11.051  0.00    13 H
                                    1.12%     1 P:z            11.051  0.00    15 H
                                    1.09%     2 P:y             4.589  0.00     3 C
                                    1.05%     2 S             -13.620  2.00     5 C
                                   -1.04%     2 P:y             4.589  0.00     7 C
                                    1.04%     1 P:y            -5.239  0.67     2 C

 Energy gradients wrt nuclear displacements
 ==========================================

     Atom      Cartesian (a.u./angstrom)
                 X         Y         Z
 ----------------------------------------
     1 C    -0.000084 -0.000043 -0.000015
     2 C    -0.000144 -0.000014 -0.000015
     3 F    -0.000143  0.000022 -0.000091
     4 F    -0.000163 -0.000031 -0.000013
     5 F    -0.000120 -0.000060  0.000005
     6 C     0.000048  0.000025  0.000053
     7 C     0.000066 -0.000037  0.000067
     8 C     0.000085  0.000012  0.000027
     9 C     0.000105  0.000063 -0.000001
    10 O     0.000043 -0.000033 -0.000015
    11 C     0.000006  0.000052 -0.000054
    12 H    -0.000028 -0.000069  0.000076
    13 H     0.000058 -0.000064  0.000100
    14 H     0.000160  0.000026  0.000025
    15 H     0.000114  0.000072 -0.000041
    16 H    -0.000004  0.000080 -0.000107
 ----------------------------------------



 =======================================================================
 Electrostatic potential at the Nuclei due to electrons and other nuclei
 =======================================================================
  
         Atom                  Potential
         ----                  ---------
     1)   C                  14.74964216
     2)   C                  14.52354173
     3)   F                  26.61185155
     4)   F                  26.61692700
     5)   F                  26.61564893
     6)   C                  14.69999452
     7)   C                  14.76945918
     8)   C                  14.76924830
     9)   C                  14.70138663
    10)   O                  22.38394271
    11)   C                  14.75473515
    12)   H                   1.08050502
    13)   H                   1.07481814
    14)   H                   1.07372778
    15)   H                   1.08033450
    16)   H                   1.06233514
 Mulliken charges used for AMS results%charges...


    =====================
     CALCULATION RESULTS
    =====================

Energy (hartree)            -3.43405607

Gradients (hartree/bohr)
  Index   Atom            d/dx            d/dy            d/dz
      1      C   -0.0000445755   -0.0000225199   -0.0000079213
      2      C   -0.0000763439   -0.0000073063   -0.0000080331
      3      F   -0.0000757703    0.0000118335   -0.0000482459
      4      F   -0.0000862194   -0.0000163022   -0.0000068747
      5      F   -0.0000635430   -0.0000318701    0.0000024660
      6      C    0.0000256212    0.0000129966    0.0000281868
      7      C    0.0000350575   -0.0000196065    0.0000356555
      8      C    0.0000451543    0.0000061628    0.0000142238
      9      C    0.0000557655    0.0000332544   -0.0000005602
     10      O    0.0000227098   -0.0000174483   -0.0000080136
     11      C    0.0000032053    0.0000272657   -0.0000283886
     12      H   -0.0000149027   -0.0000366221    0.0000400106
     13      H    0.0000309474   -0.0000339813    0.0000527997
     14      H    0.0000845729    0.0000135054    0.0000131439
     15      H    0.0000604005    0.0000380630   -0.0000216878
     16      H   -0.0000020794    0.0000425753   -0.0000567612


--------------
Atomic charges
--------------
  Index   Atom    Charge
      1      C   -0.0854
      2      C    1.1721
      3      F   -0.4038
      4      F   -0.4003
      5      F   -0.4067
      6      C    0.4915
      7      C    0.2351
      8      C    0.2201
      9      C    0.4774
     10      O   -0.5298
     11      C    0.2703
     12      H   -0.2007
     13      H   -0.2141
     14      H   -0.2120
     15      H   -0.2040
     16      H   -0.2095


Dipole moment vector    (Debye):    -0.29575407    0.63888594   -2.75470975
              magnitude (Debye):     2.84325016


-----------------------
Molecular orbitals info
-----------------------
n orbitals:              341
n spin:                    1

Note: only printing virtual orbitals with
      energy smaller than HOMO + 100. eV

HOMO (eV):              -5.9017
LUMO (eV):              -2.5298
HOMO-LUMO gap (eV):      3.3719

   Index   Energy (eV)    Occupation
     216       94.0829         0.000       
     215       93.7323         0.000       
     214       93.0964         0.000       
     213       92.9480         0.000       
     212       92.2847         0.000       
     211       92.1683         0.000       
     210       91.3787         0.000       
     209       91.3365         0.000       
     208       89.9593         0.000       
     207       89.7274         0.000       
     206       89.3897         0.000       
     205       88.2281         0.000       
     204       87.9989         0.000       
     203       87.6846         0.000       
     202       86.4847         0.000       
     201       86.0303         0.000       
     200       85.3700         0.000       
     199       84.9723         0.000       
     198       83.8788         0.000       
     197       83.0761         0.000       
     196       82.6789         0.000       
     195       81.2363         0.000       
     194       79.9255         0.000       
     193       79.7115         0.000       
     192       78.7916         0.000       
     191       78.4098         0.000       
     190       77.2944         0.000       
     189       76.6010         0.000       
     188       76.0088         0.000       
     187       74.8451         0.000       
     186       74.5345         0.000       
     185       73.3701         0.000       
     184       72.6051         0.000       
     183       71.8097         0.000       
     182       71.3617         0.000       
     181       70.2947         0.000       
     180       69.5552         0.000       
     179       67.7019         0.000       
     178       66.6677         0.000       
     177       65.9902         0.000       
     176       65.8142         0.000       
     175       63.9519         0.000       
     174       63.8527         0.000       
     173       62.6089         0.000       
     172       62.3252         0.000       
     171       61.3734         0.000       
     170       60.8466         0.000       
     169       60.1472         0.000       
     168       59.6921         0.000       
     167       58.9826         0.000       
     166       58.2008         0.000       
     165       58.0467         0.000       
     164       56.5914         0.000       
     163       56.0900         0.000       
     162       55.2721         0.000       
     161       54.9103         0.000       
     160       54.4094         0.000       
     159       53.7347         0.000       
     158       53.3327         0.000       
     157       51.6581         0.000       
     156       51.1552         0.000       
     155       50.7821         0.000       
     154       50.4358         0.000       
     153       49.9914         0.000       
     152       48.3889         0.000       
     151       47.2022         0.000       
     150       46.8966         0.000       
     149       46.1677         0.000       
     148       45.4528         0.000       
     147       44.9002         0.000       
     146       44.3601         0.000       
     145       44.0786         0.000       
     144       43.9576         0.000       
     143       43.6591         0.000       
     142       43.0773         0.000       
     141       42.3996         0.000       
     140       42.3191         0.000       
     139       41.7304         0.000       
     138       40.9295         0.000       
     137       40.2410         0.000       
     136       40.0861         0.000       
     135       39.4710         0.000       
     134       38.3018         0.000       
     133       37.7274         0.000       
     132       37.1258         0.000       
     131       36.6329         0.000       
     130       36.2615         0.000       
     129       35.6211         0.000       
     128       35.6009         0.000       
     127       35.0846         0.000       
     126       34.6690         0.000       
     125       34.2036         0.000       
     124       34.1431         0.000       
     123       33.7652         0.000       
     122       32.4726         0.000       
     121       31.6348         0.000       
     120       30.9652         0.000       
     119       29.8376         0.000       
     118       29.5911         0.000       
     117       29.3931         0.000       
     116       28.7525         0.000       
     115       28.3338         0.000       
     114       27.8213         0.000       
     113       27.2664         0.000       
     112       27.0304         0.000       
     111       26.7851         0.000       
     110       25.9926         0.000       
     109       25.5013         0.000       
     108       24.8773         0.000       
     107       23.8568         0.000       
     106       23.5172         0.000       
     105       22.9202         0.000       
     104       22.8481         0.000       
     103       22.3015         0.000       
     102       21.3867         0.000       
     101       21.3223         0.000       
     100       21.1043         0.000       
      99       20.7923         0.000       
      98       20.1473         0.000       
      97       19.8749         0.000       
      96       19.7558         0.000       
      95       19.1080         0.000       
      94       18.7979         0.000       
      93       18.4305         0.000       
      92       18.1365         0.000       
      91       17.5728         0.000       
      90       17.2453         0.000       
      89       16.8898         0.000       
      88       15.6576         0.000       
      87       15.3240         0.000       
      86       15.1583         0.000       
      85       14.5253         0.000       
      84       13.5287         0.000       
      83       13.1171         0.000       
      82       12.1877         0.000       
      81       11.8203         0.000       
      80       11.4824         0.000       
      79       11.0871         0.000       
      78       10.3855         0.000       
      77        9.9277         0.000       
      76        9.6934         0.000       
      75        9.2074         0.000       
      74        8.9104         0.000       
      73        8.4328         0.000       
      72        8.3420         0.000       
      71        8.0952         0.000       
      70        7.9518         0.000       
      69        7.3984         0.000       
      68        7.2193         0.000       
      67        6.5289         0.000       
      66        6.3636         0.000       
      65        6.0220         0.000       
      64        5.6738         0.000       
      63        5.1739         0.000       
      62        4.9548         0.000       
      61        4.6577         0.000       
      60        4.3507         0.000       
      59        4.0031         0.000       
      58        3.6827         0.000       
      57        3.4308         0.000       
      56        3.2628         0.000       
      55        3.0145         0.000       
      54        2.8236         0.000       
      53        2.3941         0.000       
      52        2.0353         0.000       
      51        1.4426         0.000       
      50        1.3321         0.000       
      49        1.1295         0.000       
      48        1.0291         0.000       
      47        0.6421         0.000       
      46        0.4254         0.000       
      45        0.2925         0.000       
      44       -0.2051         0.000       
      43       -1.0099         0.000       
      42       -2.5298         0.000 < LUMO
      41       -5.9017         2.000 < HOMO
      40       -6.9286         2.000       
      39       -7.2216         2.000       
      38       -8.8495         2.000       
      37       -9.4387         2.000       
      36       -9.6166         2.000       
      35       -9.6328         2.000       
      34       -9.9867         2.000       
      33      -10.1178         2.000       
      32      -10.2293         2.000       
      31      -10.4168         2.000       
      30      -10.6979         2.000       
      29      -11.0643         2.000       
      28      -11.1000         2.000       
      27      -11.4440         2.000       
      26      -12.7787         2.000       
      25      -13.7664         2.000       
      24      -14.0672         2.000       
      23      -14.2625         2.000       
      22      -14.3743         2.000       
      21      -15.0645         2.000       
      20      -15.2268         2.000       
      19      -17.5633         2.000       
      18      -18.7078         2.000       
      17      -19.6406         2.000       
      16      -20.8359         2.000       
      15      -26.5429         2.000       
      14      -30.3752         2.000       
      13      -30.5105         2.000       
      12      -32.5601         2.000       
      11     -270.5934         2.000       
      10     -270.6122         2.000       
       9     -271.0147         2.000       
       8     -271.1276         2.000       
       7     -272.2923         2.000       
       6     -272.3303         2.000       
       5     -276.9834         2.000       
       4     -511.9352         2.000       
       3     -662.3366         2.000       
       2     -662.3711         2.000       
       1     -662.4654         2.000       

AMS application finished. Exiting.
NORMAL TERMINATION
     Total cpu time:     727.28
  Total system time:       2.57
 Total elapsed time:     733.81
NORMAL TERMINATION
