
 *******************************************************************************
 *                                                                             *
 *  --------------------------------                                           *
 *   Amsterdam Modeling Suite (AMS)              2026.103                      *
 *  --------------------------------                                           *
 *                                               r260501 2026-05-01 873454b5   *
 *                                                                             *
 *                                                                             *
 *                              =================                              *
 *                              |               |                              *
 *                              |     A M S     |                              *
 *                              |               |                              *
 *                              =================                              *
 *                                                                             *
 *                                                                             *
 *   Online information and documentation:  https://www.scm.com/support/       *
 *   E-mail:  support@scm.com   info@scm.com                                   *
 *                                                                             *
 *   Scientific publications using AMS results must be properly referenced     *
 *   See the User Manuals (or the web site) for recommended citations          *
 *   The terms and conditions of the End User License Agreement apply to       *
 *   the use of AMS, https://www.scm.com/license-terms/                        *
 *                                                                             *
 **********************  x86_64_linux_intel / intelmpi  ************************
 
 Licensed to: Jong-June Jeon / University of Seoul 2026-06-02 13:44:15
 SCM User ID: u30731
  
 AMS 2026.103  RunTime: Jun03-2026 20:24:21  ShM Nodes: 1  Procs: 1

 AMS jobname: c3_eda
 AMS jobid  : 234854690

 Start   directory: /gpfs/home1/yeseo1ee/projects/eda-asm-prediction/ADF_800/adf_outputs/batch_004/qmrxn20_e2_C_D_D_D_B_A/
 Results directory: /gpfs/home1/yeseo1ee/projects/eda-asm-prediction/ADF_800/adf_outputs/batch_004/qmrxn20_e2_C_D_D_D_B_A/c3_eda.results/
 Scratch directory: /tmp/amstmp_c3_eda_kid0.234854690/

 RNG seed: 1080606281 -863685846 1620241015 -479946430 -1004702750 569690636 -1320747777 -1830921718



                      ************************************************************************
                      *  ADF 2026.103  RunTime: Jun03-2026 20:24:22  ShM Nodes: 1  Procs: 1  *
                      ************************************************************************
  

       ****************************
       * SINGLE POINT CALCULATION *
       ****************************

--------
Geometry
--------
Formula: C6H11ClN
Atoms
  Index Symbol   x (angstrom)   y (angstrom)   z (angstrom)
      1      H    -2.55781784     0.37761332     1.73331778 adf.f=fA
      2      C    -0.12331479     0.00751147    -0.38476946 adf.f=fB
      3      C    -0.09792319    -0.05768779     1.09120161 adf.f=fB
      4     Cl     1.65547490     0.09269668    -1.18796857 adf.f=fB
      5      H    -1.28218765     0.00062824     1.37353135 adf.f=fB
      6      C    -0.66248239    -1.22017737    -0.96894070 adf.f=fB
      7      N    -1.12578064    -2.19109801    -1.44420818 adf.f=fB
      8      C    -0.88317152     1.20783438    -0.90927180 adf.f=fB
      9      H    -1.03916885     1.14252902    -1.98745830 adf.f=fB
     10      H    -1.84437854     1.22166915    -0.37091788 adf.f=fB
     11      H    -0.33821215     2.12487756    -0.68613207 adf.f=fB
     12      C     0.44098802     1.20265450     1.74420489 adf.f=fB
     13      H    -0.24933728     2.03829157     1.59894965 adf.f=fB
     14      H     0.50549983     1.04164784     2.82472025 adf.f=fB
     15      H     1.43605530     1.47592447     1.37311600 adf.f=fB
     16      C     0.51277203    -1.31917497     1.66659473 adf.f=fB
     17      H     0.09727666    -2.21999323     1.20602363 adf.f=fB
     18      H     1.60298079    -1.34214980     1.53966363 adf.f=fB
     19      H     0.28967731    -1.36814701     2.73778344 adf.f=fB

Total System Charge             -1.00000


----------------
ADF Engine Input
----------------
 
   Basis
     Type TZ2P
     Core None
   End
   XC
     GGA BLYP
     Dispersion GRIMME3 BJDAMP
   End
   Symmetry NOSYM
   NumericalQuality Normal
   Unrestricted No
   SCF
     Iterations 200
     Converge 1.0e-6
   End
   fragments
     fA c1_fragA_ts.results/adf.rkf
     fB c2_fragB_ts.results/adf.rkf
   end
   etsnocv
     enocv 0.05
     ekmin 0.5
   end
   print etslowdin
   Save TAPE21
 

 Title: *** (NO TITLE) ***

 *** adf ***



 ===========================
 A T T A C H E D   F I L E S
 ===========================
  



 ===============================
 M O D E L   P A R A M E T E R S
 ===============================
  
 DENSITY FUNCTIONAL POTENTIAL (scf)
    LDA:                               Exchange only                           == Not Default ==
    Gradient Corrections:              Becke88 LYP                             == Not Default ==

 SPIN  (restricted / unrestr.)
    Molecule:                          Restricted                               
    Fragments:                         Restricted                               

 OTHER ASPECTS
    Relativistic Corrections:          scalar (ZORA,MAPA)                       

    Nuclear Charge Density Model:      Point Charge Nuclei                      
    Core Treatment:                    Frozen Orbital(s)                        

    Hyperfine or Zeeman Interaction:   ---                                      

 Settings for Grimme D3 dispersion correction

      damping                        BJ
      s6                          1.000
      s8                          2.700
      a1                          0.430
      a2                          4.236

 Other (technical) parameters

      alpha                      14.000
      version                         4
 


 Fragment File(s)
 ----------------
 fA:
         file : c1_fragA_ts.results/adf.rkf
         jobid: 1618638434
         title: *** adf ***
 fB:
         file : c2_fragB_ts.results/adf.rkf
         jobid: 2059773493
         title: *** adf ***



 ===============
 G E O M E T R Y  ***  3D  Molecule  ***
 ===============
  

 ATOMS
 =====                            X Y Z                    CHARGE
                                (Angstrom)             Nucl     +Core       At.Mass
                       --------------------------    ----------------       -------
    1  H              -2.5578    0.3776    1.7333      1.00      1.00        1.0078
    2  C              -0.1233    0.0075   -0.3848      6.00      6.00       12.0000
    3  C              -0.0979   -0.0577    1.0912      6.00      6.00       12.0000
    4  Cl              1.6555    0.0927   -1.1880     17.00     17.00       34.9689
    5  H              -1.2822    0.0006    1.3735      1.00      1.00        1.0078
    6  C              -0.6625   -1.2202   -0.9689      6.00      6.00       12.0000
    7  N              -1.1258   -2.1911   -1.4442      7.00      7.00       14.0031
    8  C              -0.8832    1.2078   -0.9093      6.00      6.00       12.0000
    9  H              -1.0392    1.1425   -1.9875      1.00      1.00        1.0078
   10  H              -1.8444    1.2217   -0.3709      1.00      1.00        1.0078
   11  H              -0.3382    2.1249   -0.6861      1.00      1.00        1.0078
   12  C               0.4410    1.2027    1.7442      6.00      6.00       12.0000
   13  H              -0.2493    2.0383    1.5989      1.00      1.00        1.0078
   14  H               0.5055    1.0416    2.8247      1.00      1.00        1.0078
   15  H               1.4361    1.4759    1.3731      1.00      1.00        1.0078
   16  C               0.5128   -1.3192    1.6666      6.00      6.00       12.0000
   17  H               0.0973   -2.2200    1.2060      1.00      1.00        1.0078
   18  H               1.6030   -1.3421    1.5397      1.00      1.00        1.0078
   19  H               0.2897   -1.3681    2.7378      1.00      1.00        1.0078


 FRAGMENTS
 =========                                     Atoms in this Fragment     Cart. coord.s (Angstrom)
                                               -------------------------------------------------------
    1  fA                                                1  H           -2.5578    0.3776    1.7333
    2  fB                                                2  C           -0.1233    0.0075   -0.3848
                                                         3  C           -0.0979   -0.0577    1.0912
                                                         6  C           -0.6625   -1.2202   -0.9689
                                                         8  C           -0.8832    1.2078   -0.9093
                                                        12  C            0.4410    1.2027    1.7442
                                                        16  C            0.5128   -1.3192    1.6666
                                                         4  Cl           1.6555    0.0927   -1.1880
                                                         5  H           -1.2822    0.0006    1.3735
                                                         9  H           -1.0392    1.1425   -1.9875
                                                        10  H           -1.8444    1.2217   -0.3709
                                                        11  H           -0.3382    2.1249   -0.6861
                                                        13  H           -0.2493    2.0383    1.5989
                                                        14  H            0.5055    1.0416    2.8247
                                                        15  H            1.4361    1.4759    1.3731
                                                        17  H            0.0973   -2.2200    1.2060
                                                        18  H            1.6030   -1.3421    1.5397
                                                        19  H            0.2897   -1.3681    2.7378
                                                         7  N           -1.1258   -2.1911   -1.4442


 Interatomic Distance Matrix (Angstrom)
 --------------------------------------

   1)     0.000
   2)     3.248   0.000
   3)     2.579   1.478   0.000
   4)     5.135   1.954   2.880   0.000
   5)     1.378   2.106   1.219   3.899   0.000
   6)     3.667   1.463   2.432   2.673   2.713   0.000
   7)     4.330   2.638   3.469   3.608   3.573   1.176   0.000
   8)     3.237   1.514   2.494   2.787   2.613   2.439   3.449   0.000
   9)     4.091   2.167   3.436   3.000   3.558   2.600   3.379   1.091   0.000
  10)     2.377   2.106   2.612   3.767   2.202   2.778   3.649   1.102   1.808   0.000
  11)     3.719   2.149   2.825   2.891   3.106   3.373   4.452   1.090   1.775   1.784
          0.000
  12)     3.110   2.506   1.518   3.362   2.133   3.801   4.913   2.966   4.015   3.114
          2.714   0.000
  13)     2.847   2.842   2.162   3.896   2.296   4.169   5.284   2.717   3.780   2.663
          2.288   1.094   0.000
  14)     3.319   3.430   2.140   4.281   2.527   4.569   5.598   3.987   5.055   3.971
          3.770   1.094   1.751   0.000
  15)     4.158   2.771   2.187   2.919   3.093   4.142   5.287   3.265   4.187   3.724
          2.795   1.097   1.791   1.778   0.000
  16)     3.509   2.524   1.515   3.383   2.247   2.887   3.622   3.869   4.671   4.020
          4.257   2.524   3.444   2.630   2.958   0.000
  17)     3.752   2.746   2.174   3.675   2.620   2.511   2.919   4.146   4.775   4.255
          4.759   3.482   4.290   3.664   3.934   1.094   0.000
  18)     4.506   2.916   2.178   3.082   3.187   3.382   4.132   4.322   5.059   4.702
          4.554   2.805   3.855   2.922   2.828   1.098   1.775   0.000
  19)     3.488   3.437   2.140   4.406   2.491   3.830   4.491   4.617   5.513   4.574
          4.931   2.760   3.632   2.421   3.356   1.095   1.763   1.778   0.000

 Min. Distance =    1.0898
 Max. Distance =    5.5978



 =====================================
 S Y M M E T R Y ,   E L E C T R O N S
 =====================================
  
 Symmetry: NOSYM

 Irreducible Representations, including subspecies
 -------------------------------------------------
 A


 Configuration of Valence Electrons
 ==================================
 ( determined in the SCF procedure )

 Total:   72

 Net Charge: -1 (Nuclei minus Electrons)

 Aufbau principle for MO occupations will be applied through SCF cycle no.     100
 Thereafter, the program will assign electrons to MOs that are spatially
 similar to the occupied MOs in a "reference" cycle ("KeepOrbitals").
 The reference cycle is always the PREVIOUS cycle: it will evolve with
 the SCF procedure.
 ***************************************************************************************************



                                      ****************************************
                                      *  B U I L D : (Fragments, Functions)  *
                                      ****************************************
  

 The individual fragments are copies of the corresponding 'Master' fragments defined on the fragment files.
 However, they may have been rotated (and translated) with respect to the Master. The local coordinate axes
 of each fragment (which define for instance the spatial orientation in the current molecule of a fragment
 P:x orbital) are not necessarily those of the molecule.
 The local frame (if different from the molecular one) is printed to enable an interpretation of the expan-
 sion of an MO in Fragment Orbitals.



                                              ************************
                                              *  Fragment Type : fA  *
                                              ************************
  

 Fragment no.    1   (in the list of all fragments)
 -----------------
 The local coordinate frame is identical to the molecular frame.

 Check Atomic Coordinates:

                  Master (on file)          After Computed Tranformation               As specified on Input
           ----------------------------     ----------------------------     ---------------------------------
     1)    -2.55782   0.37761   1.73332     -2.55782   0.37761   1.73332       1  -2.55782   0.37761   1.73332



                                              ************************
                                              *  Fragment Type : fB  *
                                              ************************
  

 Fragment no.    2   (in the list of all fragments)
 -----------------
 The local coordinate frame is identical to the molecular frame.

 Check Atomic Coordinates:

                  Master (on file)          After Computed Tranformation               As specified on Input
           ----------------------------     ----------------------------     ---------------------------------
     1)    -0.12331   0.00751  -0.38477     -0.12331   0.00751  -0.38477       2  -0.12331   0.00751  -0.38477
     2)    -0.09792  -0.05769   1.09120     -0.09792  -0.05769   1.09120       3  -0.09792  -0.05769   1.09120
     3)    -0.66248  -1.22018  -0.96894     -0.66248  -1.22018  -0.96894       6  -0.66248  -1.22018  -0.96894
     4)    -0.88317   1.20783  -0.90927     -0.88317   1.20783  -0.90927       8  -0.88317   1.20783  -0.90927
     5)     0.44099   1.20265   1.74420      0.44099   1.20265   1.74420      12   0.44099   1.20265   1.74420
     6)     0.51277  -1.31917   1.66659      0.51277  -1.31917   1.66659      16   0.51277  -1.31917   1.66659
     7)     1.65547   0.09270  -1.18797      1.65547   0.09270  -1.18797       4   1.65547   0.09270  -1.18797
     8)    -1.28219   0.00063   1.37353     -1.28219   0.00063   1.37353       5  -1.28219   0.00063   1.37353
     9)    -1.03917   1.14253  -1.98746     -1.03917   1.14253  -1.98746       9  -1.03917   1.14253  -1.98746
    10)    -1.84438   1.22167  -0.37092     -1.84438   1.22167  -0.37092      10  -1.84438   1.22167  -0.37092
    11)    -0.33821   2.12488  -0.68613     -0.33821   2.12488  -0.68613      11  -0.33821   2.12488  -0.68613
    12)    -0.24934   2.03829   1.59895     -0.24934   2.03829   1.59895      13  -0.24934   2.03829   1.59895
    13)     0.50550   1.04165   2.82472      0.50550   1.04165   2.82472      14   0.50550   1.04165   2.82472
    14)     1.43606   1.47592   1.37312      1.43606   1.47592   1.37312      15   1.43606   1.47592   1.37312
    15)     0.09728  -2.21999   1.20602      0.09728  -2.21999   1.20602      17   0.09728  -2.21999   1.20602
    16)     1.60298  -1.34215   1.53966      1.60298  -1.34215   1.53966      18   1.60298  -1.34215   1.53966
    17)     0.28968  -1.36815   2.73778      0.28968  -1.36815   2.73778      19   0.28968  -1.36815   2.73778
    18)    -1.12578  -2.19110  -1.44421     -1.12578  -2.19110  -1.44421       7  -1.12578  -2.19110  -1.44421



 =======
 S F O s  ***  (Symmetrized Fragment Orbitals)  ***
 =======
  
 SFOs are linear combinations of (valence) Fragment Orbitals (FOs), such that the SFOs transform as the
 irreducible representations of the (molecular) symmetry group. Each SFO is therefore characterized by
 an irrep of the molecule and by a few (or only one) generating FOs.
 The SFOs constitute a symmetry-adapted basis for the Fock matrix. The MO eigenvector coefficients in
 this basis provide a direct interpretation of the MOs in terms of Frontier Orbital Theory.

 The SFOs are combined with auxiliary Core Functions (CFs) to ensure orthogonalization on the (frozen)
 Core Orbitals (COs). The Core-orthogonalized SFOs (CSFOs) constitute the true Fock basis.

 The FOs, and hence also the (C)SFOs are combinations of the elementary basis functions (BAS). The basis
 functions that participate in the description of the SFOs depend on the irrep. The indices of the
 involved functions are printed below for each irrep.
 (The complete list of primitive basis functions is printed in another section)

 Total nr. of (C)SFOs (summation over all irreps) :   337

 NOTE: a (C)SFO that is defined as a combination of more than one FO is usually NOT normalized.



                                       === A ===
 Nr. of SFOs :  337
 Cartesian basis functions that participate in this irrep (total number =   380) :
      1     2     3     4     5     6     7     8     9    10
     11    12    13    14    15    16    17    18    21    24
     19    22    25    20    23    26    27    28    29    30
     31    32    33    34    35    36    37    38    39    40
     41    42    43    44    45    46    47    48    51    54
     49    52    55    50    53    56    57    58    59    60
     61    62    63    64    65    66    67    68    69    70
     71    72    73    74    75    76    77    78    81    84
     79    82    85    80    83    86    87    88    89    90
     91    92    93    94    95    96    97    98    99   100
    101   102   103   104   105   106   107   108   111   114
    109   112   115   110   113   116   117   118   119   120
    121   122   123   124   125   126   127   128   129   130
    131   132   133   134   135   136   137   138   141   144
    139   142   145   140   143   146   147   148   149   150
    151   152   153   154   155   156   157   158   159   160
    161   162   163   164   165   166   167   168   171   174
    169   172   175   170   173   176   177   178   179   180
    181   182   183   184   185   186   187   188   189   190
    191   192   193   194   195   196   203   204   205   197
    200   206   209   212   198   201   207   210   213   199
    202   208   211   214   215   216   217   218   219   220
    221   222   223   224   225   226   227   228   229   230
    231   232   233   234   235   236   237   238   239   240
    241   242   243   244   245   246   247   248   249   250
    251   252   253   254   255   256   257   258   259   260
    261   262   263   264   265   266   267   268   269   270
    271   272   273   274   275   276   277   278   279   280
    281   282   283   284   285   286   287   288   289   290
    291   292   293   294   295   296   297   298   299   300
    301   302   303   304   305   306   307   308   309   310
    311   312   313   314   315   316   317   318   319   320
    321   322   323   324   325   326   327   328   329   330
    331   332   333   334   335   336   337   338   339   340
    341   342   343   344   345   346   347   348   349   350
    351   352   353   354   355   356   359   362   357   360
    363   358   361   364   365   366   367   368   369   370
    371   372   373   374   375   376   377   378   379   380

    SFO  (index         Fragment          Generating    Expansion in Fragment Orbitals
  indx  incl.CFs)   Occup   Orb.Energy   FragmentType  Coeff.   Orbital     on Fragment
 --------------------------------------------------------------------------------------
     1       1      2.000       0.096 au  fA            1.00      1 A               1
                        (       2.603 eV)
     2       2       --         0.328 au  fA            1.00      2 A               1
                        (       8.927 eV)
     3       3       --         0.730 au  fA            1.00      3 A               1
                        (      19.877 eV)
     4       4       --         0.730 au  fA            1.00      4 A               1
                        (      19.877 eV)
     5       5       --         0.730 au  fA            1.00      5 A               1
                        (      19.877 eV)
     6       6       --         1.855 au  fA            1.00      6 A               1
                        (      50.479 eV)
     7       7       --         2.938 au  fA            1.00      7 A               1
                        (      79.959 eV)
     8       8       --         2.938 au  fA            1.00      8 A               1
                        (      79.959 eV)
     9       9       --         2.938 au  fA            1.00      9 A               1
                        (      79.959 eV)
    10      10       --         2.938 au  fA            1.00     10 A               1
                        (      79.959 eV)
    11      11       --         2.938 au  fA            1.00     11 A               1
                        (      79.959 eV)
    12      12      2.000    -101.081 au  fB            1.00      1 A               2
                        (   -2750.545 eV)
    13      13      2.000     -14.034 au  fB            1.00      2 A               2
                        (    -381.877 eV)
    14      14      2.000     -10.038 au  fB            1.00      3 A               2
                        (    -273.153 eV)
    15      15      2.000      -9.972 au  fB            1.00      4 A               2
                        (    -271.354 eV)
    16      16      2.000      -9.970 au  fB            1.00      5 A               2
                        (    -271.296 eV)
    17      17      2.000      -9.948 au  fB            1.00      6 A               2
                        (    -270.689 eV)
    18      18      2.000      -9.930 au  fB            1.00      7 A               2
                        (    -270.203 eV)
    19      19      2.000      -9.925 au  fB            1.00      8 A               2
                        (    -270.064 eV)
    20      20      2.000      -9.234 au  fB            1.00      9 A               2
                        (    -251.268 eV)
    21      21      2.000      -7.002 au  fB            1.00     10 A               2
                        (    -190.521 eV)
    22      22      2.000      -6.991 au  fB            1.00     11 A               2
                        (    -190.226 eV)
    23      23      2.000      -6.991 au  fB            1.00     12 A               2
                        (    -190.222 eV)
    24      24      2.000      -0.841 au  fB            1.00     13 A               2
                        (     -22.890 eV)
    25      25      2.000      -0.804 au  fB            1.00     14 A               2
                        (     -21.891 eV)
    26      26      2.000      -0.739 au  fB            1.00     15 A               2
                        (     -20.106 eV)
    27      27      2.000      -0.701 au  fB            1.00     16 A               2
                        (     -19.070 eV)
    28      28      2.000      -0.648 au  fB            1.00     17 A               2
                        (     -17.629 eV)
    29      29      2.000      -0.615 au  fB            1.00     18 A               2
                        (     -16.734 eV)
    30      30      2.000      -0.548 au  fB            1.00     19 A               2
                        (     -14.919 eV)
    31      31      2.000      -0.475 au  fB            1.00     20 A               2
                        (     -12.913 eV)
    32      32      2.000      -0.441 au  fB            1.00     21 A               2
                        (     -11.993 eV)
    33      33      2.000      -0.434 au  fB            1.00     22 A               2
                        (     -11.815 eV)
    34      34      2.000      -0.408 au  fB            1.00     23 A               2
                        (     -11.100 eV)
    35      35      2.000      -0.380 au  fB            1.00     24 A               2
                        (     -10.344 eV)
    36      36      2.000      -0.372 au  fB            1.00     25 A               2
                        (     -10.121 eV)
    37      37      2.000      -0.364 au  fB            1.00     26 A               2
                        (      -9.894 eV)
    38      38      2.000      -0.356 au  fB            1.00     27 A               2
                        (      -9.680 eV)
    39      39      2.000      -0.338 au  fB            1.00     28 A               2
                        (      -9.207 eV)
    40      40      2.000      -0.330 au  fB            1.00     29 A               2
                        (      -8.969 eV)
    41      41      2.000      -0.320 au  fB            1.00     30 A               2
                        (      -8.716 eV)
    42      42      2.000      -0.309 au  fB            1.00     31 A               2
                        (      -8.412 eV)
    43      43      2.000      -0.304 au  fB            1.00     32 A               2
                        (      -8.270 eV)
    44      44      2.000      -0.299 au  fB            1.00     33 A               2
                        (      -8.134 eV)
    45      45      2.000      -0.273 au  fB            1.00     34 A               2
                        (      -7.437 eV)
    46      46      2.000      -0.270 au  fB            1.00     35 A               2
                        (      -7.334 eV)
    47      47       --        -0.095 au  fB            1.00     36 A               2
                        (      -2.574 eV)
    48      48       --        -0.030 au  fB            1.00     37 A               2
                        (      -0.829 eV)
    49      49       --        -0.022 au  fB            1.00     38 A               2
                        (      -0.592 eV)
    50      50       --        -0.002 au  fB            1.00     39 A               2
                        (      -0.056 eV)
    51      51       --         0.009 au  fB            1.00     40 A               2
                        (       0.237 eV)
    52      52       --         0.016 au  fB            1.00     41 A               2
                        (       0.433 eV)
    53      53       --         0.024 au  fB            1.00     42 A               2
                        (       0.647 eV)
    54      54       --         0.042 au  fB            1.00     43 A               2
                        (       1.147 eV)
    55      55       --         0.050 au  fB            1.00     44 A               2
                        (       1.373 eV)
    56      56       --         0.057 au  fB            1.00     45 A               2
                        (       1.540 eV)
    57      57       --         0.061 au  fB            1.00     46 A               2
                        (       1.656 eV)
    58      58       --         0.074 au  fB            1.00     47 A               2
                        (       2.019 eV)
    59      59       --         0.087 au  fB            1.00     48 A               2
                        (       2.370 eV)
    60      60       --         0.098 au  fB            1.00     49 A               2
                        (       2.665 eV)
    61      61       --         0.115 au  fB            1.00     50 A               2
                        (       3.138 eV)
    62      62       --         0.120 au  fB            1.00     51 A               2
                        (       3.259 eV)
    63      63       --         0.131 au  fB            1.00     52 A               2
                        (       3.559 eV)
    64      64       --         0.143 au  fB            1.00     53 A               2
                        (       3.904 eV)
    65      65       --         0.154 au  fB            1.00     54 A               2
                        (       4.187 eV)
    66      66       --         0.159 au  fB            1.00     55 A               2
                        (       4.336 eV)
    67      67       --         0.176 au  fB            1.00     56 A               2
                        (       4.778 eV)
    68      68       --         0.194 au  fB            1.00     57 A               2
                        (       5.290 eV)
    69      69       --         0.199 au  fB            1.00     58 A               2
                        (       5.421 eV)
    70      70       --         0.204 au  fB            1.00     59 A               2
                        (       5.559 eV)
    71      71       --         0.230 au  fB            1.00     60 A               2
                        (       6.253 eV)
    72      72       --         0.237 au  fB            1.00     61 A               2
                        (       6.454 eV)
    73      73       --         0.247 au  fB            1.00     62 A               2
                        (       6.731 eV)
    74      74       --         0.249 au  fB            1.00     63 A               2
                        (       6.780 eV)
    75      75       --         0.270 au  fB            1.00     64 A               2
                        (       7.353 eV)
    76      76       --         0.280 au  fB            1.00     65 A               2
                        (       7.618 eV)
    77      77       --         0.297 au  fB            1.00     66 A               2
                        (       8.095 eV)
    78      78       --         0.311 au  fB            1.00     67 A               2
                        (       8.458 eV)
    79      79       --         0.316 au  fB            1.00     68 A               2
                        (       8.606 eV)
    80      80       --         0.322 au  fB            1.00     69 A               2
                        (       8.755 eV)
    81      81       --         0.334 au  fB            1.00     70 A               2
                        (       9.099 eV)
    82      82       --         0.345 au  fB            1.00     71 A               2
                        (       9.379 eV)
    83      83       --         0.360 au  fB            1.00     72 A               2
                        (       9.784 eV)
    84      84       --         0.374 au  fB            1.00     73 A               2
                        (      10.183 eV)
    85      85       --         0.382 au  fB            1.00     74 A               2
                        (      10.385 eV)
    86      86       --         0.387 au  fB            1.00     75 A               2
                        (      10.535 eV)
    87      87       --         0.401 au  fB            1.00     76 A               2
                        (      10.914 eV)
    88      88       --         0.403 au  fB            1.00     77 A               2
                        (      10.978 eV)
    89      89       --         0.411 au  fB            1.00     78 A               2
                        (      11.183 eV)
    90      90       --         0.426 au  fB            1.00     79 A               2
                        (      11.600 eV)
    91      91       --         0.434 au  fB            1.00     80 A               2
                        (      11.800 eV)
    92      92       --         0.449 au  fB            1.00     81 A               2
                        (      12.217 eV)
    93      93       --         0.463 au  fB            1.00     82 A               2
                        (      12.602 eV)
    94      94       --         0.464 au  fB            1.00     83 A               2
                        (      12.631 eV)
    95      95       --         0.484 au  fB            1.00     84 A               2
                        (      13.173 eV)
    96      96       --         0.498 au  fB            1.00     85 A               2
                        (      13.538 eV)
    97      97       --         0.503 au  fB            1.00     86 A               2
                        (      13.684 eV)
    98      98       --         0.538 au  fB            1.00     87 A               2
                        (      14.650 eV)
    99      99       --         0.561 au  fB            1.00     88 A               2
                        (      15.257 eV)
   100     100       --         0.579 au  fB            1.00     89 A               2
                        (      15.760 eV)
   101     101       --         0.614 au  fB            1.00     90 A               2
                        (      16.713 eV)
   102     102       --         0.635 au  fB            1.00     91 A               2
                        (      17.278 eV)
   103     103       --         0.654 au  fB            1.00     92 A               2
                        (      17.807 eV)
   104     104       --         0.663 au  fB            1.00     93 A               2
                        (      18.035 eV)
   105     105       --         0.715 au  fB            1.00     94 A               2
                        (      19.451 eV)
   106     106       --         0.750 au  fB            1.00     95 A               2
                        (      20.405 eV)
   107     107       --         0.765 au  fB            1.00     96 A               2
                        (      20.830 eV)
   108     108       --         0.784 au  fB            1.00     97 A               2
                        (      21.342 eV)
   109     109       --         0.815 au  fB            1.00     98 A               2
                        (      22.190 eV)
   110     110       --         0.846 au  fB            1.00     99 A               2
                        (      23.025 eV)
   111     111       --         0.858 au  fB            1.00    100 A               2
                        (      23.346 eV)
   112     112       --         0.887 au  fB            1.00    101 A               2
                        (      24.135 eV)
   113     113       --         0.903 au  fB            1.00    102 A               2
                        (      24.562 eV)
   114     114       --         0.943 au  fB            1.00    103 A               2
                        (      25.656 eV)
   115     115       --         0.959 au  fB            1.00    104 A               2
                        (      26.096 eV)
   116     116       --         0.966 au  fB            1.00    105 A               2
                        (      26.275 eV)
   117     117       --         0.976 au  fB            1.00    106 A               2
                        (      26.546 eV)
   118     118       --         0.988 au  fB            1.00    107 A               2
                        (      26.896 eV)
   119     119       --         1.017 au  fB            1.00    108 A               2
                        (      27.679 eV)
   120     120       --         1.039 au  fB            1.00    109 A               2
                        (      28.265 eV)
   121     121       --         1.053 au  fB            1.00    110 A               2
                        (      28.651 eV)
   122     122       --         1.063 au  fB            1.00    111 A               2
                        (      28.930 eV)
   123     123       --         1.064 au  fB            1.00    112 A               2
                        (      28.949 eV)
   124     124       --         1.100 au  fB            1.00    113 A               2
                        (      29.922 eV)
   125     125       --         1.104 au  fB            1.00    114 A               2
                        (      30.044 eV)
   126     126       --         1.123 au  fB            1.00    115 A               2
                        (      30.550 eV)
   127     127       --         1.137 au  fB            1.00    116 A               2
                        (      30.945 eV)
   128     128       --         1.150 au  fB            1.00    117 A               2
                        (      31.281 eV)
   129     129       --         1.174 au  fB            1.00    118 A               2
                        (      31.953 eV)
   130     130       --         1.186 au  fB            1.00    119 A               2
                        (      32.278 eV)
   131     131       --         1.188 au  fB            1.00    120 A               2
                        (      32.315 eV)
   132     132       --         1.214 au  fB            1.00    121 A               2
                        (      33.048 eV)
   133     133       --         1.224 au  fB            1.00    122 A               2
                        (      33.298 eV)
   134     134       --         1.233 au  fB            1.00    123 A               2
                        (      33.548 eV)
   135     135       --         1.244 au  fB            1.00    124 A               2
                        (      33.838 eV)
   136     136       --         1.251 au  fB            1.00    125 A               2
                        (      34.051 eV)
   137     137       --         1.268 au  fB            1.00    126 A               2
                        (      34.495 eV)
   138     138       --         1.282 au  fB            1.00    127 A               2
                        (      34.893 eV)
   139     139       --         1.289 au  fB            1.00    128 A               2
                        (      35.077 eV)
   140     140       --         1.332 au  fB            1.00    129 A               2
                        (      36.259 eV)
   141     141       --         1.335 au  fB            1.00    130 A               2
                        (      36.315 eV)
   142     142       --         1.345 au  fB            1.00    131 A               2
                        (      36.599 eV)
   143     143       --         1.365 au  fB            1.00    132 A               2
                        (      37.140 eV)
   144     144       --         1.388 au  fB            1.00    133 A               2
                        (      37.776 eV)
   145     145       --         1.411 au  fB            1.00    134 A               2
                        (      38.406 eV)
   146     146       --         1.425 au  fB            1.00    135 A               2
                        (      38.767 eV)
   147     147       --         1.443 au  fB            1.00    136 A               2
                        (      39.272 eV)
   148     148       --         1.463 au  fB            1.00    137 A               2
                        (      39.798 eV)
   149     149       --         1.485 au  fB            1.00    138 A               2
                        (      40.412 eV)
   150     150       --         1.502 au  fB            1.00    139 A               2
                        (      40.881 eV)
   151     151       --         1.528 au  fB            1.00    140 A               2
                        (      41.590 eV)
   152     152       --         1.551 au  fB            1.00    141 A               2
                        (      42.207 eV)
   153     153       --         1.568 au  fB            1.00    142 A               2
                        (      42.655 eV)
   154     154       --         1.602 au  fB            1.00    143 A               2
                        (      43.601 eV)
   155     155       --         1.645 au  fB            1.00    144 A               2
                        (      44.766 eV)
   156     156       --         1.663 au  fB            1.00    145 A               2
                        (      45.262 eV)
   157     157       --         1.694 au  fB            1.00    146 A               2
                        (      46.087 eV)
   158     158       --         1.711 au  fB            1.00    147 A               2
                        (      46.558 eV)
   159     159       --         1.729 au  fB            1.00    148 A               2
                        (      47.041 eV)
   160     160       --         1.745 au  fB            1.00    149 A               2
                        (      47.474 eV)
   161     161       --         1.767 au  fB            1.00    150 A               2
                        (      48.092 eV)
   162     162       --         1.807 au  fB            1.00    151 A               2
                        (      49.184 eV)
   163     163       --         1.818 au  fB            1.00    152 A               2
                        (      49.469 eV)
   164     164       --         1.859 au  fB            1.00    153 A               2
                        (      50.581 eV)
   165     165       --         1.873 au  fB            1.00    154 A               2
                        (      50.969 eV)
   166     166       --         1.876 au  fB            1.00    155 A               2
                        (      51.036 eV)
   167     167       --         1.920 au  fB            1.00    156 A               2
                        (      52.240 eV)
   168     168       --         1.924 au  fB            1.00    157 A               2
                        (      52.347 eV)
   169     169       --         1.955 au  fB            1.00    158 A               2
                        (      53.207 eV)
   170     170       --         1.986 au  fB            1.00    159 A               2
                        (      54.053 eV)
   171     171       --         1.994 au  fB            1.00    160 A               2
                        (      54.259 eV)
   172     172       --         2.062 au  fB            1.00    161 A               2
                        (      56.110 eV)
   173     173       --         2.101 au  fB            1.00    162 A               2
                        (      57.184 eV)
   174     174       --         2.110 au  fB            1.00    163 A               2
                        (      57.414 eV)
   175     175       --         2.124 au  fB            1.00    164 A               2
                        (      57.808 eV)
   176     176       --         2.146 au  fB            1.00    165 A               2
                        (      58.405 eV)
   177     177       --         2.186 au  fB            1.00    166 A               2
                        (      59.489 eV)
   178     178       --         2.202 au  fB            1.00    167 A               2
                        (      59.918 eV)
   179     179       --         2.243 au  fB            1.00    168 A               2
                        (      61.031 eV)
   180     180       --         2.256 au  fB            1.00    169 A               2
                        (      61.385 eV)
   181     181       --         2.296 au  fB            1.00    170 A               2
                        (      62.467 eV)
   182     182       --         2.307 au  fB            1.00    171 A               2
                        (      62.764 eV)
   183     183       --         2.335 au  fB            1.00    172 A               2
                        (      63.529 eV)
   184     184       --         2.352 au  fB            1.00    173 A               2
                        (      63.993 eV)
   185     185       --         2.384 au  fB            1.00    174 A               2
                        (      64.882 eV)
   186     186       --         2.435 au  fB            1.00    175 A               2
                        (      66.260 eV)
   187     187       --         2.442 au  fB            1.00    176 A               2
                        (      66.445 eV)
   188     188       --         2.466 au  fB            1.00    177 A               2
                        (      67.116 eV)
   189     189       --         2.489 au  fB            1.00    178 A               2
                        (      67.734 eV)
   190     190       --         2.508 au  fB            1.00    179 A               2
                        (      68.254 eV)
   191     191       --         2.536 au  fB            1.00    180 A               2
                        (      69.000 eV)
   192     192       --         2.568 au  fB            1.00    181 A               2
                        (      69.875 eV)
   193     193       --         2.627 au  fB            1.00    182 A               2
                        (      71.488 eV)
   194     194       --         2.633 au  fB            1.00    183 A               2
                        (      71.641 eV)
   195     195       --         2.672 au  fB            1.00    184 A               2
                        (      72.719 eV)
   196     196       --         2.690 au  fB            1.00    185 A               2
                        (      73.200 eV)
   197     197       --         2.729 au  fB            1.00    186 A               2
                        (      74.268 eV)
   198     198       --         2.746 au  fB            1.00    187 A               2
                        (      74.725 eV)
   199     199       --         2.763 au  fB            1.00    188 A               2
                        (      75.178 eV)
   200     200       --         2.808 au  fB            1.00    189 A               2
                        (      76.397 eV)
   201     201       --         2.822 au  fB            1.00    190 A               2
                        (      76.777 eV)
   202     202       --         2.846 au  fB            1.00    191 A               2
                        (      77.439 eV)
   203     203       --         2.864 au  fB            1.00    192 A               2
                        (      77.926 eV)
   204     204       --         2.871 au  fB            1.00    193 A               2
                        (      78.120 eV)
   205     205       --         2.886 au  fB            1.00    194 A               2
                        (      78.520 eV)
   206     206       --         2.903 au  fB            1.00    195 A               2
                        (      78.987 eV)
   207     207       --         2.930 au  fB            1.00    196 A               2
                        (      79.740 eV)
   208     208       --         2.950 au  fB            1.00    197 A               2
                        (      80.263 eV)
   209     209       --         2.962 au  fB            1.00    198 A               2
                        (      80.590 eV)
   210     210       --         2.968 au  fB            1.00    199 A               2
                        (      80.757 eV)
   211     211       --         3.005 au  fB            1.00    200 A               2
                        (      81.782 eV)
   212     212       --         3.023 au  fB            1.00    201 A               2
                        (      82.249 eV)
   213     213       --         3.064 au  fB            1.00    202 A               2
                        (      83.378 eV)
   214     214       --         3.079 au  fB            1.00    203 A               2
                        (      83.784 eV)
   215     215       --         3.087 au  fB            1.00    204 A               2
                        (      83.993 eV)
   216     216       --         3.132 au  fB            1.00    205 A               2
                        (      85.229 eV)
   217     217       --         3.162 au  fB            1.00    206 A               2
                        (      86.043 eV)
   218     218       --         3.194 au  fB            1.00    207 A               2
                        (      86.908 eV)
   219     219       --         3.197 au  fB            1.00    208 A               2
                        (      87.006 eV)
   220     220       --         3.261 au  fB            1.00    209 A               2
                        (      88.743 eV)
   221     221       --         3.303 au  fB            1.00    210 A               2
                        (      89.874 eV)
   222     222       --         3.331 au  fB            1.00    211 A               2
                        (      90.655 eV)
   223     223       --         3.372 au  fB            1.00    212 A               2
                        (      91.757 eV)
   224     224       --         3.394 au  fB            1.00    213 A               2
                        (      92.364 eV)
   225     225       --         3.419 au  fB            1.00    214 A               2
                        (      93.026 eV)
   226     226       --         3.429 au  fB            1.00    215 A               2
                        (      93.312 eV)
   227     227       --         3.443 au  fB            1.00    216 A               2
                        (      93.678 eV)
   228     228       --         3.473 au  fB            1.00    217 A               2
                        (      94.517 eV)
   229     229       --         3.499 au  fB            1.00    218 A               2
                        (      95.211 eV)
   230     230       --         3.528 au  fB            1.00    219 A               2
                        (      96.001 eV)
   231     231       --         3.557 au  fB            1.00    220 A               2
                        (      96.781 eV)
   232     232       --         3.565 au  fB            1.00    221 A               2
                        (      97.015 eV)
   233     233       --         3.575 au  fB            1.00    222 A               2
                        (      97.289 eV)
   234     234       --         3.588 au  fB            1.00    223 A               2
                        (      97.643 eV)
   235     235       --         3.638 au  fB            1.00    224 A               2
                        (      99.000 eV)
   236     236       --         3.657 au  fB            1.00    225 A               2
                        (      99.514 eV)
   237     237       --         3.679 au  fB            1.00    226 A               2
                        (     100.118 eV)
   238     238       --         3.724 au  fB            1.00    227 A               2
                        (     101.326 eV)
   239     239       --         3.757 au  fB            1.00    228 A               2
                        (     102.239 eV)
   240     240       --         3.797 au  fB            1.00    229 A               2
                        (     103.325 eV)
   241     241       --         3.813 au  fB            1.00    230 A               2
                        (     103.758 eV)
   242     242       --         3.829 au  fB            1.00    231 A               2
                        (     104.186 eV)
   243     243       --         3.852 au  fB            1.00    232 A               2
                        (     104.831 eV)
   244     244       --         3.893 au  fB            1.00    233 A               2
                        (     105.933 eV)
   245     245       --         3.903 au  fB            1.00    234 A               2
                        (     106.217 eV)
   246     246       --         3.921 au  fB            1.00    235 A               2
                        (     106.706 eV)
   247     247       --         3.970 au  fB            1.00    236 A               2
                        (     108.018 eV)
   248     248       --         4.014 au  fB            1.00    237 A               2
                        (     109.233 eV)
   249     249       --         4.094 au  fB            1.00    238 A               2
                        (     111.409 eV)
   250     250       --         4.153 au  fB            1.00    239 A               2
                        (     112.997 eV)
   251     251       --         4.221 au  fB            1.00    240 A               2
                        (     114.858 eV)
   252     252       --         4.238 au  fB            1.00    241 A               2
                        (     115.321 eV)
   253     253       --         4.295 au  fB            1.00    242 A               2
                        (     116.868 eV)
   254     254       --         4.356 au  fB            1.00    243 A               2
                        (     118.520 eV)
   255     255       --         4.370 au  fB            1.00    244 A               2
                        (     118.921 eV)
   256     256       --         4.391 au  fB            1.00    245 A               2
                        (     119.478 eV)
   257     257       --         4.412 au  fB            1.00    246 A               2
                        (     120.044 eV)
   258     258       --         4.457 au  fB            1.00    247 A               2
                        (     121.287 eV)
   259     259       --         4.474 au  fB            1.00    248 A               2
                        (     121.757 eV)
   260     260       --         4.526 au  fB            1.00    249 A               2
                        (     123.153 eV)
   261     261       --         4.582 au  fB            1.00    250 A               2
                        (     124.678 eV)
   262     262       --         4.600 au  fB            1.00    251 A               2
                        (     125.176 eV)
   263     263       --         4.629 au  fB            1.00    252 A               2
                        (     125.965 eV)
   264     264       --         4.662 au  fB            1.00    253 A               2
                        (     126.872 eV)
   265     265       --         4.679 au  fB            1.00    254 A               2
                        (     127.331 eV)
   266     266       --         4.710 au  fB            1.00    255 A               2
                        (     128.173 eV)
   267     267       --         4.768 au  fB            1.00    256 A               2
                        (     129.734 eV)
   268     268       --         4.789 au  fB            1.00    257 A               2
                        (     130.313 eV)
   269     269       --         4.843 au  fB            1.00    258 A               2
                        (     131.772 eV)
   270     270       --         4.909 au  fB            1.00    259 A               2
                        (     133.574 eV)
   271     271       --         4.937 au  fB            1.00    260 A               2
                        (     134.341 eV)
   272     272       --         4.951 au  fB            1.00    261 A               2
                        (     134.712 eV)
   273     273       --         5.014 au  fB            1.00    262 A               2
                        (     136.427 eV)
   274     274       --         5.044 au  fB            1.00    263 A               2
                        (     137.242 eV)
   275     275       --         5.138 au  fB            1.00    264 A               2
                        (     139.819 eV)
   276     276       --         5.157 au  fB            1.00    265 A               2
                        (     140.327 eV)
   277     277       --         5.237 au  fB            1.00    266 A               2
                        (     142.509 eV)
   278     278       --         5.300 au  fB            1.00    267 A               2
                        (     144.207 eV)
   279     279       --         5.357 au  fB            1.00    268 A               2
                        (     145.779 eV)
   280     280       --         5.420 au  fB            1.00    269 A               2
                        (     147.493 eV)
   281     281       --         5.435 au  fB            1.00    270 A               2
                        (     147.898 eV)
   282     282       --         5.539 au  fB            1.00    271 A               2
                        (     150.735 eV)
   283     283       --         5.573 au  fB            1.00    272 A               2
                        (     151.645 eV)
   284     284       --         5.590 au  fB            1.00    273 A               2
                        (     152.106 eV)
   285     285       --         5.595 au  fB            1.00    274 A               2
                        (     152.257 eV)
   286     286       --         5.604 au  fB            1.00    275 A               2
                        (     152.487 eV)
   287     287       --         5.718 au  fB            1.00    276 A               2
                        (     155.602 eV)
   288     288       --         5.750 au  fB            1.00    277 A               2
                        (     156.462 eV)
   289     289       --         5.908 au  fB            1.00    278 A               2
                        (     160.774 eV)
   290     290       --         5.980 au  fB            1.00    279 A               2
                        (     162.733 eV)
   291     291       --         6.193 au  fB            1.00    280 A               2
                        (     168.516 eV)
   292     292       --         6.226 au  fB            1.00    281 A               2
                        (     169.418 eV)
   293     293       --         6.241 au  fB            1.00    282 A               2
                        (     169.822 eV)
   294     294       --         6.281 au  fB            1.00    283 A               2
                        (     170.915 eV)
   295     295       --         6.365 au  fB            1.00    284 A               2
                        (     173.206 eV)
   296     296       --         6.440 au  fB            1.00    285 A               2
                        (     175.241 eV)
   297     297       --         6.475 au  fB            1.00    286 A               2
                        (     176.183 eV)
   298     298       --         6.513 au  fB            1.00    287 A               2
                        (     177.219 eV)
   299     299       --         6.542 au  fB            1.00    288 A               2
                        (     178.019 eV)
   300     300       --         6.561 au  fB            1.00    289 A               2
                        (     178.539 eV)
   301     301       --         6.599 au  fB            1.00    290 A               2
                        (     179.570 eV)
   302     302       --         6.628 au  fB            1.00    291 A               2
                        (     180.351 eV)
   303     303       --         6.644 au  fB            1.00    292 A               2
                        (     180.799 eV)
   304     304       --         6.647 au  fB            1.00    293 A               2
                        (     180.885 eV)
   305     305       --         6.787 au  fB            1.00    294 A               2
                        (     184.697 eV)
   306     306       --         6.869 au  fB            1.00    295 A               2
                        (     186.927 eV)
   307     307       --         7.029 au  fB            1.00    296 A               2
                        (     191.260 eV)
   308     308       --         7.198 au  fB            1.00    297 A               2
                        (     195.858 eV)
   309     309       --         7.251 au  fB            1.00    298 A               2
                        (     197.313 eV)
   310     310       --         7.302 au  fB            1.00    299 A               2
                        (     198.701 eV)
   311     311       --         7.424 au  fB            1.00    300 A               2
                        (     202.006 eV)
   312     312       --         7.447 au  fB            1.00    301 A               2
                        (     202.634 eV)
   313     313       --         7.509 au  fB            1.00    302 A               2
                        (     204.320 eV)
   314     314       --         7.550 au  fB            1.00    303 A               2
                        (     205.433 eV)
   315     315       --         7.571 au  fB            1.00    304 A               2
                        (     206.028 eV)
   316     316       --         7.598 au  fB            1.00    305 A               2
                        (     206.748 eV)
   317     317       --         7.685 au  fB            1.00    306 A               2
                        (     209.109 eV)
   318     318       --         7.769 au  fB            1.00    307 A               2
                        (     211.409 eV)
   319     319       --         7.875 au  fB            1.00    308 A               2
                        (     214.291 eV)
   320     320       --         8.046 au  fB            1.00    309 A               2
                        (     218.956 eV)
   321     321       --         8.686 au  fB            1.00    310 A               2
                        (     236.354 eV)
   322     322       --         8.784 au  fB            1.00    311 A               2
                        (     239.017 eV)
   323     323       --         9.164 au  fB            1.00    312 A               2
                        (     249.366 eV)
   324     324       --         9.275 au  fB            1.00    313 A               2
                        (     252.380 eV)
   325     325       --        11.445 au  fB            1.00    314 A               2
                        (     311.446 eV)
   326     326       --        14.113 au  fB            1.00    315 A               2
                        (     384.042 eV)
   327     327       --        19.151 au  fB            1.00    316 A               2
                        (     521.119 eV)
   328     328       --        19.208 au  fB            1.00    317 A               2
                        (     522.682 eV)
   329     329       --        19.825 au  fB            1.00    318 A               2
                        (     539.461 eV)
   330     330       --        53.963 au  fB            1.00    319 A               2
                        (    1468.410 eV)
   331     331       --        56.605 au  fB            1.00    320 A               2
                        (    1540.312 eV)
   332     332       --        57.048 au  fB            1.00    321 A               2
                        (    1552.350 eV)
   333     333       --        58.359 au  fB            1.00    322 A               2
                        (    1588.026 eV)
   334     334       --        58.797 au  fB            1.00    323 A               2
                        (    1599.936 eV)
   335     335       --        60.221 au  fB            1.00    324 A               2
                        (    1638.704 eV)
   336     336       --        69.991 au  fB            1.00    325 A               2
                        (    1904.545 eV)
   337     337       --       210.504 au  fB            1.00    326 A               2
                        (    5728.116 eV)



 ================================
 (Slater-type)  F U N C T I O N S  ***  (Basis and Fit)  ***
 ================================
  

 Atom Type    1  (H)
 ==============

 Valence Basis Sets:   5
 -----------------------
   1 S    0.690000
   1 S    0.920000
   1 S    1.580000
   2 P    1.250000
   3 D    2.500000

 Atom Type    2  (C)
 ==============

 Valence Basis Sets:  10
 -----------------------
   1 S    7.680000
   1 S    5.000000
   2 S    1.280000
   2 S    2.100000
   2 S    4.600000
   2 P    0.820000
   2 P    1.480000
   2 P    2.940000
   3 D    2.200000
   4 F    3.300000

 Atom Type    3  (Cl)
 ==============

 Valence Basis Sets:  14
 -----------------------
   1 S   20.300000
   1 S   15.250000
   2 S    6.250000
   2 S    4.450000
   2 P    8.850000
   2 P    5.050000
   3 S    3.450000
   3 S    2.300000
   3 S    1.600000
   3 P    3.350000
   3 P    2.050000
   3 P    1.200000
   3 D    2.000000
   4 F    2.000000

 Atom Type    4  (H)
 ==============

 Valence Basis Sets:   5
 -----------------------
   1 S    0.690000
   1 S    0.920000
   1 S    1.580000
   2 P    1.250000
   3 D    2.500000

 Atom Type    5  (N)
 ==============

 Valence Basis Sets:  10
 -----------------------
   1 S    8.740000
   1 S    5.900000
   2 S    5.150000
   2 S    2.500000
   2 S    1.500000
   2 P    3.680000
   2 P    1.880000
   2 P    1.000000
   3 D    2.200000
   4 F    3.300000


 BAS: List of all Elementary Cartesian Basis Functions
 =====================================================

 The numbering in the list below (to the right of the function characteristics) is referred
 to in print-outs of MO eigenvectors and Mulliken populations in the BAS representation
 (as contrasted to the SFO representation).

 Notes:
 1. The functions are characterized by a polynomial prefactor (powers of x,y,z and r) and
    an exponential decay factor alpha.
 2. Since the basis sets are specific for an atom TYPE, the individual functions occur on
    all atoms of that type.
 3. The word 'Core' in the left margin signals that it is a Core Function (CF) : not a
    degree of freedom in the valence set, but only used to ensure orthogonalization of
    the other valence basis functions on the frozen Core Orbitals.


 (power of) X  Y  Z  R     Alpha  on Atom
            ==========     =====     ==========

 H                                    1
                                  ---------------------------------------------------------------------------
            0  0  0  0     0.690      1
            0  0  0  0     0.920      2
            0  0  0  0     1.580      3
            1  0  0  0     1.250      4
            0  1  0  0     1.250      5
            0  0  1  0     1.250      6
            2  0  0  0     2.500      7
            1  1  0  0     2.500      8
            1  0  1  0     2.500      9
            0  2  0  0     2.500     10
            0  1  1  0     2.500     11
            0  0  2  0     2.500     12

 C                                    2    3    4    5    6    7
                                  ---------------------------------------------------------------------------
            0  0  0  0     7.680     13   43   73  103  133  163
            0  0  0  0     5.000     14   44   74  104  134  164
            0  0  0  1     1.280     15   45   75  105  135  165
            0  0  0  1     2.100     16   46   76  106  136  166
            0  0  0  1     4.600     17   47   77  107  137  167
            1  0  0  0     0.820     18   48   78  108  138  168
            0  1  0  0     0.820     19   49   79  109  139  169
            0  0  1  0     0.820     20   50   80  110  140  170
            1  0  0  0     1.480     21   51   81  111  141  171
            0  1  0  0     1.480     22   52   82  112  142  172
            0  0  1  0     1.480     23   53   83  113  143  173
            1  0  0  0     2.940     24   54   84  114  144  174
            0  1  0  0     2.940     25   55   85  115  145  175
            0  0  1  0     2.940     26   56   86  116  146  176
            2  0  0  0     2.200     27   57   87  117  147  177
            1  1  0  0     2.200     28   58   88  118  148  178
            1  0  1  0     2.200     29   59   89  119  149  179
            0  2  0  0     2.200     30   60   90  120  150  180
            0  1  1  0     2.200     31   61   91  121  151  181
            0  0  2  0     2.200     32   62   92  122  152  182
            3  0  0  0     3.300     33   63   93  123  153  183
            2  1  0  0     3.300     34   64   94  124  154  184
            2  0  1  0     3.300     35   65   95  125  155  185
            1  2  0  0     3.300     36   66   96  126  156  186
            1  1  1  0     3.300     37   67   97  127  157  187
            1  0  2  0     3.300     38   68   98  128  158  188
            0  3  0  0     3.300     39   69   99  129  159  189
            0  2  1  0     3.300     40   70  100  130  160  190
            0  1  2  0     3.300     41   71  101  131  161  191
            0  0  3  0     3.300     42   72  102  132  162  192

 Cl                                   8
                                  ---------------------------------------------------------------------------
            0  0  0  0    20.300    193
            0  0  0  0    15.250    194
            0  0  0  1     6.250    195
            0  0  0  1     4.450    196
            1  0  0  0     8.850    197
            0  1  0  0     8.850    198
            0  0  1  0     8.850    199
            1  0  0  0     5.050    200
            0  1  0  0     5.050    201
            0  0  1  0     5.050    202
            0  0  0  2     3.450    203
            0  0  0  2     2.300    204
            0  0  0  2     1.600    205
            1  0  0  1     3.350    206
            0  1  0  1     3.350    207
            0  0  1  1     3.350    208
            1  0  0  1     2.050    209
            0  1  0  1     2.050    210
            0  0  1  1     2.050    211
            1  0  0  1     1.200    212
            0  1  0  1     1.200    213
            0  0  1  1     1.200    214
            2  0  0  0     2.000    215
            1  1  0  0     2.000    216
            1  0  1  0     2.000    217
            0  2  0  0     2.000    218
            0  1  1  0     2.000    219
            0  0  2  0     2.000    220
            3  0  0  0     2.000    221
            2  1  0  0     2.000    222
            2  0  1  0     2.000    223
            1  2  0  0     2.000    224
            1  1  1  0     2.000    225
            1  0  2  0     2.000    226
            0  3  0  0     2.000    227
            0  2  1  0     2.000    228
            0  1  2  0     2.000    229
            0  0  3  0     2.000    230

 H                                    9   10   11   12   13   14   15   16   17   18
                                  ---------------------------------------------------------------------------
            0  0  0  0     0.690    231  243  255  267  279  291  303  315  327  339
            0  0  0  0     0.920    232  244  256  268  280  292  304  316  328  340
            0  0  0  0     1.580    233  245  257  269  281  293  305  317  329  341
            1  0  0  0     1.250    234  246  258  270  282  294  306  318  330  342
            0  1  0  0     1.250    235  247  259  271  283  295  307  319  331  343
            0  0  1  0     1.250    236  248  260  272  284  296  308  320  332  344
            2  0  0  0     2.500    237  249  261  273  285  297  309  321  333  345
            1  1  0  0     2.500    238  250  262  274  286  298  310  322  334  346
            1  0  1  0     2.500    239  251  263  275  287  299  311  323  335  347
            0  2  0  0     2.500    240  252  264  276  288  300  312  324  336  348
            0  1  1  0     2.500    241  253  265  277  289  301  313  325  337  349
            0  0  2  0     2.500    242  254  266  278  290  302  314  326  338  350

 N                                   19
                                  ---------------------------------------------------------------------------
            0  0  0  0     8.740    351
            0  0  0  0     5.900    352
            0  0  0  1     5.150    353
            0  0  0  1     2.500    354
            0  0  0  1     1.500    355
            1  0  0  0     3.680    356
            0  1  0  0     3.680    357
            0  0  1  0     3.680    358
            1  0  0  0     1.880    359
            0  1  0  0     1.880    360
            0  0  1  0     1.880    361
            1  0  0  0     1.000    362
            0  1  0  0     1.000    363
            0  0  1  0     1.000    364
            2  0  0  0     2.200    365
            1  1  0  0     2.200    366
            1  0  1  0     2.200    367
            0  2  0  0     2.200    368
            0  1  1  0     2.200    369
            0  0  2  0     2.200    370
            3  0  0  0     3.300    371
            2  1  0  0     3.300    372
            2  0  1  0     3.300    373
            1  2  0  0     3.300    374
            1  1  1  0     3.300    375
            1  0  2  0     3.300    376
            0  3  0  0     3.300    377
            0  2  1  0     3.300    378
            0  1  2  0     3.300    379
            0  0  3  0     3.300    380

 Total number of charge fitting functions (nprimf)      1244
 Total number of Cartesian basis functions (naos)        380
 Total number of Cartesian core functions  (ncos)          0

 ***************************************************************************************************



                                              ***********************
                                              *  T E C H N I C A L  *
                                              ***********************
  



 =============================================================
 P A R A L L E L I Z A T I O N  and  V E C T O R I Z A T I O N
 =============================================================
  
 Nr of parallel processes:                                1
 Maximum vector length in NumInt loops:                 128



 =====================
 S C F   U P D A T E S
 =====================
  
 Max. nr. of cycles:                               200
 Convergence criterion:                              0.0000010000
   secondary criterion:                              0.0010000000

 Mix parameter (when DIIS does not apply):           0.2000000000
 Mixed ADIIS+SDIIS will be used                  
    Max number of expansion vectors:                10
    Pure ADIIS when Max([F,P]) is above              0.1000000000
    Pure SDIIS when Max([F,P]) is below              0.0010000000
 Automatic ElectronSmearing (in case of problematic SCF convergence) disabled



 =================
 P R E C I S I O N  ***  (General: NumInt, NeglectFunctionTails, ...)  ***
 =================
  

 NumInt:           Target precision:                 4.0000000000
 -------           Initial precision:                4.0000000000
                   Min. precision (optimization):    4.0000000000

 Neglect Functions:          Basis functions:        0.1000000000E-05
 ------------------          Fit functions:          0.1000000000E-05



 ===========================
 L I N E A R   S C A L I N G
 ===========================
  

 Cut-off radii density fit:                        0.1000000000E-07
 Overlap cut-off criterion AO matrix elements:     0.1000000000E-05
 Cut-offs for Coulomb potential and fitted density:0.1000000000E-07
 Cut-off criterion for Coulomb multipole terms:    0.1000000000E-07
 Progressive Convergence parameter:                 0.000000000    
 ***************************************************************************************************



                                            ***************************
                                            *  C O M P U T A T I O N  *
                                            ***************************
  

 Number of elements of the density matrix on this node (used, total):     72390     72390



 ===========================================
 Numerical Integration : Fuzzy Cells (Becke)
 ===========================================
  
 Becke grid quality: NORMAL         
  
 Lebedev angular grid order:             min:  11 max:  23
 Nr. of radial points:                   min:  46 max:  67

 Total nr. of points:     123789
 Nr. of blocks:              968
 Block length:               128
 Nr. of dummy points:        115


 Test of Precision of the Numerical Integration Grid
 ===================================================

 Integral of the Total Core Density:                   0.00000000000000



 ========================
 Density Fitting (zlmFit)
 ========================
  
 ZlmFit Fit Quality: NORMAL         
  
 Max L-expansion:                        min:   6 max:   7
 Nr. of radial interpolation points:     min:  39 max:  60



 =====
 S C F  ***  ScaSCF  ***
 =====
  
 Initial density matrix is calculated as sum of fragments

 CYCLE    1
 SCF Error: norm([F,P])=      0.585496828557, max([F,P])=      0.290888399755
 orbitals (Q,E):
 ---------------
 A :27...46          ( 2.00    -0.2041)  ( 2.00    -0.1989)  ( 2.00    -0.1901)  ( 2.00    -0.1769)
                     ( 2.00    -0.1672)  ( 2.00    -0.1603)  ( 2.00    -0.1595)  ( 2.00    -0.1509)
                     ( 2.00    -0.1168)  ( 2.00     0.0351)  ( 0.00     0.0796)  ( 0.00     0.1050)
                     ( 0.00     0.1144)  ( 0.00     0.1291)  ( 0.00     0.1398)  ( 0.00     0.1456)
                     ( 0.00     0.1676)  ( 0.00     0.1706)  ( 0.00     0.1810)  ( 0.00     0.1938)

 CYCLE    2
  SDIIS (wt  0.000):  0.7118  0.2882
 A-DIIS (wt  1.000):  0.9938  0.0062
  DIIS coefficients:  0.9938  0.0062
 SCF Error: norm([F,P])=      0.983318173635, max([F,P])=      0.444981135811
 orbitals (Q,E):
 ---------------
 A :27...37          ( 2.00    -0.2038)  ( 2.00    -0.1981)  ( 2.00    -0.1894)  ( 2.00    -0.1760)
                     ( 2.00    -0.1658)  ( 2.00    -0.1593)  ( 2.00    -0.1582)  ( 2.00    -0.1503)
                     ( 2.00    -0.1177)  ( 2.00     0.0358)  ( 0.00     0.0781)

 CYCLE    3
  SDIIS (wt  0.000):  0.6631 -2.0000  2.3369
 A-DIIS (wt  1.000):  0.9934  0.0000  0.0066
  DIIS coefficients:  0.9934  0.0000  0.0066
 SCF Error: norm([F,P])=      0.956722061873, max([F,P])=      0.451312620623
 orbitals (Q,E):
 ---------------
 A :27...37          ( 2.00    -0.2038)  ( 2.00    -0.1981)  ( 2.00    -0.1894)  ( 2.00    -0.1760)
                     ( 2.00    -0.1658)  ( 2.00    -0.1593)  ( 2.00    -0.1582)  ( 2.00    -0.1503)
                     ( 2.00    -0.1177)  ( 2.00     0.0358)  ( 0.00     0.0781)

 CYCLE    4
  SDIIS (wt  0.000): -2.0000  3.0000
 A-DIIS (wt  1.000):  0.0000  1.0000
  DIIS coefficients:  0.0000  1.0000
 SCF Error: norm([F,P])=      0.956290382018, max([F,P])=      0.451399827075
 orbitals (Q,E):
 ---------------
 A :27...37          ( 2.00    -0.1979)  ( 2.00    -0.1931)  ( 2.00    -0.1329)  ( 2.00    -0.1181)
                     ( 2.00    -0.0281)  ( 2.00    -0.0217)  ( 2.00    -0.0118)  ( 2.00     0.0359)
                     ( 2.00     0.0519)  ( 2.00     0.0653)  ( 0.00     0.0821)

 CYCLE    5
  SDIIS (wt  0.000): -2.0000  2.8832  0.1168
 A-DIIS (wt  1.000):  0.0000  0.9155  0.0845
  DIIS coefficients:  0.0000  0.9155  0.0845
 SCF Error: norm([F,P])=      4.345682402027, max([F,P])=      0.721142845568
 orbitals (Q,E):
[...]
                                    1.72%    55 A               4.336  0.00     2 fB
                                    1.61%    39 A              -0.056  0.00     2 fB
      -0.15340         2 A         34.21%     2 A               8.927  0.00     1 fA
                                   27.74%    32 A              -8.270  2.00     2 fB
                                   18.69%    31 A              -8.412  2.00     2 fB
                                   -6.09%     1 A               2.603  2.00     1 fA
                                    4.98%    37 A              -0.829  0.00     2 fB
                                    4.54%    20 A             -12.913  2.00     2 fB
                                    3.43%     6 A              50.479  0.00     1 fA
                                    2.81%    36 A              -2.574  0.00     2 fB
                                    2.61%    38 A              -0.592  0.00     2 fB
                                   -2.25%     3 A              19.877  0.00     1 fA
                                    1.41%    23 A             -11.100  2.00     2 fB
                                    1.23%    19 A             -14.919  2.00     2 fB
                                    1.23%    22 A             -11.815  2.00     2 fB
                                    1.03%    42 A               0.647  0.00     2 fB
       0.15340       336 A         36.85%     2 A               8.927  0.00     1 fA
                                   17.35%    32 A              -8.270  2.00     2 fB
                                   13.50%     1 A               2.603  2.00     1 fA
                                    9.79%    31 A              -8.412  2.00     2 fB
                                    5.96%     3 A              19.877  0.00     1 fA
                                    3.19%    37 A              -0.829  0.00     2 fB
                                    2.64%    20 A             -12.913  2.00     2 fB
                                    2.42%    36 A              -2.574  0.00     2 fB
                                    1.66%     6 A              50.479  0.00     1 fA
                                    1.64%    38 A              -0.592  0.00     2 fB
      -0.05689         3 A         14.86%    42 A               0.647  0.00     2 fB
                                   12.04%    25 A             -10.121  2.00     2 fB
                                    9.38%    29 A              -8.969  2.00     2 fB
                                    8.80%    28 A              -9.207  2.00     2 fB
                                    6.97%    30 A              -8.716  2.00     2 fB
                                    5.90%    56 A               4.778  0.00     2 fB
                                    4.85%    33 A              -8.134  2.00     2 fB
                                    4.77%    44 A               1.373  0.00     2 fB
                                    2.74%    38 A              -0.592  0.00     2 fB
                                    2.67%    49 A               2.665  0.00     2 fB
                                    2.18%    34 A              -7.437  2.00     2 fB
                                    2.00%    53 A               3.904  0.00     2 fB
                                    1.91%    31 A              -8.412  2.00     2 fB
                                    1.53%    50 A               3.138  0.00     2 fB
                                    1.42%    21 A             -11.993  2.00     2 fB
                                    1.41%    22 A             -11.815  2.00     2 fB
                                    1.27%    70 A               9.099  0.00     2 fB
                                    1.23%    62 A               6.731  0.00     2 fB
                                    1.05%    61 A               6.454  0.00     2 fB
       0.05689       335 A         15.68%    42 A               0.647  0.00     2 fB
                                   11.19%    25 A             -10.121  2.00     2 fB
                                    9.01%    29 A              -8.969  2.00     2 fB
                                    8.43%    28 A              -9.207  2.00     2 fB
                                    6.37%    30 A              -8.716  2.00     2 fB
                                    6.25%    56 A               4.778  0.00     2 fB
                                    5.03%    44 A               1.373  0.00     2 fB
                                    4.74%    33 A              -8.134  2.00     2 fB
                                    2.93%    38 A              -0.592  0.00     2 fB
                                    2.81%    49 A               2.665  0.00     2 fB
                                    2.17%    34 A              -7.437  2.00     2 fB
                                    2.12%    53 A               3.904  0.00     2 fB
                                    1.79%    32 A              -8.270  2.00     2 fB
                                    1.63%    50 A               3.138  0.00     2 fB
                                    1.34%    70 A               9.099  0.00     2 fB
                                    1.30%    62 A               6.731  0.00     2 fB
                                    1.12%    31 A              -8.412  2.00     2 fB
                                    1.12%    61 A               6.454  0.00     2 fB
                                    1.03%    22 A             -11.815  2.00     2 fB
                                    1.02%    47 A               2.019  0.00     2 fB
      -0.05524         4 A         12.78%    31 A              -8.412  2.00     2 fB
                                   11.60%    24 A             -10.344  2.00     2 fB
                                   10.33%    43 A               1.147  0.00     2 fB
                                    7.74%    40 A               0.237  0.00     2 fB
                                    6.89%    38 A              -0.592  0.00     2 fB
                                    6.85%    29 A              -8.969  2.00     2 fB
                                    4.22%    22 A             -11.815  2.00     2 fB
                                    3.83%    53 A               3.904  0.00     2 fB
                                    3.37%    28 A              -9.207  2.00     2 fB
                                    2.83%    32 A              -8.270  2.00     2 fB
                                    2.83%    34 A              -7.437  2.00     2 fB
                                    2.51%    61 A               6.454  0.00     2 fB
                                    2.49%    58 A               5.421  0.00     2 fB
                                    2.33%    41 A               0.433  0.00     2 fB
                                    2.24%    35 A              -7.334  2.00     2 fB
                                    1.88%    33 A              -8.134  2.00     2 fB
                                    1.38%    39 A              -0.056  0.00     2 fB
                                    1.28%    48 A               2.370  0.00     2 fB
       0.05524       334 A         12.43%    31 A              -8.412  2.00     2 fB
                                   10.89%    43 A               1.147  0.00     2 fB
                                   10.44%    24 A             -10.344  2.00     2 fB
                                    8.18%    40 A               0.237  0.00     2 fB
                                    7.36%    38 A              -0.592  0.00     2 fB
                                    6.64%    29 A              -8.969  2.00     2 fB
                                    4.04%    53 A               3.904  0.00     2 fB
                                    3.88%    22 A             -11.815  2.00     2 fB
                                    3.21%    28 A              -9.207  2.00     2 fB
                                    2.68%    34 A              -7.437  2.00     2 fB
                                    2.65%    58 A               5.421  0.00     2 fB
                                    2.64%    61 A               6.454  0.00     2 fB
                                    2.45%    41 A               0.433  0.00     2 fB
                                    2.17%    35 A              -7.334  2.00     2 fB
                                    2.16%    32 A              -8.270  2.00     2 fB
                                    1.77%    33 A              -8.134  2.00     2 fB
                                    1.44%    39 A              -0.056  0.00     2 fB
                                    1.35%    48 A               2.370  0.00     2 fB
 Mulliken charges used for AMS results%charges...


    =====================
     CALCULATION RESULTS
    =====================

Energy (hartree)            -0.05448150


--------------
Atomic charges
--------------
  Index   Atom    Charge
      1      H   -0.6900
      2      C    0.0591
      3      C    0.1796
      4     Cl   -0.3521
      5      H    0.0868
      6      C    0.1435
      7      N   -0.3299
      8      C    0.7240
      9      H   -0.2615
     10      H   -0.1964
     11      H   -0.2241
     12      C    0.7187
     13      H   -0.2606
     14      H   -0.2776
     15      H   -0.2503
     16      C    0.6981
     17      H   -0.2381
     18      H   -0.2550
     19      H   -0.2743


Dipole moment vector    (Debye):     5.28331502    2.29874884   -1.29009052
              magnitude (Debye):     5.90440491


-----------------------
Molecular orbitals info
-----------------------
n orbitals:              337
n spin:                    1

Note: only printing virtual orbitals with
      energy smaller than HOMO + 100. eV

HOMO (eV):               0.3912
LUMO (eV):               1.8698
HOMO-LUMO gap (eV):      1.4786

   Index   Energy (eV)    Occupation
     228      100.2757         0.000       
     227       99.9197         0.000       
     226       98.6775         0.000       
     225       98.0953         0.000       
     224       97.4807         0.000       
     223       97.4439         0.000       
     222       96.7849         0.000       
     221       96.1787         0.000       
     220       95.5765         0.000       
     219       93.8705         0.000       
     218       92.6141         0.000       
     217       91.9009         0.000       
     216       91.3071         0.000       
     215       90.3117         0.000       
     214       89.5800         0.000       
     213       88.9162         0.000       
     212       88.0681         0.000       
     211       87.5585         0.000       
     210       86.7853         0.000       
     209       85.9226         0.000       
     208       85.5992         0.000       
     207       84.9154         0.000       
     206       84.5871         0.000       
     205       84.4343         0.000       
     204       83.9612         0.000       
     203       83.4012         0.000       
     202       83.2173         0.000       
     201       82.3511         0.000       
     200       81.9209         0.000       
     199       81.5913         0.000       
     198       81.3982         0.000       
     197       80.0337         0.000       
     196       79.8053         0.000       
     195       79.2582         0.000       
     194       78.9698         0.000       
     193       78.0962         0.000       
     192       77.4231         0.000       
     191       76.8702         0.000       
     190       76.0908         0.000       
     189       75.7297         0.000       
     188       75.0468         0.000       
     187       74.2766         0.000       
     186       74.0333         0.000       
     185       72.7002         0.000       
     184       72.4514         0.000       
     183       71.7757         0.000       
     182       71.3517         0.000       
     181       70.2720         0.000       
     180       70.1381         0.000       
     179       69.3221         0.000       
     178       67.8997         0.000       
     177       67.2571         0.000       
     176       66.8971         0.000       
     175       66.4281         0.000       
     174       65.9138         0.000       
     173       64.9382         0.000       
     172       64.1616         0.000       
     171       63.4361         0.000       
     170       62.7941         0.000       
     169       61.9382         0.000       
     168       61.4794         0.000       
     167       61.3101         0.000       
     166       60.7310         0.000       
     165       58.8443         0.000       
     164       58.2562         0.000       
     163       57.4232         0.000       
     162       56.6921         0.000       
     161       56.3405         0.000       
     160       55.5832         0.000       
     159       55.1803         0.000       
     158       54.7522         0.000       
     157       53.9985         0.000       
     156       53.3101         0.000       
     155       53.1837         0.000       
     154       52.4354         0.000       
     153       51.4344         0.000       
     152       50.7262         0.000       
     151       50.2713         0.000       
     150       49.5345         0.000       
     149       49.1377         0.000       
     148       48.3535         0.000       
     147       47.4927         0.000       
     146       47.1847         0.000       
     145       46.3968         0.000       
     144       45.8058         0.000       
     143       45.2965         0.000       
     142       44.1558         0.000       
     141       44.0434         0.000       
     140       43.3546         0.000       
     139       42.7208         0.000       
     138       42.3414         0.000       
     137       42.0651         0.000       
     136       41.1461         0.000       
     135       40.7801         0.000       
     134       40.5376         0.000       
     133       40.1698         0.000       
     132       39.5835         0.000       
     131       38.9640         0.000       
     130       38.6929         0.000       
     129       38.4000         0.000       
     128       38.2680         0.000       
     127       37.5097         0.000       
     126       37.4492         0.000       
     125       37.1749         0.000       
     124       36.4950         0.000       
     123       36.2801         0.000       
     122       35.3682         0.000       
     121       35.2198         0.000       
     120       34.7550         0.000       
     119       34.7270         0.000       
     118       34.1429         0.000       
     117       34.0981         0.000       
     116       33.4316         0.000       
     115       33.0413         0.000       
     114       32.8101         0.000       
     113       32.6132         0.000       
     112       31.3908         0.000       
     111       30.7271         0.000       
     110       30.6392         0.000       
     109       30.4751         0.000       
     108       30.1338         0.000       
     107       29.8259         0.000       
     106       29.0153         0.000       
     105       28.5405         0.000       
     104       27.4606         0.000       
     103       27.1934         0.000       
     102       26.2397         0.000       
     101       25.9223         0.000       
     100       25.0858         0.000       
      99       24.8427         0.000       
      98       23.9232         0.000       
      97       23.3896         0.000       
      96       23.0516         0.000       
      95       22.3623         0.000       
      94       21.8171         0.000       
      93       21.1559         0.000       
      92       20.8268         0.000       
      91       19.5257         0.000       
      90       19.1775         0.000       
      89       18.5673         0.000       
      88       17.7430         0.000       
      87       17.5849         0.000       
      86       17.1908         0.000       
      85       17.0346         0.000       
      84       16.6020         0.000       
      83       16.2864         0.000       
      82       15.9639         0.000       
      81       15.6011         0.000       
      80       15.3711         0.000       
      79       15.1095         0.000       
      78       14.8497         0.000       
      77       14.6133         0.000       
      76       14.5400         0.000       
      75       14.2213         0.000       
      74       13.9753         0.000       
      73       13.3917         0.000       
      72       12.9932         0.000       
      71       12.7816         0.000       
      70       12.5246         0.000       
      69       12.4392         0.000       
      68       11.9112         0.000       
      67       11.6915         0.000       
      66       11.3005         0.000       
      65       10.8697         0.000       
      64       10.8426         0.000       
      63       10.4741         0.000       
      62       10.2465         0.000       
      61       10.2277         0.000       
      60        9.8691         0.000       
      59        9.2463         0.000       
      58        9.0246         0.000       
      57        8.5889         0.000       
      56        8.1644         0.000       
      55        7.7125         0.000       
      54        7.5933         0.000       
      53        7.4477         0.000       
      52        7.2425         0.000       
      51        6.7276         0.000       
      50        6.6590         0.000       
      49        6.0854         0.000       
      48        5.8154         0.000       
      47        5.7332         0.000       
      46        5.1218         0.000       
      45        4.9680         0.000       
      44        4.6862         0.000       
      43        4.5433         0.000       
      42        4.1949         0.000       
      41        3.9127         0.000       
      40        3.6291         0.000       
      39        3.3029         0.000       
      38        3.0353         0.000       
      37        1.8698         0.000 < LUMO
      36        0.3912         2.000 < HOMO
      35       -3.1880         2.000       
      34       -3.2501         2.000       
      33       -3.9957         2.000       
      32       -4.2029         2.000       
      31       -4.3211         2.000       
      30       -4.6750         2.000       
      29       -4.9938         2.000       
      28       -5.2000         2.000       
      27       -5.5522         2.000       
      26       -5.8346         2.000       
      25       -6.0472         2.000       
      24       -6.2715         2.000       
      23       -6.9177         2.000       
      22       -7.5889         2.000       
      21       -7.7743         2.000       
      20       -8.4782         2.000       
      19      -10.6055         2.000       
      18      -12.5873         2.000       
      17      -13.4798         2.000       
      16      -14.8204         2.000       
      15      -15.7225         2.000       
      14      -17.5974         2.000       
      13      -18.8388         2.000       
      12     -185.7320         2.000       
      11     -185.7359         2.000       
      10     -185.9509         2.000       
       9     -246.7553         2.000       
       8     -266.0997         2.000       
       7     -266.1229         2.000       
       6     -266.2047         2.000       
       5     -266.4978         2.000       
       4     -267.4825         2.000       
       3     -268.4906         2.000       
       2     -377.9285         2.000       
       1    -2746.0050         2.000       

AMS application finished. Exiting.
NORMAL TERMINATION
     Total cpu time:     154.26
  Total system time:       0.48
 Total elapsed time:     155.21
NORMAL TERMINATION
