
 *******************************************************************************
 *                                                                             *
 *  --------------------------------                                           *
 *   Amsterdam Modeling Suite (AMS)              2026.103                      *
 *  --------------------------------                                           *
 *                                               r260501 2026-05-01 873454b5   *
 *                                                                             *
 *                                                                             *
 *                              =================                              *
 *                              |               |                              *
 *                              |     A M S     |                              *
 *                              |               |                              *
 *                              =================                              *
 *                                                                             *
 *                                                                             *
 *   Online information and documentation:  https://www.scm.com/support/       *
 *   E-mail:  support@scm.com   info@scm.com                                   *
 *                                                                             *
 *   Scientific publications using AMS results must be properly referenced     *
 *   See the User Manuals (or the web site) for recommended citations          *
 *   The terms and conditions of the End User License Agreement apply to       *
 *   the use of AMS, https://www.scm.com/license-terms/                        *
 *                                                                             *
 **********************  x86_64_linux_intel / intelmpi  ************************
 
 Licensed to: Jong-June Jeon / University of Seoul 2026-06-02 13:44:15
 SCM User ID: u30731
  
 AMS 2026.103  RunTime: Jun03-2026 20:11:13  ShM Nodes: 1  Procs: 1

 AMS jobname: c5_fragB_opt
 AMS jobid  : 467126327

 Start   directory: /gpfs/home1/yeseo1ee/projects/eda-asm-prediction/ADF_800/adf_outputs/batch_004/qmrxn20_e2_C_D_D_D_B_A/
 Results directory: /gpfs/home1/yeseo1ee/projects/eda-asm-prediction/ADF_800/adf_outputs/batch_004/qmrxn20_e2_C_D_D_D_B_A/c5_fragB_opt.results/
 Scratch directory: /tmp/amstmp_c5_fragB_opt_kid0.467126327/

 RNG seed: -975096140 1149665703 -438066340 222826524 -1486390613 -133478362 1380400455 790947383



                      ************************************************************************
                      *  ADF 2026.103  RunTime: Jun03-2026 20:11:14  ShM Nodes: 1  Procs: 1  *
                      ************************************************************************
  

       ***************************
       *  GEOMETRY OPTIMIZATION  *
       ***************************

Optimization Method                    Quasi Newton
Optimization Coordinates               Delocalized Coordinates
Optimize lattice                       F
 
 ------------------------------------------------------
 Convergence criteria (Hartree,Angstrom)
 ------------------------------------------------------
 Maximum gradient               0.000100000000
 Maximum rms gradient           0.000066666667
 Maximum step allowed           0.010000000000
 Maximum rms step allowed       0.006666666667
 Maximum energy change allowe   0.000180000000
 Maximum stress energy allowe   0.000500000000
 
Initial model Hessian                  Automatic Hessian
 
------------------------------------
Quasi-Newton Optimizer Parameters
------------------------------------
Hessian Update Method                  BFGS
Maximum number of steps                  200
First GDIIS cycle                          0
Maximum GDIIS vectors                      0
Trust radius (bohr)                        0.200000
Trust radius varies                        T
Constraints converged at all steps         T
Use projector                              T
 
 Rigid motions settings for: old optimizer
 Atomic rotations (x,y,z):     T T T
 Atomic translations (x,y,z):  T T T
 Tolerance:                  1.000000000000000E-006

--------
Geometry
--------
Formula: C6H10ClN
Atoms
  Index Symbol   x (angstrom)   y (angstrom)   z (angstrom)
      1      C    -0.12331479     0.00751147    -0.38476946
      2      C    -0.09792319    -0.05768779     1.09120161
      3     Cl     1.65547490     0.09269668    -1.18796857
      4      H    -1.28218765     0.00062824     1.37353135
      5      C    -0.66248239    -1.22017737    -0.96894070
      6      N    -1.12578064    -2.19109801    -1.44420818
      7      C    -0.88317152     1.20783438    -0.90927180
      8      H    -1.03916885     1.14252902    -1.98745830
      9      H    -1.84437854     1.22166915    -0.37091788
     10      H    -0.33821215     2.12487756    -0.68613207
     11      C     0.44098802     1.20265450     1.74420489
     12      H    -0.24933728     2.03829157     1.59894965
     13      H     0.50549983     1.04164784     2.82472025
     14      H     1.43605530     1.47592447     1.37311600
     15      C     0.51277203    -1.31917497     1.66659473
     16      H     0.09727666    -2.21999323     1.20602363
     17      H     1.60298079    -1.34214980     1.53966363
     18      H     0.28967731    -1.36814701     2.73778344

Total System Charge              0.00000


----------------
ADF Engine Input
----------------
 
   Basis
     Type TZ2P
     Core None
   End
   XC
     GGA BLYP
     Dispersion GRIMME3 BJDAMP
   End
   Symmetry NOSYM
   NumericalQuality Normal
   Unrestricted No
   SCF
     Iterations 200
     Converge 1.0e-6
   End
   Save TAPE21
 

 Title: *** (NO TITLE) ***

Challenging geometry: could not add a dihedral for atom    6
 Using automatic Hessian for delocalized coordinates.
 *** GO1_GOStep1 ***

 Energy gradients wrt nuclear displacements
 ==========================================

     Atom      Cartesian (a.u./angstrom)
                 X         Y         Z
 ----------------------------------------
     1 C    -0.011223  0.010867  0.067265
     2 C     0.079638 -0.008864 -0.067674
     3 Cl    0.015007 -0.000114 -0.017948
     4 H    -0.081216  0.022488  0.020714
     5 C     0.023965  0.053229  0.029461
     6 N    -0.020384 -0.046330 -0.024027
     7 C     0.010356 -0.013969  0.005279
     8 H     0.003183 -0.000379 -0.000243
     9 H     0.000329 -0.005616  0.011435
    10 H    -0.000347 -0.003332 -0.000407
    11 C    -0.008093 -0.018253 -0.013966
    12 H    -0.005576 -0.005701  0.002255
    13 H    -0.003067 -0.000443 -0.001897
    14 H     0.000563  0.000519 -0.000025
    15 C    -0.000922  0.016814 -0.012038
    16 H    -0.000500  0.001522  0.001655
    17 H     0.001623 -0.003280  0.001674
    18 H    -0.003335  0.000844 -0.001515
 ----------------------------------------
 
----------------------------------------------------------------------
Geometry Convergence after Step   1       (Hartree/Angstrom,Angstrom)
----------------------------------------------------------------------
current energy                               -3.55781056 Hartree
energy change                      -3.55781056     0.00018000    F
constrained gradient max            0.08121699     0.00010000    F
constrained gradient rms            0.02468962     0.00006667    F
gradient max                        0.08121627
gradient rms                        0.02468962
cart. step max                      0.12367074     0.01000000    F
cart. step rms                      0.03529052     0.00666667    F
 

--------
Geometry
--------
Formula: C6H10ClN
Atoms
  Index Symbol   x (angstrom)   y (angstrom)   z (angstrom)
      1      C    -0.16130439     0.01706818    -0.38815323
      2      C    -0.11188455    -0.06052320     1.12099627
      3     Cl     1.64305063     0.10329914    -1.10109182
      4      H    -1.24737095    -0.04626125     1.41046372
      5      C    -0.68554667    -1.21911269    -0.97904808
      6      N    -1.14406047    -2.17115621    -1.44113444
      7      C    -0.90862903     1.21703701    -0.97208329
      8      H    -1.02282301     1.12542073    -2.05368029
      9      H    -1.89749380     1.26492438    -0.49458862
     10      H    -0.37004905     2.14074903    -0.75353419
     11      C     0.45400770     1.20164630     1.78373011
     12      H    -0.21674660     2.05780090     1.66429829
     13      H     0.55036293     1.03032953     2.86129915
     14      H     1.44270152     1.46338412     1.38902078
     15      C     0.52184849    -1.32971296     1.67814357
     16      H     0.11203292    -2.23189622     1.21307469
     17      H     1.60801561    -1.32801103     1.52385920
     18      H     0.32865654    -1.39714908     2.75455041

Total System Charge              0.00000

 *** GO1_GOStep2 ***

 Energy gradients wrt nuclear displacements
 ==========================================

     Atom      Cartesian (a.u./angstrom)
                 X         Y         Z
 ----------------------------------------
     1 C    -0.020355  0.009274  0.042359
     2 C     0.067436 -0.013716 -0.042281
     3 Cl    0.013195  0.000221 -0.007761
     4 H    -0.054611  0.011544  0.014912
     5 C    -0.012242 -0.027257 -0.014518
     6 N     0.014628  0.029468  0.013276
     7 C     0.002978 -0.008020 -0.007267
     8 H     0.000698  0.001535  0.000054
     9 H     0.000765 -0.000762  0.004859
    10 H    -0.000739 -0.001597 -0.001537
    11 C    -0.004753 -0.008935 -0.004491
    12 H    -0.001814 -0.002775  0.003883
    13 H    -0.001195  0.000908 -0.000266
    14 H     0.000515  0.001050 -0.000251
    15 C    -0.004010  0.010944 -0.002814
    16 H    -0.000199  0.000360  0.001294
    17 H     0.000949 -0.000960  0.000698
    18 H    -0.001244 -0.001284 -0.000149
 ----------------------------------------

 dE(predicted):    -0.77023E-02, dE(actual):    -0.85624E-02, Trust radius:    0.400000, all in a.u.
 
----------------------------------------------------------------------
Geometry Convergence after Step   2       (Hartree/Angstrom,Angstrom)
----------------------------------------------------------------------
current energy                               -3.56637295 Hartree
energy change                      -0.00856239     0.00018000    F
constrained gradient max            0.06743983     0.00010000    F
constrained gradient rms            0.01678582     0.00006667    F
gradient max                        0.06744030
gradient rms                        0.01678582
cart. step max                      0.09080365     0.01000000    F
cart. step rms                      0.03346643     0.00666667    F
 

--------
Geometry
--------
Formula: C6H10ClN
Atoms
  Index Symbol   x (angstrom)   y (angstrom)   z (angstrom)
      1      C    -0.17945960    -0.00059000    -0.39982260
      2      C    -0.14370806    -0.07427593     1.14730310
      3     Cl     1.63594607     0.07328269    -1.03101358
      4      H    -1.20861381    -0.13706490     1.41684651
      5      C    -0.72923346    -1.22925343    -0.99200091
      6      N    -1.23049506    -2.17922397    -1.44799431
      7      C    -0.89936337     1.23590689    -0.97405371
      8      H    -0.96547171     1.17110802    -2.06180243
      9      H    -1.91492553     1.29574833    -0.56386298
     10      H    -0.35960045     2.14800908    -0.70397359
     11      C     0.43100459     1.21591355     1.78387845
     12      H    -0.20963434     2.08880802     1.61682933
     13      H     0.52221264     1.07864310     2.86762876
     14      H     1.42746046     1.43949207     1.38744443
     15      C     0.54591998    -1.33651220     1.68563516
     16      H     0.16083362    -2.24893399     1.21693544
     17      H     1.62518784    -1.28587897     1.50144699
     18      H     0.38670804    -1.41734166     2.76669820

Total System Charge              0.00000

 *** GO1_GOStep3 ***

 Energy gradients wrt nuclear displacements
 ==========================================

     Atom      Cartesian (a.u./angstrom)
                 X         Y         Z
 ----------------------------------------
     1 C    -0.017996  0.000323  0.012952
     2 C     0.006917 -0.007292 -0.006600
     3 Cl    0.013429  0.001283  0.000723
     4 H     0.003305 -0.000099 -0.002035
     5 C     0.008265  0.009878  0.003796
     6 N    -0.009075 -0.015776 -0.008495
     7 C    -0.002278 -0.000062 -0.002911
     8 H    -0.000810  0.000428  0.001195
     9 H     0.000881  0.002723 -0.000941
    10 H    -0.000183  0.002202  0.000013
    11 C     0.001206  0.003236 -0.000037
    12 H     0.000476  0.001513  0.001228
    13 H     0.000944  0.000832  0.000560
    14 H    -0.000082  0.001459 -0.000412
    15 C    -0.006230  0.000526  0.001159
    16 H     0.000693 -0.001181  0.000313
    17 H     0.000019  0.001241 -0.000528
    18 H     0.000518 -0.001235  0.000019
 ----------------------------------------

 dE(predicted):    -0.43017E-02, dE(actual):    -0.41758E-02, Trust radius:    0.800000, all in a.u.
 
----------------------------------------------------------------------
Geometry Convergence after Step   3       (Hartree/Angstrom,Angstrom)
----------------------------------------------------------------------
current energy                               -3.57054871 Hartree
energy change                      -0.00417576     0.00018000    F
constrained gradient max            0.01800452     0.00010000    F
constrained gradient rms            0.00529416     0.00006667    F
gradient max                        0.01800539
gradient rms                        0.00529416
cart. step max                      0.05405489     0.01000000    F
cart. step rms                      0.01687997     0.00666667    F
 

--------
Geometry
--------
Formula: C6H10ClN
Atoms
  Index Symbol   x (angstrom)   y (angstrom)   z (angstrom)
      1      C    -0.16719799    -0.00206059    -0.40841316
      2      C    -0.14754935    -0.07311781     1.14607539
      3     Cl     1.62284121     0.04295739    -1.08506847
      4      H    -1.20814391    -0.15146798     1.40866545
      5      C    -0.74681223    -1.22252954    -0.98068848
      6      N    -1.26410538    -2.16389609    -1.41667110
      7      C    -0.88463650     1.23721692    -0.97441823
      8      H    -0.94835318     1.17798509    -2.06325502
      9      H    -1.90115977     1.28869198    -0.56469223
     10      H    -0.34284664     2.14490230    -0.69628582
     11      C     0.41425241     1.21424781     1.79419190
     12      H    -0.21769424     2.08811268     1.60278235
     13      H     0.47268693     1.07656583     2.87998328
     14      H     1.42324472     1.42765910     1.42562105
     15      C     0.56234529    -1.32800828     1.68065864
     16      H     0.18511376    -2.24160304     1.20828386
     17      H     1.64112833    -1.26713970     1.49801271
     18      H     0.40165440    -1.41067939     2.76134010

Total System Charge              0.00000

 *** GO1_GOStep4 ***

 Energy gradients wrt nuclear displacements
 ==========================================

     Atom      Cartesian (a.u./angstrom)
                 X         Y         Z
 ----------------------------------------
     1 C    -0.010678 -0.001050  0.008768
     2 C    -0.007734 -0.004427 -0.001666
     3 Cl    0.011734  0.000035 -0.005519
     4 H     0.007738  0.000234 -0.001788
     5 C    -0.004158 -0.010811 -0.005328
     6 N     0.004795  0.009422  0.003325
     7 C    -0.001154  0.000151 -0.000947
     8 H    -0.000486 -0.000241  0.000512
     9 H     0.000356  0.001280 -0.000588
    10 H     0.000212  0.001035  0.000235
    11 C     0.001774  0.003219  0.002094
    12 H    -0.000098  0.000638  0.000292
    13 H     0.000709  0.000020  0.000376
    14 H    -0.000787  0.000603  0.000008
    15 C    -0.002709  0.000299  0.000683
    16 H     0.000248 -0.000402 -0.000294
    17 H     0.000086  0.000238 -0.000054
    18 H     0.000153 -0.000243 -0.000110
 ----------------------------------------

 dE(predicted):    -0.53491E-03, dE(actual):    -0.62361E-03, Trust radius:    0.800000, all in a.u.
 
----------------------------------------------------------------------
Geometry Convergence after Step   4       (Hartree/Angstrom,Angstrom)
----------------------------------------------------------------------
current energy                               -3.57117232 Hartree
energy change                      -0.00062361     0.00018000    F
constrained gradient max            0.01169582     0.00010000    F
constrained gradient rms            0.00390904     0.00006667    F
gradient max                        0.01169432
gradient rms                        0.00390904
cart. step max                      0.03292267     0.01000000    F
cart. step rms                      0.01028902     0.00666667    F
 

--------
Geometry
--------
Formula: C6H10ClN
Atoms
  Index Symbol   x (angstrom)   y (angstrom)   z (angstrom)
      1      C    -0.16503058    -0.00015918    -0.41207817
      2      C    -0.15066331    -0.07219962     1.14476159
      3     Cl     1.61392643     0.03441631    -1.08540634
      4      H    -1.21596992    -0.15668527     1.40731706
      5      C    -0.75773944    -1.21794862    -0.97112322
      6      N    -1.28354693    -2.16267982    -1.39449225
      7      C    -0.87889572     1.23944660    -0.97606827
      8      H    -0.93070387     1.18903555    -2.06645626
      9      H    -1.89937223     1.27859787    -0.57385887
     10      H    -0.34186083     2.14483095    -0.68479799
     11      C     0.40821234     1.21011457     1.79525129
     12      H    -0.21157613     2.08746600     1.58381609
     13      H     0.43976426     1.07628672     2.88236331
     14      H     1.42806674     1.40836876     1.44788032
     15      C     0.57370093    -1.32231013     1.67411041
     16      H     0.19685516    -2.23683753     1.20382606
     17      H     1.65101923    -1.25687555     1.48541776
     18      H     0.41858172    -1.40503092     2.75565970

Total System Charge              0.00000

 *** GO1_GOStep5 ***

 Energy gradients wrt nuclear displacements
 ==========================================

     Atom      Cartesian (a.u./angstrom)
                 X         Y         Z
 ----------------------------------------
     1 C    -0.008238 -0.000789  0.005130
     2 C    -0.005833 -0.002023 -0.001591
     3 Cl    0.008233 -0.000143 -0.004264
     4 H     0.001788  0.000380 -0.000492
     5 C    -0.000117 -0.001688  0.000208
     6 N     0.001468  0.002801  0.000352
     7 C     0.000551  0.000448 -0.000256
     8 H    -0.000077 -0.000139 -0.000117
     9 H     0.000026 -0.000146  0.000130
    10 H     0.000314 -0.000048  0.000168
    11 C     0.001672  0.001637  0.001539
    12 H    -0.000468 -0.000352 -0.000209
    13 H     0.000348 -0.000564  0.000018
    14 H    -0.000374 -0.000084 -0.000124
    15 C     0.000501  0.000774  0.000011
    16 H    -0.000093  0.000237 -0.000488
    17 H     0.000375 -0.000459  0.000129
    18 H    -0.000077  0.000159 -0.000146
 ----------------------------------------

 dE(predicted):    -0.18725E-03, dE(actual):    -0.27757E-03, Trust radius:    0.800000, all in a.u.
 
----------------------------------------------------------------------
Geometry Convergence after Step   5       (Hartree/Angstrom,Angstrom)
----------------------------------------------------------------------
current energy                               -3.57144989 Hartree
energy change                      -0.00027757     0.00018000    F
constrained gradient max            0.00826245     0.00010000    F
constrained gradient rms            0.00214752     0.00006667    F
gradient max                        0.00826308
gradient rms                        0.00214752
cart. step max                      0.03752633     0.01000000    F
cart. step rms                      0.01053687     0.00666667    F
 

--------
Geometry
--------
Formula: C6H10ClN
Atoms
  Index Symbol   x (angstrom)   y (angstrom)   z (angstrom)
      1      C    -0.15914425     0.00122559    -0.41977527
      2      C    -0.14482123    -0.07144979     1.14172873
      3     Cl     1.60481472     0.03803152    -1.08571305
      4      H    -1.21190076    -0.16102375     1.40164871
      5      C    -0.76406643    -1.21493632    -0.96861910
      6      N    -1.30040123    -2.16116243    -1.37751140
      7      C    -0.87888081     1.24003590    -0.97592544
      8      H    -0.92117425     1.20135305    -2.06741601
      9      H    -1.90277463     1.26400228    -0.58093480
     10      H    -0.35159121     2.14608247    -0.67118440
     11      C     0.40713649     1.20872721     1.79427258
     12      H    -0.19415057     2.09166089     1.55595168
     13      H     0.40223793     1.08531641     2.88290088
     14      H     1.44041792     1.38961938     1.47759062
     15      C     0.58122358    -1.32233818     1.67134694
     16      H     0.20169976    -2.23765815     1.20499365
     17      H     1.65747776    -1.25723078     1.47918177
     18      H     0.42866504    -1.40241861     2.75358611

Total System Charge              0.00000

 *** GO1_GOStep6 ***

 Energy gradients wrt nuclear displacements
 ==========================================

     Atom      Cartesian (a.u./angstrom)
                 X         Y         Z
 ----------------------------------------
     1 C    -0.004869 -0.000894 -0.000305
     2 C    -0.001929  0.001021 -0.000160
     3 Cl    0.003093  0.000188 -0.001583
     4 H     0.000118  0.000008 -0.000321
     5 C     0.001270  0.002484  0.002102
     6 N    -0.000199 -0.000278 -0.000692
     7 C     0.001608  0.000320  0.000542
     8 H     0.000166  0.000030 -0.000303
     9 H    -0.000222 -0.000776  0.000362
    10 H     0.000200 -0.000569  0.000230
    11 C     0.000301  0.000863  0.000874
    12 H    -0.000423 -0.000532 -0.000289
    13 H     0.000017 -0.000559 -0.000306
    14 H    -0.000121 -0.000643 -0.000142
    15 C     0.001551 -0.000563  0.000271
    16 H    -0.000140  0.000138 -0.000261
    17 H    -0.000170 -0.000321  0.000067
    18 H    -0.000250  0.000084 -0.000087
 ----------------------------------------

 dE(predicted):    -0.11813E-03, dE(actual):    -0.16829E-03, Trust radius:    0.800000, all in a.u.
 
----------------------------------------------------------------------
Geometry Convergence after Step   6       (Hartree/Angstrom,Angstrom)
----------------------------------------------------------------------
current energy                               -3.57161818 Hartree
energy change                      -0.00016829     0.00018000    T
constrained gradient max            0.00489433     0.00010000    F
constrained gradient rms            0.00109381     0.00006667    F
gradient max                        0.00489468
gradient rms                        0.00109381
cart. step max                      0.01340245     0.01000000    F
cart. step rms                      0.00428590     0.00666667    T
 

--------
Geometry
--------
Formula: C6H10ClN
Atoms
  Index Symbol   x (angstrom)   y (angstrom)   z (angstrom)
      1      C    -0.15636955     0.00346240    -0.42153483
      2      C    -0.14213364    -0.06995369     1.14147802
      3     Cl     1.60234582     0.04388379    -1.08200309
      4      H    -1.20974201    -0.15818678     1.40140481
      5      C    -0.76091939    -1.21521448    -0.96904360
      6      N    -1.29723869    -2.16363349    -1.37317887
      7      C    -0.88314529     1.23923803    -0.97803317
      8      H    -0.92455128     1.20008295    -2.06941593
      9      H    -1.90746928     1.26040385    -0.58451054
     10      H    -0.36097669     2.14882187    -0.67462229
     11      C     0.41098244     1.20795430     1.79610502
     12      H    -0.18107314     2.09530184     1.55132441
     13      H     0.39362761     1.08797655     2.88515610
     14      H     1.44885993     1.38319196     1.49099307
     15      C     0.57999301    -1.32341384     1.66972320
     16      H     0.19715512    -2.23777776     1.20424407
     17      H     1.65610364    -1.26083047     1.47577559
     18      H     0.42931923    -1.40347035     2.75226023

Total System Charge              0.00000

 *** GO1_GOStep7 ***

 Energy gradients wrt nuclear displacements
 ==========================================

     Atom      Cartesian (a.u./angstrom)
                 X         Y         Z
 ----------------------------------------
     1 C    -0.002367 -0.000331 -0.001372
     2 C     0.000015  0.001318  0.000328
     3 Cl    0.000929 -0.000037 -0.000233
     4 H    -0.000264 -0.000190 -0.000115
     5 C     0.001263  0.002220  0.001502
     6 N    -0.000521 -0.000800 -0.000641
     7 C     0.001045  0.000034  0.000340
     8 H     0.000130  0.000162 -0.000079
     9 H    -0.000199 -0.000314  0.000115
    10 H    -0.000057 -0.000382  0.000054
    11 C    -0.000229  0.000207  0.000370
    12 H    -0.000095 -0.000388  0.000108
    13 H    -0.000058 -0.000265 -0.000212
    14 H     0.000015 -0.000368 -0.000015
    15 C     0.000973 -0.000747  0.000133
    16 H    -0.000112 -0.000007 -0.000171
    17 H    -0.000240 -0.000078 -0.000031
    18 H    -0.000232 -0.000034 -0.000081
 ----------------------------------------

 dE(predicted):    -0.23094E-04, dE(actual):    -0.37332E-04, Trust radius:    0.800000, all in a.u.
 
----------------------------------------------------------------------
Geometry Convergence after Step   7       (Hartree/Angstrom,Angstrom)
----------------------------------------------------------------------
current energy                               -3.57165552 Hartree
energy change                      -0.00003733     0.00018000    T
constrained gradient max            0.00239012     0.00010000    F
constrained gradient rms            0.00067055     0.00006667    F
gradient max                        0.00239025
gradient rms                        0.00067055
cart. step max                      0.00787654     0.01000000    T
cart. step rms                      0.00292673     0.00666667    T
 

--------
Geometry
--------
Formula: C6H10ClN
Atoms
  Index Symbol   x (angstrom)   y (angstrom)   z (angstrom)
      1      C    -0.15463992     0.00356846    -0.42192039
      2      C    -0.14126707    -0.07064663     1.14129368
      3     Cl     1.60138809     0.05088436    -1.08084043
      4      H    -1.20914384    -0.15606701     1.40144312
      5      C    -0.75769968    -1.21608798    -0.97294136
      6      N    -1.29166868    -2.16502684    -1.37791440
      7      C    -0.88608147     1.23859146    -0.97667530
      8      H    -0.92971938     1.19928782    -2.06787577
      9      H    -1.90950595     1.25952936    -0.58141874
     10      H    -0.36520196     2.14989111    -0.67505407
     11      C     0.41382385     1.20717959     1.79465414
     12      H    -0.17319660     2.09675696     1.54518646
     13      H     0.39091221     1.09128485     2.88426625
     14      H     1.45371409     1.37931637     1.49452974
     15      C     0.57773181    -1.32450186     1.67114440
     16      H     0.19291721    -2.23909871     1.20785427
     17      H     1.65399314    -1.26439742     1.47636676
     18      H     0.42841199    -1.40262718     2.75402387

Total System Charge              0.00000

 *** GO1_GOStep8 ***

 Energy gradients wrt nuclear displacements
 ==========================================

     Atom      Cartesian (a.u./angstrom)
                 X         Y         Z
 ----------------------------------------
     1 C    -0.000515 -0.000091 -0.000963
     2 C     0.000521  0.000758  0.000428
     3 Cl    0.000011  0.000188  0.000157
     4 H    -0.000346 -0.000179  0.000060
     5 C    -0.000066  0.000122 -0.000066
     6 N     0.000139  0.000317 -0.000055
     7 C     0.000555 -0.000219  0.000270
     8 H     0.000096  0.000186  0.000060
     9 H    -0.000052  0.000058 -0.000050
    10 H    -0.000068  0.000035  0.000113
    11 C    -0.000248 -0.000304 -0.000255
    12 H     0.000010 -0.000090  0.000156
    13 H    -0.000065 -0.000080  0.000003
    14 H     0.000067 -0.000041  0.000087
    15 C     0.000294 -0.000526  0.000213
    16 H    -0.000034 -0.000030 -0.000064
    17 H    -0.000162  0.000023 -0.000027
    18 H    -0.000137 -0.000128 -0.000068
 ----------------------------------------

 dE(predicted):    -0.73318E-05, dE(actual):    -0.12437E-04, Trust radius:    0.800000, all in a.u.
 
----------------------------------------------------------------------
Geometry Convergence after Step   8       (Hartree/Angstrom,Angstrom)
----------------------------------------------------------------------
current energy                               -3.57166795 Hartree
energy change                      -0.00001244     0.00018000    T
constrained gradient max            0.00095569     0.00010000    F
constrained gradient rms            0.00026008     0.00006667    F
gradient max                        0.00095569
gradient rms                        0.00026008
cart. step max                      0.00413640     0.01000000    T
cart. step rms                      0.00143706     0.00666667    T
 

--------
Geometry
--------
Formula: C6H10ClN
Atoms
  Index Symbol   x (angstrom)   y (angstrom)   z (angstrom)
      1      C    -0.15392493     0.00449337    -0.42152257
      2      C    -0.14115828    -0.07001803     1.14131847
      3     Cl     1.60178802     0.05223989    -1.08083915
      4      H    -1.20901207    -0.15415175     1.40104158
      5      C    -0.75553120    -1.21639647    -0.97261695
      6      N    -1.28788702    -2.16637639    -1.37747009
      7      C    -0.88739779     1.23839186    -0.97740772
      8      H    -0.93356324     1.19650127    -2.06840395
      9      H    -1.90978986     1.26029806    -0.57976466
     10      H    -0.36591544     2.15059879    -0.67919047
     11      C     0.41485763     1.20711014     1.79601090
     12      H    -0.17097672     2.09756758     1.54656259
     13      H     0.39103602     1.09074879     2.88563169
     14      H     1.45506592     1.37869307     1.49684578
     15      C     0.57634653    -1.32454020     1.67039361
     16      H     0.19041301    -2.23858051     1.20691813
     17      H     1.65272818    -1.26578638     1.47527033
     18      H     0.42768910    -1.40295640     2.75334473

Total System Charge              0.00000

 *** GO1_GOStep9 ***

 Energy gradients wrt nuclear displacements
 ==========================================

     Atom      Cartesian (a.u./angstrom)
                 X         Y         Z
 ----------------------------------------
     1 C     0.000002  0.000166 -0.000390
     2 C     0.000279  0.000276  0.000303
     3 Cl   -0.000002  0.000028  0.000089
     4 H    -0.000119 -0.000093  0.000008
     5 C     0.000025  0.000057 -0.000114
     6 N     0.000015  0.000063 -0.000128
     7 C     0.000138 -0.000157  0.000062
     8 H     0.000068  0.000167  0.000061
     9 H    -0.000008  0.000154 -0.000079
    10 H    -0.000043  0.000103  0.000065
    11 C    -0.000141 -0.000325 -0.000112
    12 H     0.000032 -0.000012  0.000198
    13 H    -0.000037 -0.000048  0.000105
    14 H     0.000006  0.000025  0.000123
    15 C    -0.000023 -0.000242  0.000010
    16 H    -0.000031 -0.000042 -0.000108
    17 H    -0.000064  0.000003 -0.000023
    18 H    -0.000096 -0.000122 -0.000071
 ----------------------------------------
 
----------------------------------------------------------------------
Geometry Convergence after Step   9       (Hartree/Angstrom,Angstrom)
----------------------------------------------------------------------
current energy                               -3.57166868 Hartree
energy change                      -0.00000072     0.00018000    T
constrained gradient max            0.00038352     0.00010000    F
constrained gradient rms            0.00011740     0.00006667    F
gradient max                        0.00038352
gradient rms                        0.00011740
cart. step max                      0.00223969     0.01000000    T
cart. step rms                      0.00057777     0.00666667    T
 

--------
Geometry
--------
Formula: C6H10ClN
Atoms
  Index Symbol   x (angstrom)   y (angstrom)   z (angstrom)
      1      C    -0.15372831     0.00440498    -0.42134402
      2      C    -0.14140052    -0.07027755     1.14113682
      3     Cl     1.60203554     0.05254453    -1.08080140
      4      H    -1.20925098    -0.15406140     1.40059841
      5      C    -0.75504736    -1.21648981    -0.97294365
      6      N    -1.28701051    -2.16644374    -1.37826117
      7      C    -0.88737951     1.23852725    -0.97686114
      8      H    -0.93508551     1.19611750    -2.06778671
      9      H    -1.90907180     1.26093843    -0.57752497
     10      H    -0.36476896     2.15045173    -0.67965110
     11      C     0.41459683     1.20708491     1.79573081
     12      H    -0.17097167     2.09746913     1.54527809
     13      H     0.39012104     1.09106756     2.88536688
     14      H     1.45496652     1.37814990     1.49693468
     15      C     0.57616485    -1.32446119     1.67041071
     16      H     0.18989684    -2.23868822     1.20758507
     17      H     1.65251690    -1.26614925     1.47475625
     18      H     0.42818444    -1.40234806     2.75349866

Total System Charge              0.00000

 *** GO1_GOStep10 ***

 Energy gradients wrt nuclear displacements
 ==========================================

     Atom      Cartesian (a.u./angstrom)
                 X         Y         Z
 ----------------------------------------
     1 C     0.000095  0.000164 -0.000092
     2 C     0.000038  0.000031  0.000168
     3 Cl    0.000043  0.000034  0.000046
     4 H    -0.000039 -0.000024 -0.000036
     5 C    -0.000070 -0.000136 -0.000183
     6 N     0.000090  0.000192 -0.000083
     7 C     0.000032 -0.000033  0.000058
     8 H     0.000076  0.000139  0.000032
     9 H     0.000022  0.000109 -0.000034
    10 H     0.000024  0.000112  0.000096
    11 C    -0.000047 -0.000239 -0.000062
    12 H    -0.000014  0.000003  0.000119
    13 H    -0.000035 -0.000086  0.000108
    14 H    -0.000020 -0.000001  0.000110
    15 C    -0.000085 -0.000085 -0.000055
    16 H    -0.000023 -0.000030 -0.000112
    17 H    -0.000014 -0.000038 -0.000011
    18 H    -0.000073 -0.000110 -0.000067
 ----------------------------------------
 
----------------------------------------------------------------------
Geometry Convergence after Step  10       (Hartree/Angstrom,Angstrom)
----------------------------------------------------------------------
current energy                               -3.57166922 Hartree
energy change                      -0.00000054     0.00018000    T
constrained gradient max            0.00020915     0.00010000    F
constrained gradient rms            0.00006505     0.00006667    T
gradient max                        0.00020914
gradient rms                        0.00006505
cart. step max                      0.00156559     0.01000000    T
cart. step rms                      0.00049372     0.00666667    T
 

--------
Geometry
--------
Formula: C6H10ClN
Atoms
  Index Symbol   x (angstrom)   y (angstrom)   z (angstrom)
      1      C    -0.15357691     0.00439251    -0.42133903
      2      C    -0.14141090    -0.07042100     1.14093291
      3     Cl     1.60205715     0.05298782    -1.08102309
      4      H    -1.20927112    -0.15420251     1.40022674
      5      C    -0.75481170    -1.21639780    -0.97314679
      6      N    -1.28667465    -2.16635410    -1.37870909
      7      C    -0.88734487     1.23860930    -0.97664699
      8      H    -0.93628638     1.19572851    -2.06750583
      9      H    -1.90848667     1.26135882    -0.57595938
     10      H    -0.36387230     2.15030348    -0.68031994
     11      C     0.41436082     1.20706153     1.79572378
     12      H    -0.17075513     2.09743472     1.54425708
     13      H     0.38876852     1.09124668     2.88532131
     14      H     1.45505620     1.37749643     1.49774742
     15      C     0.57619954    -1.32439371     1.67043239
     16      H     0.18947914    -2.23879735     1.20832757
     17      H     1.65246163    -1.26651109     1.47414263
     18      H     0.42887546    -1.40170556     2.75366052

Total System Charge              0.00000

 *** GO1_GOStep11 ***

 Energy gradients wrt nuclear displacements
 ==========================================

     Atom      Cartesian (a.u./angstrom)
                 X         Y         Z
 ----------------------------------------
     1 C     0.000104  0.000104  0.000047
     2 C    -0.000028 -0.000084  0.000025
     3 Cl    0.000012  0.000065  0.000024
     4 H    -0.000008 -0.000004 -0.000055
     5 C     0.000009  0.000055 -0.000103
     6 N     0.000015  0.000054 -0.000147
     7 C     0.000027  0.000063  0.000021
     8 H     0.000081  0.000125  0.000014
     9 H     0.000044  0.000053  0.000007
    10 H     0.000058  0.000072  0.000097
    11 C    -0.000013 -0.000121  0.000043
    12 H    -0.000036 -0.000024  0.000083
    13 H    -0.000042 -0.000113  0.000076
    14 H    -0.000029 -0.000045  0.000095
    15 C    -0.000095 -0.000002 -0.000060
    16 H    -0.000023 -0.000028 -0.000107
    17 H    -0.000014 -0.000060 -0.000007
    18 H    -0.000063 -0.000110 -0.000056
 ----------------------------------------
 
---------------------------------------------------------
Geometry Convergence after Step  11       ** CONVERGED **
---------------------------------------------------------
current energy                               -3.57166945 Hartree
energy change                      -0.00000024     0.00018000    T
constrained gradient max            0.00008036     0.00010000    T
constrained gradient rms            0.00002649     0.00006667    T
gradient max                        0.00008037
gradient rms                        0.00002649
cart. step max                      0.00069953     0.01000000    T
cart. step rms                      0.00023017     0.00666667    T
 
Geometry optimization converged

Optimized geometry:

--------
Geometry
--------
Formula: C6H10ClN
Atoms
  Index Symbol   x (angstrom)   y (angstrom)   z (angstrom)
      1      C    -0.15357691     0.00439251    -0.42133903
      2      C    -0.14141090    -0.07042100     1.14093291
      3     Cl     1.60205715     0.05298782    -1.08102309
      4      H    -1.20927112    -0.15420251     1.40022674
      5      C    -0.75481170    -1.21639780    -0.97314679
      6      N    -1.28667465    -2.16635410    -1.37870909
      7      C    -0.88734487     1.23860930    -0.97664699
      8      H    -0.93628638     1.19572851    -2.06750583
      9      H    -1.90848667     1.26135882    -0.57595938
     10      H    -0.36387230     2.15030348    -0.68031994
     11      C     0.41436082     1.20706153     1.79572378
     12      H    -0.17075513     2.09743472     1.54425708
     13      H     0.38876852     1.09124668     2.88532131
     14      H     1.45505620     1.37749643     1.49774742
     15      C     0.57619954    -1.32439371     1.67043239
     16      H     0.18947914    -2.23879735     1.20832757
     17      H     1.65246163    -1.26651109     1.47414263
     18      H     0.42887546    -1.40170556     2.75366052

Total System Charge              0.00000

Performing a single point calculation on the final geometry ...

 *** adf ***



 ===========================
 A T T A C H E D   F I L E S
 ===========================
  
 Restart/tmp/amstmp_c5_fragB_opt_kid0.467126327/GO1_GOStep11.rkf*** GO1_GOStep11 ***



 ===============================
 M O D E L   P A R A M E T E R S
 ===============================
  
 DENSITY FUNCTIONAL POTENTIAL (scf)
    LDA:                               Exchange only                           == Not Default ==
    Gradient Corrections:              Becke88 LYP                             == Not Default ==

 SPIN  (restricted / unrestr.)
    Molecule:                          Restricted                               
    Fragments:                         Restricted                               

 OTHER ASPECTS
    Relativistic Corrections:          scalar (ZORA,MAPA)                       

    Nuclear Charge Density Model:      Point Charge Nuclei                      
    Core Treatment:                    Frozen Orbital(s)                        

    Hyperfine or Zeeman Interaction:   ---                                      

 Settings for Grimme D3 dispersion correction

      damping                        BJ
      s6                          1.000
      s8                          2.700
      a1                          0.430
      a2                          4.236

 Other (technical) parameters

      alpha                      14.000
      version                         4
 



 ===============
 G E O M E T R Y  ***  3D  Molecule  ***
 ===============
  

 ATOMS
 =====                            X Y Z                    CHARGE
                                (Angstrom)             Nucl     +Core       At.Mass
                       --------------------------    ----------------       -------
    1  C              -0.1536    0.0044   -0.4213      6.00      6.00       12.0000
    2  C              -0.1414   -0.0704    1.1409      6.00      6.00       12.0000
    3  Cl              1.6021    0.0530   -1.0810     17.00     17.00       34.9689
    4  H              -1.2093   -0.1542    1.4002      1.00      1.00        1.0078
    5  C              -0.7548   -1.2164   -0.9731      6.00      6.00       12.0000
    6  N              -1.2867   -2.1664   -1.3787      7.00      7.00       14.0031
    7  C              -0.8873    1.2386   -0.9766      6.00      6.00       12.0000
    8  H              -0.9363    1.1957   -2.0675      1.00      1.00        1.0078
    9  H              -1.9085    1.2614   -0.5760      1.00      1.00        1.0078
   10  H              -0.3639    2.1503   -0.6803      1.00      1.00        1.0078
   11  C               0.4144    1.2071    1.7957      6.00      6.00       12.0000
   12  H              -0.1708    2.0974    1.5443      1.00      1.00        1.0078
   13  H               0.3888    1.0912    2.8853      1.00      1.00        1.0078
   14  H               1.4551    1.3775    1.4977      1.00      1.00        1.0078
   15  C               0.5762   -1.3244    1.6704      6.00      6.00       12.0000
   16  H               0.1895   -2.2388    1.2083      1.00      1.00        1.0078
   17  H               1.6525   -1.2665    1.4741      1.00      1.00        1.0078
   18  H               0.4289   -1.4017    2.7537      1.00      1.00        1.0078


 FRAGMENTS
 =========                                     Atoms in this Fragment     Cart. coord.s (Angstrom)
                                               -------------------------------------------------------
    1  C                                                 1  C           -0.1536    0.0044   -0.4213
    2  C                                                 2  C           -0.1414   -0.0704    1.1409
    3  C                                                 5  C           -0.7548   -1.2164   -0.9731
    4  C                                                 7  C           -0.8873    1.2386   -0.9766
    5  C                                                11  C            0.4144    1.2071    1.7957
    6  C                                                15  C            0.5762   -1.3244    1.6704
    7  Cl                                                3  Cl           1.6021    0.0530   -1.0810
    8  H                                                 4  H           -1.2093   -0.1542    1.4002
    9  H                                                 8  H           -0.9363    1.1957   -2.0675
   10  H                                                 9  H           -1.9085    1.2614   -0.5760
   11  H                                                10  H           -0.3639    2.1503   -0.6803
   12  H                                                12  H           -0.1708    2.0974    1.5443
   13  H                                                13  H            0.3888    1.0912    2.8853
   14  H                                                14  H            1.4551    1.3775    1.4977
   15  H                                                16  H            0.1895   -2.2388    1.2083
   16  H                                                17  H            1.6525   -1.2665    1.4741
   17  H                                                18  H            0.4289   -1.4017    2.7537
   18  N                                                 6  N           -1.2867   -2.1664   -1.3787


 Interatomic Distance Matrix (Angstrom)
 --------------------------------------

   1)     0.000
   2)     1.564   0.000
   3)     1.876   2.827   0.000
   4)     2.111   1.102   3.755   0.000
   5)     1.468   2.482   2.679   2.640   0.000
   6)     2.629   3.472   3.655   3.432   1.162   0.000
   7)     1.540   2.599   2.759   2.774   2.459   3.452   0.000
   8)     2.178   3.540   2.953   3.731   2.655   3.450   1.093   0.000
   9)     2.164   2.801   3.747   2.529   2.762   3.575   1.097   1.782   0.000
  10)     2.172   2.881   2.902   3.218   3.402   4.469   1.092   1.779   1.785   0.000
  11)     2.585   1.539   3.319   2.155   3.861   4.935   3.063   4.093   3.320   2.762
          0.000
  12)     2.871   2.205   3.770   2.484   4.202   5.289   2.758   3.801   2.866   2.234
          1.095   0.000
  13)     3.523   2.162   4.276   2.512   4.639   5.621   4.070   5.128   4.158   3.795
          1.096   1.767   0.000
  14)     2.856   2.185   2.903   3.075   4.209   5.324   3.410   4.297   3.953   2.941
          1.096   1.779   1.773   0.000
  15)     2.583   1.539   3.243   2.152   2.962   3.671   3.965   4.755   4.232   4.299
          2.540   3.505   2.710   2.846   0.000
  16)     2.794   2.195   3.534   2.518   2.588   2.979   4.246   4.878   4.454   4.810
          3.503   4.364   3.734   3.842   1.095   0.000
  17)     2.910   2.182   2.876   3.071   3.433   4.194   4.328   5.031   4.824   4.515
          2.785   3.827   3.024   2.651   1.096   1.777   0.000
  18)     3.521   2.168   4.266   2.464   3.915   4.539   4.756   5.644   4.862   5.004
          2.779   3.750   2.497   3.218   1.096   1.774   1.776   0.000

 Min. Distance =    1.0923
 Max. Distance =    5.6439



 =====================================
 S Y M M E T R Y ,   E L E C T R O N S
 =====================================
  
 Symmetry: NOSYM

 Irreducible Representations, including subspecies
 -------------------------------------------------
 A


 Configuration of Valence Electrons
 ==================================
 ( determined in the SCF procedure )

 Total:   70

 Net Charge: 0 (Nuclei minus Electrons)

 Aufbau principle for MO occupations will be applied through SCF cycle no.     100
 Thereafter, the program will assign electrons to MOs that are spatially
 similar to the occupied MOs in a "reference" cycle ("KeepOrbitals").
 The reference cycle is always the PREVIOUS cycle: it will evolve with
 the SCF procedure.
 ***************************************************************************************************



                                      ****************************************
                                      *  B U I L D : (Fragments, Functions)  *
                                      ****************************************
  



 =======
 S F O s  ***  (Symmetrized Fragment Orbitals)  ***
 =======
  
 SFOs are linear combinations of (valence) Fragment Orbitals (FOs), such that the SFOs transform as the
 irreducible representations of the (molecular) symmetry group. Each SFO is therefore characterized by
 an irrep of the molecule and by a few (or only one) generating FOs.
 The SFOs constitute a symmetry-adapted basis for the Fock matrix. The MO eigenvector coefficients in
 this basis provide a direct interpretation of the MOs in terms of Frontier Orbital Theory.

 The SFOs are combined with auxiliary Core Functions (CFs) to ensure orthogonalization on the (frozen)
 Core Orbitals (COs). The Core-orthogonalized SFOs (CSFOs) constitute the true Fock basis.

 The FOs, and hence also the (C)SFOs are combinations of the elementary basis functions (BAS). The basis
 functions that participate in the description of the SFOs depend on the irrep. The indices of the
 involved functions are printed below for each irrep.
 (The complete list of primitive basis functions is printed in another section)

 Total nr. of (C)SFOs (summation over all irreps) :   326

 NOTE: a (C)SFO that is defined as a combination of more than one FO is usually NOT normalized.



                                       === A ===
 Nr. of SFOs :  326
 Cartesian basis functions that participate in this irrep (total number =   368) :
      1     2     3     4     5     6     9    12     7    10
     13     8    11    14    15    16    17    18    19    20
     21    22    23    24    25    26    27    28    29    30
     31    32    33    34    35    36    39    42    37    40
     43    38    41    44    45    46    47    48    49    50
     51    52    53    54    55    56    57    58    59    60
     61    62    63    64    65    66    69    72    67    70
     73    68    71    74    75    76    77    78    79    80
     81    82    83    84    85    86    87    88    89    90
     91    92    93    94    95    96    99   102    97   100
    103    98   101   104   105   106   107   108   109   110
    111   112   113   114   115   116   117   118   119   120
    121   122   123   124   125   126   129   132   127   130
    133   128   131   134   135   136   137   138   139   140
    141   142   143   144   145   146   147   148   149   150
    151   152   153   154   155   156   159   162   157   160
    163   158   161   164   165   166   167   168   169   170
    171   172   173   174   175   176   177   178   179   180
    181   182   183   184   191   192   193   185   188   194
    197   200   186   189   195   198   201   187   190   196
    199   202   203   204   205   206   207   208   209   210
    211   212   213   214   215   216   217   218   219   220
    221   222   223   224   225   226   227   228   229   230
    231   232   233   234   235   236   237   238   239   240
    241   242   243   244   245   246   247   248   249   250
    251   252   253   254   255   256   257   258   259   260
    261   262   263   264   265   266   267   268   269   270
    271   272   273   274   275   276   277   278   279   280
    281   282   283   284   285   286   287   288   289   290
    291   292   293   294   295   296   297   298   299   300
    301   302   303   304   305   306   307   308   309   310
    311   312   313   314   315   316   317   318   319   320
    321   322   323   324   325   326   327   328   329   330
    331   332   333   334   335   336   337   338   339   340
    341   342   343   344   347   350   345   348   351   346
    349   352   353   354   355   356   357   358   359   360
    361   362   363   364   365   366   367   368

    SFO  (index         Fragment          Generating    Expansion in Fragment Orbitals
  indx  incl.CFs)   Occup   Orb.Energy   FragmentType  Coeff.   Orbital     on Fragment
 --------------------------------------------------------------------------------------
     1       1      2.000     -10.066 au  C             1.00      1 S               1
                        (    -273.921 eV)
     2       2      2.000      -0.501 au  C             1.00      2 S               1
                        (     -13.620 eV)
     3       3       --         0.373 au  C             1.00      3 S               1
                        (      10.158 eV)
     4       4       --         5.405 au  C             1.00      4 S               1
                        (     147.073 eV)
     5       5       --        49.848 au  C             1.00      5 S               1
                        (    1356.422 eV)
     6       6      0.667      -0.193 au  C             1.00      1 P:x             1
                        (      -5.239 eV)
     7       7       --         0.169 au  C             1.00      2 P:x             1
                        (       4.589 eV)
     8       8       --         2.013 au  C             1.00      3 P:x             1
                        (      54.789 eV)
     9       9      0.667      -0.193 au  C             1.00      1 P:y             1
                        (      -5.239 eV)
    10      10       --         0.169 au  C             1.00      2 P:y             1
                        (       4.589 eV)
    11      11       --         2.013 au  C             1.00      3 P:y             1
                        (      54.789 eV)
    12      12      0.667      -0.193 au  C             1.00      1 P:z             1
                        (      -5.239 eV)
    13      13       --         0.169 au  C             1.00      2 P:z             1
                        (       4.589 eV)
    14      14       --         2.013 au  C             1.00      3 P:z             1
                        (      54.789 eV)
    15      15       --         1.243 au  C             1.00      1 D:z2            1
                        (      33.824 eV)
    16      16       --         1.243 au  C             1.00      1 D:x2-y2         1
                        (      33.824 eV)
    17      17       --         1.243 au  C             1.00      1 D:xy            1
                        (      33.824 eV)
    18      18       --         1.243 au  C             1.00      1 D:xz            1
                        (      33.824 eV)
    19      19       --         1.243 au  C             1.00      1 D:yz            1
                        (      33.824 eV)
    20      20       --         4.016 au  C             1.00      1 F:z3            1
                        (     109.271 eV)
    21      21       --         4.016 au  C             1.00      1 F:z             1
                        (     109.271 eV)
    22      22       --         4.016 au  C             1.00      1 F:xyz           1
                        (     109.271 eV)
    23      23       --         4.016 au  C             1.00      1 F:z2x           1
                        (     109.271 eV)
    24      24       --         4.016 au  C             1.00      1 F:z2y           1
                        (     109.271 eV)
    25      25       --         4.016 au  C             1.00      1 F:x             1
                        (     109.271 eV)
    26      26       --         4.016 au  C             1.00      1 F:y             1
                        (     109.271 eV)
    27      27      2.000     -10.066 au  C             1.00      1 S               2
                        (    -273.921 eV)
    28      28      2.000      -0.501 au  C             1.00      2 S               2
                        (     -13.620 eV)
    29      29       --         0.373 au  C             1.00      3 S               2
                        (      10.158 eV)
    30      30       --         5.405 au  C             1.00      4 S               2
                        (     147.073 eV)
    31      31       --        49.848 au  C             1.00      5 S               2
                        (    1356.422 eV)
    32      32      0.667      -0.193 au  C             1.00      1 P:x             2
                        (      -5.239 eV)
    33      33       --         0.169 au  C             1.00      2 P:x             2
                        (       4.589 eV)
    34      34       --         2.013 au  C             1.00      3 P:x             2
                        (      54.789 eV)
    35      35      0.667      -0.193 au  C             1.00      1 P:y             2
                        (      -5.239 eV)
    36      36       --         0.169 au  C             1.00      2 P:y             2
                        (       4.589 eV)
    37      37       --         2.013 au  C             1.00      3 P:y             2
                        (      54.789 eV)
    38      38      0.667      -0.193 au  C             1.00      1 P:z             2
                        (      -5.239 eV)
    39      39       --         0.169 au  C             1.00      2 P:z             2
                        (       4.589 eV)
    40      40       --         2.013 au  C             1.00      3 P:z             2
                        (      54.789 eV)
    41      41       --         1.243 au  C             1.00      1 D:z2            2
                        (      33.824 eV)
    42      42       --         1.243 au  C             1.00      1 D:x2-y2         2
                        (      33.824 eV)
    43      43       --         1.243 au  C             1.00      1 D:xy            2
                        (      33.824 eV)
    44      44       --         1.243 au  C             1.00      1 D:xz            2
                        (      33.824 eV)
    45      45       --         1.243 au  C             1.00      1 D:yz            2
                        (      33.824 eV)
    46      46       --         4.016 au  C             1.00      1 F:z3            2
                        (     109.271 eV)
    47      47       --         4.016 au  C             1.00      1 F:z             2
                        (     109.271 eV)
    48      48       --         4.016 au  C             1.00      1 F:xyz           2
                        (     109.271 eV)
    49      49       --         4.016 au  C             1.00      1 F:z2x           2
                        (     109.271 eV)
    50      50       --         4.016 au  C             1.00      1 F:z2y           2
                        (     109.271 eV)
    51      51       --         4.016 au  C             1.00      1 F:x             2
                        (     109.271 eV)
    52      52       --         4.016 au  C             1.00      1 F:y             2
                        (     109.271 eV)
    53      53      2.000     -10.066 au  C             1.00      1 S               3
                        (    -273.921 eV)
    54      54      2.000      -0.501 au  C             1.00      2 S               3
                        (     -13.620 eV)
    55      55       --         0.373 au  C             1.00      3 S               3
                        (      10.158 eV)
    56      56       --         5.405 au  C             1.00      4 S               3
                        (     147.073 eV)
    57      57       --        49.848 au  C             1.00      5 S               3
                        (    1356.422 eV)
    58      58      0.667      -0.193 au  C             1.00      1 P:x             3
                        (      -5.239 eV)
    59      59       --         0.169 au  C             1.00      2 P:x             3
                        (       4.589 eV)
    60      60       --         2.013 au  C             1.00      3 P:x             3
                        (      54.789 eV)
    61      61      0.667      -0.193 au  C             1.00      1 P:y             3
                        (      -5.239 eV)
    62      62       --         0.169 au  C             1.00      2 P:y             3
                        (       4.589 eV)
    63      63       --         2.013 au  C             1.00      3 P:y             3
                        (      54.789 eV)
    64      64      0.667      -0.193 au  C             1.00      1 P:z             3
                        (      -5.239 eV)
    65      65       --         0.169 au  C             1.00      2 P:z             3
                        (       4.589 eV)
    66      66       --         2.013 au  C             1.00      3 P:z             3
                        (      54.789 eV)
    67      67       --         1.243 au  C             1.00      1 D:z2            3
                        (      33.824 eV)
    68      68       --         1.243 au  C             1.00      1 D:x2-y2         3
                        (      33.824 eV)
    69      69       --         1.243 au  C             1.00      1 D:xy            3
                        (      33.824 eV)
    70      70       --         1.243 au  C             1.00      1 D:xz            3
                        (      33.824 eV)
    71      71       --         1.243 au  C             1.00      1 D:yz            3
                        (      33.824 eV)
    72      72       --         4.016 au  C             1.00      1 F:z3            3
                        (     109.271 eV)
    73      73       --         4.016 au  C             1.00      1 F:z             3
                        (     109.271 eV)
    74      74       --         4.016 au  C             1.00      1 F:xyz           3
                        (     109.271 eV)
    75      75       --         4.016 au  C             1.00      1 F:z2x           3
                        (     109.271 eV)
    76      76       --         4.016 au  C             1.00      1 F:z2y           3
                        (     109.271 eV)
    77      77       --         4.016 au  C             1.00      1 F:x             3
                        (     109.271 eV)
    78      78       --         4.016 au  C             1.00      1 F:y             3
                        (     109.271 eV)
    79      79      2.000     -10.066 au  C             1.00      1 S               4
                        (    -273.921 eV)
    80      80      2.000      -0.501 au  C             1.00      2 S               4
                        (     -13.620 eV)
    81      81       --         0.373 au  C             1.00      3 S               4
                        (      10.158 eV)
    82      82       --         5.405 au  C             1.00      4 S               4
                        (     147.073 eV)
    83      83       --        49.848 au  C             1.00      5 S               4
                        (    1356.422 eV)
    84      84      0.667      -0.193 au  C             1.00      1 P:x             4
                        (      -5.239 eV)
    85      85       --         0.169 au  C             1.00      2 P:x             4
                        (       4.589 eV)
    86      86       --         2.013 au  C             1.00      3 P:x             4
                        (      54.789 eV)
    87      87      0.667      -0.193 au  C             1.00      1 P:y             4
                        (      -5.239 eV)
    88      88       --         0.169 au  C             1.00      2 P:y             4
                        (       4.589 eV)
    89      89       --         2.013 au  C             1.00      3 P:y             4
                        (      54.789 eV)
    90      90      0.667      -0.193 au  C             1.00      1 P:z             4
                        (      -5.239 eV)
    91      91       --         0.169 au  C             1.00      2 P:z             4
                        (       4.589 eV)
    92      92       --         2.013 au  C             1.00      3 P:z             4
                        (      54.789 eV)
    93      93       --         1.243 au  C             1.00      1 D:z2            4
                        (      33.824 eV)
    94      94       --         1.243 au  C             1.00      1 D:x2-y2         4
                        (      33.824 eV)
    95      95       --         1.243 au  C             1.00      1 D:xy            4
                        (      33.824 eV)
    96      96       --         1.243 au  C             1.00      1 D:xz            4
                        (      33.824 eV)
    97      97       --         1.243 au  C             1.00      1 D:yz            4
                        (      33.824 eV)
    98      98       --         4.016 au  C             1.00      1 F:z3            4
                        (     109.271 eV)
    99      99       --         4.016 au  C             1.00      1 F:z             4
                        (     109.271 eV)
   100     100       --         4.016 au  C             1.00      1 F:xyz           4
                        (     109.271 eV)
   101     101       --         4.016 au  C             1.00      1 F:z2x           4
                        (     109.271 eV)
   102     102       --         4.016 au  C             1.00      1 F:z2y           4
                        (     109.271 eV)
   103     103       --         4.016 au  C             1.00      1 F:x             4
                        (     109.271 eV)
   104     104       --         4.016 au  C             1.00      1 F:y             4
                        (     109.271 eV)
   105     105      2.000     -10.066 au  C             1.00      1 S               5
                        (    -273.921 eV)
   106     106      2.000      -0.501 au  C             1.00      2 S               5
                        (     -13.620 eV)
   107     107       --         0.373 au  C             1.00      3 S               5
                        (      10.158 eV)
   108     108       --         5.405 au  C             1.00      4 S               5
                        (     147.073 eV)
   109     109       --        49.848 au  C             1.00      5 S               5
                        (    1356.422 eV)
   110     110      0.667      -0.193 au  C             1.00      1 P:x             5
                        (      -5.239 eV)
   111     111       --         0.169 au  C             1.00      2 P:x             5
                        (       4.589 eV)
   112     112       --         2.013 au  C             1.00      3 P:x             5
                        (      54.789 eV)
   113     113      0.667      -0.193 au  C             1.00      1 P:y             5
                        (      -5.239 eV)
   114     114       --         0.169 au  C             1.00      2 P:y             5
                        (       4.589 eV)
   115     115       --         2.013 au  C             1.00      3 P:y             5
                        (      54.789 eV)
   116     116      0.667      -0.193 au  C             1.00      1 P:z             5
                        (      -5.239 eV)
   117     117       --         0.169 au  C             1.00      2 P:z             5
                        (       4.589 eV)
   118     118       --         2.013 au  C             1.00      3 P:z             5
                        (      54.789 eV)
   119     119       --         1.243 au  C             1.00      1 D:z2            5
                        (      33.824 eV)
   120     120       --         1.243 au  C             1.00      1 D:x2-y2         5
                        (      33.824 eV)
   121     121       --         1.243 au  C             1.00      1 D:xy            5
                        (      33.824 eV)
   122     122       --         1.243 au  C             1.00      1 D:xz            5
                        (      33.824 eV)
   123     123       --         1.243 au  C             1.00      1 D:yz            5
                        (      33.824 eV)
   124     124       --         4.016 au  C             1.00      1 F:z3            5
                        (     109.271 eV)
   125     125       --         4.016 au  C             1.00      1 F:z             5
                        (     109.271 eV)
   126     126       --         4.016 au  C             1.00      1 F:xyz           5
                        (     109.271 eV)
   127     127       --         4.016 au  C             1.00      1 F:z2x           5
                        (     109.271 eV)
   128     128       --         4.016 au  C             1.00      1 F:z2y           5
                        (     109.271 eV)
   129     129       --         4.016 au  C             1.00      1 F:x             5
                        (     109.271 eV)
   130     130       --         4.016 au  C             1.00      1 F:y             5
                        (     109.271 eV)
   131     131      2.000     -10.066 au  C             1.00      1 S               6
                        (    -273.921 eV)
   132     132      2.000      -0.501 au  C             1.00      2 S               6
                        (     -13.620 eV)
   133     133       --         0.373 au  C             1.00      3 S               6
                        (      10.158 eV)
   134     134       --         5.405 au  C             1.00      4 S               6
                        (     147.073 eV)
   135     135       --        49.848 au  C             1.00      5 S               6
                        (    1356.422 eV)
   136     136      0.667      -0.193 au  C             1.00      1 P:x             6
                        (      -5.239 eV)
   137     137       --         0.169 au  C             1.00      2 P:x             6
                        (       4.589 eV)
   138     138       --         2.013 au  C             1.00      3 P:x             6
                        (      54.789 eV)
   139     139      0.667      -0.193 au  C             1.00      1 P:y             6
                        (      -5.239 eV)
   140     140       --         0.169 au  C             1.00      2 P:y             6
                        (       4.589 eV)
   141     141       --         2.013 au  C             1.00      3 P:y             6
                        (      54.789 eV)
   142     142      0.667      -0.193 au  C             1.00      1 P:z             6
                        (      -5.239 eV)
   143     143       --         0.169 au  C             1.00      2 P:z             6
                        (       4.589 eV)
   144     144       --         2.013 au  C             1.00      3 P:z             6
                        (      54.789 eV)
   145     145       --         1.243 au  C             1.00      1 D:z2            6
                        (      33.824 eV)
   146     146       --         1.243 au  C             1.00      1 D:x2-y2         6
                        (      33.824 eV)
   147     147       --         1.243 au  C             1.00      1 D:xy            6
                        (      33.824 eV)
   148     148       --         1.243 au  C             1.00      1 D:xz            6
                        (      33.824 eV)
   149     149       --         1.243 au  C             1.00      1 D:yz            6
                        (      33.824 eV)
   150     150       --         4.016 au  C             1.00      1 F:z3            6
                        (     109.271 eV)
   151     151       --         4.016 au  C             1.00      1 F:z             6
                        (     109.271 eV)
   152     152       --         4.016 au  C             1.00      1 F:xyz           6
                        (     109.271 eV)
   153     153       --         4.016 au  C             1.00      1 F:z2x           6
                        (     109.271 eV)
   154     154       --         4.016 au  C             1.00      1 F:z2y           6
                        (     109.271 eV)
   155     155       --         4.016 au  C             1.00      1 F:x             6
                        (     109.271 eV)
   156     156       --         4.016 au  C             1.00      1 F:y             6
                        (     109.271 eV)
   157     157      2.000    -101.116 au  Cl            1.00      1 S               7
                        (   -2751.516 eV)
   158     158      2.000      -9.276 au  Cl            1.00      2 S               7
                        (    -252.419 eV)
   159     159      2.000      -0.754 au  Cl            1.00      3 S               7
                        (     -20.523 eV)
   160     160       --         0.194 au  Cl            1.00      4 S               7
                        (       5.292 eV)
   161     161       --         1.998 au  Cl            1.00      5 S               7
                        (      54.377 eV)
   162     162       --        12.618 au  Cl            1.00      6 S               7
                        (     343.355 eV)
   163     163       --       205.328 au  Cl            1.00      7 S               7
                        (    5587.258 eV)
   164     164      2.000      -7.038 au  Cl            1.00      1 P:x             7
                        (    -191.503 eV)
   165     165      1.667      -0.310 au  Cl            1.00      2 P:x             7
                        (      -8.439 eV)
   166     166       --         0.226 au  Cl            1.00      3 P:x             7
                        (       6.147 eV)
   167     167       --         2.102 au  Cl            1.00      4 P:x             7
                        (      57.194 eV)
   168     168       --        18.665 au  Cl            1.00      5 P:x             7
                        (     507.904 eV)
   169     169      2.000      -7.038 au  Cl            1.00      1 P:y             7
                        (    -191.503 eV)
   170     170      1.667      -0.310 au  Cl            1.00      2 P:y             7
                        (      -8.439 eV)
   171     171       --         0.226 au  Cl            1.00      3 P:y             7
                        (       6.147 eV)
   172     172       --         2.102 au  Cl            1.00      4 P:y             7
                        (      57.194 eV)
   173     173       --        18.665 au  Cl            1.00      5 P:y             7
                        (     507.904 eV)
   174     174      2.000      -7.038 au  Cl            1.00      1 P:z             7
                        (    -191.503 eV)
   175     175      1.667      -0.310 au  Cl            1.00      2 P:z             7
                        (      -8.439 eV)
   176     176       --         0.226 au  Cl            1.00      3 P:z             7
                        (       6.147 eV)
   177     177       --         2.102 au  Cl            1.00      4 P:z             7
                        (      57.194 eV)
   178     178       --        18.665 au  Cl            1.00      5 P:z             7
                        (     507.904 eV)
   179     179       --         0.388 au  Cl            1.00      1 D:z2            7
                        (      10.568 eV)
   180     180       --         0.388 au  Cl            1.00      1 D:x2-y2         7
                        (      10.568 eV)
   181     181       --         0.388 au  Cl            1.00      1 D:xy            7
                        (      10.568 eV)
   182     182       --         0.388 au  Cl            1.00      1 D:xz            7
                        (      10.568 eV)
   183     183       --         0.388 au  Cl            1.00      1 D:yz            7
                        (      10.568 eV)
   184     184       --         1.191 au  Cl            1.00      1 F:z3            7
                        (      32.399 eV)
   185     185       --         1.191 au  Cl            1.00      1 F:z             7
                        (      32.399 eV)
   186     186       --         1.191 au  Cl            1.00      1 F:xyz           7
                        (      32.399 eV)
   187     187       --         1.191 au  Cl            1.00      1 F:z2x           7
                        (      32.399 eV)
   188     188       --         1.191 au  Cl            1.00      1 F:z2y           7
                        (      32.399 eV)
   189     189       --         1.191 au  Cl            1.00      1 F:x             7
                        (      32.399 eV)
   190     190       --         1.191 au  Cl            1.00      1 F:y             7
                        (      32.399 eV)
   191     191      1.000      -0.240 au  H             1.00      1 S               8
                        (      -6.532 eV)
   192     192       --         0.088 au  H             1.00      2 S               8
                        (       2.394 eV)
   193     193       --         1.502 au  H             1.00      3 S               8
                        (      40.869 eV)
   194     194       --         0.406 au  H             1.00      1 P:x             8
                        (      11.051 eV)
   195     195       --         0.406 au  H             1.00      1 P:y             8
                        (      11.051 eV)
   196     196       --         0.406 au  H             1.00      1 P:z             8
                        (      11.051 eV)
   197     197       --         2.569 au  H             1.00      1 D:z2            8
                        (      69.917 eV)
   198     198       --         2.569 au  H             1.00      1 D:x2-y2         8
                        (      69.917 eV)
   199     199       --         2.569 au  H             1.00      1 D:xy            8
                        (      69.917 eV)
   200     200       --         2.569 au  H             1.00      1 D:xz            8
                        (      69.917 eV)
   201     201       --         2.569 au  H             1.00      1 D:yz            8
                        (      69.917 eV)
   202     202      1.000      -0.240 au  H             1.00      1 S               9
                        (      -6.532 eV)
   203     203       --         0.088 au  H             1.00      2 S               9
                        (       2.394 eV)
   204     204       --         1.502 au  H             1.00      3 S               9
                        (      40.869 eV)
   205     205       --         0.406 au  H             1.00      1 P:x             9
                        (      11.051 eV)
   206     206       --         0.406 au  H             1.00      1 P:y             9
                        (      11.051 eV)
   207     207       --         0.406 au  H             1.00      1 P:z             9
                        (      11.051 eV)
   208     208       --         2.569 au  H             1.00      1 D:z2            9
                        (      69.917 eV)
   209     209       --         2.569 au  H             1.00      1 D:x2-y2         9
                        (      69.917 eV)
   210     210       --         2.569 au  H             1.00      1 D:xy            9
                        (      69.917 eV)
   211     211       --         2.569 au  H             1.00      1 D:xz            9
                        (      69.917 eV)
   212     212       --         2.569 au  H             1.00      1 D:yz            9
                        (      69.917 eV)
   213     213      1.000      -0.240 au  H             1.00      1 S              10
                        (      -6.532 eV)
   214     214       --         0.088 au  H             1.00      2 S              10
                        (       2.394 eV)
   215     215       --         1.502 au  H             1.00      3 S              10
                        (      40.869 eV)
   216     216       --         0.406 au  H             1.00      1 P:x            10
                        (      11.051 eV)
   217     217       --         0.406 au  H             1.00      1 P:y            10
                        (      11.051 eV)
   218     218       --         0.406 au  H             1.00      1 P:z            10
                        (      11.051 eV)
   219     219       --         2.569 au  H             1.00      1 D:z2           10
                        (      69.917 eV)
   220     220       --         2.569 au  H             1.00      1 D:x2-y2        10
                        (      69.917 eV)
   221     221       --         2.569 au  H             1.00      1 D:xy           10
                        (      69.917 eV)
   222     222       --         2.569 au  H             1.00      1 D:xz           10
                        (      69.917 eV)
   223     223       --         2.569 au  H             1.00      1 D:yz           10
[...]
                                    6.88%     1 P:y            -5.239  0.67     1 C
                                    6.21%     1 P:x            -5.239  0.67     6 C
                                    5.55%     1 P:x            -5.239  0.67     4 C
                                    5.54%     1 P:x            -5.239  0.67     1 C
                                    5.43%     1 P:z            -5.239  0.67     4 C
                                    4.87%     2 S               2.394  0.00     8 H
                                    4.80%     1 P:x            -5.239  0.67     3 C
                                   -4.59%     2 P:x             4.589  0.00     1 C
                                    4.41%     1 P:y            -5.239  0.67     6 C
                                    4.35%     2 S               2.394  0.00    11 H
                                   -4.20%     2 P:y             4.589  0.00     5 C
                                   -3.98%     2 P:y             4.589  0.00     1 C
                                    3.97%     1 S              -6.532  1.00    15 H
                                   -3.58%     2 P:z             4.589  0.00     4 C
                                    3.57%     1 S              -6.532  1.00     9 H
                                   -3.43%     2 P:z             4.589  0.00     6 C
                                   -3.43%     2 S               2.394  0.00    17 H
                                   -3.22%     3 S              10.158  0.00     1 C
                                   -2.95%     2 P:z             4.589  0.00     5 C
                                    2.84%     2 S             -13.620  2.00     1 C
                                    2.57%     1 S              -6.532  1.00     8 H
                                    2.39%     1 P:z            -5.239  0.67     5 C
                                    2.34%     2 P:z             4.589  0.00     3 C
                                    2.13%     2 S             -13.620  2.00     2 C
                                   -2.07%     3 S              10.158  0.00     2 C
                                    1.78%     1 P:x            -7.062  1.00    18 N
                                    1.72%     1 S              -6.532  1.00    11 H
                                   -1.70%     2 P:x             4.589  0.00     4 C
                                   -1.60%     2 S               2.394  0.00    16 H
                                    1.57%     2 S               2.394  0.00    15 H
                                    1.39%     3 S              40.869  0.00    12 H
                                    1.37%     2 P:x             4.589  0.00     6 C
                                   -1.31%     2 S               2.394  0.00    12 H
                                    1.17%     1 P:z            -5.239  0.67     6 C
                                   -1.15%     2 P:y             4.589  0.00     2 C
                                    1.11%     2 S             -13.620  2.00     4 C
                                   -1.10%     2 S               2.394  0.00    10 H
                                   -1.05%     2 P:x             4.589  0.00     3 C
                                   -1.02%     2 P:x             4.589  0.00     2 C
       3.071  0.00    50 A         23.10%     1 P:y            -5.239  0.67     5 C
                                   20.36%     1 P:y            -5.239  0.67     6 C
                                  -14.91%     2 P:x             4.589  0.00     2 C
                                   12.52%     2 P:y             4.589  0.00     6 C
                                   11.98%     1 P:x            -5.239  0.67     2 C
                                   11.11%     2 P:y             4.589  0.00     5 C
                                    9.26%     1 S              -6.532  1.00    12 H
                                    8.65%     1 P:z            -5.239  0.67     2 C
                                   -7.04%     2 S               2.394  0.00    12 H
                                   -5.99%     2 P:z             4.589  0.00     1 C
                                   -5.06%     2 P:z             4.589  0.00     2 C
                                   -4.91%     3 S              10.158  0.00     2 C
                                    4.28%     2 S             -13.620  2.00     2 C
                                    4.28%     1 P:x            -5.239  0.67     4 C
                                    4.26%     2 P:z             4.589  0.00     4 C
                                    3.88%     1 S              -6.532  1.00    17 H
                                    3.33%     1 S              -6.532  1.00    15 H
                                   -2.77%     2 S               2.394  0.00    15 H
                                    2.31%     2 S               2.394  0.00    13 H
                                    1.95%     2 S               2.394  0.00     9 H
                                    1.81%     2 P:y             4.589  0.00     3 C
                                    1.76%     2 P:x             4.589  0.00     4 C
                                   -1.54%     3 S              14.073  0.00    18 N
                                   -1.51%     2 P:x             4.589  0.00     1 C
                                    1.46%     1 P:y            -5.239  0.67     1 C
                                    1.43%     1 S              -6.532  1.00     8 H
                                    1.31%     1 S              -6.532  1.00    14 H
                                    1.28%     2 S               2.394  0.00    16 H
                                    1.15%     1 P:y            -5.239  0.67     4 C
                                   -1.13%     2 S               2.394  0.00    10 H
                                   -1.08%     2 P:y             4.589  0.00     1 C
                                    1.04%     1 S              -6.532  1.00    16 H
                                    1.04%     1 S              -6.532  1.00    10 H

 Energy gradients wrt nuclear displacements
 ==========================================

     Atom      Cartesian (a.u./angstrom)
                 X         Y         Z
 ----------------------------------------
     1 C     0.000104  0.000104  0.000047
     2 C    -0.000028 -0.000084  0.000025
     3 Cl    0.000012  0.000065  0.000024
     4 H    -0.000008 -0.000004 -0.000055
     5 C     0.000009  0.000055 -0.000103
     6 N     0.000015  0.000054 -0.000147
     7 C     0.000027  0.000063  0.000021
     8 H     0.000081  0.000125  0.000014
     9 H     0.000044  0.000053  0.000007
    10 H     0.000058  0.000072  0.000097
    11 C    -0.000013 -0.000121  0.000043
    12 H    -0.000036 -0.000024  0.000083
    13 H    -0.000042 -0.000113  0.000076
    14 H    -0.000029 -0.000045  0.000095
    15 C    -0.000095 -0.000002 -0.000060
    16 H    -0.000023 -0.000028 -0.000107
    17 H    -0.000014 -0.000060 -0.000007
    18 H    -0.000063 -0.000110 -0.000056
 ----------------------------------------



 =======================================================================
 Electrostatic potential at the Nuclei due to electrons and other nuclei
 =======================================================================
  
         Atom                  Potential
         ----                  ---------
     1)   C                  14.66781707
     2)   C                  14.74367564
     3)   Cl                 64.85973549
     4)   H                   1.09419034
     5)   C                  14.75683782
     6)   N                  18.42931585
     7)   C                  14.76075770
     8)   H                   1.09010903
     9)   H                   1.08351760
    10)   H                   1.08772982
    11)   C                  14.77913204
    12)   H                   1.10437740
    13)   H                   1.10326296
    14)   H                   1.10597230
    15)   C                  14.78569121
    16)   H                   1.11167178
    17)   H                   1.11236287
    18)   H                   1.10898222
 Mulliken charges used for AMS results%charges...


    =====================
     CALCULATION RESULTS
    =====================

Energy (hartree)            -3.57166945

Gradients (hartree/bohr)
  Index   Atom            d/dx            d/dy            d/dz
      1      C    0.0000550852    0.0000549952    0.0000247919
      2      C   -0.0000148902   -0.0000447102    0.0000131497
      3     Cl    0.0000065898    0.0000344102    0.0000129056
      4      H   -0.0000042907   -0.0000019240   -0.0000288928
      5      C    0.0000047680    0.0000290037   -0.0000544515
      6      N    0.0000081035    0.0000283421   -0.0000776004
      7      C    0.0000143432    0.0000333860    0.0000110293
      8      H    0.0000427559    0.0000662314    0.0000076206
      9      H    0.0000231740    0.0000281872    0.0000038998
     10      H    0.0000307004    0.0000380621    0.0000515275
     11      C   -0.0000067195   -0.0000638181    0.0000226203
     12      H   -0.0000190926   -0.0000127739    0.0000436890
     13      H   -0.0000220052   -0.0000599193    0.0000404358
     14      H   -0.0000153683   -0.0000238447    0.0000503321
     15      C   -0.0000504620   -0.0000009525   -0.0000315157
     16      H   -0.0000119605   -0.0000148305   -0.0000564456
     17      H   -0.0000072814   -0.0000318366   -0.0000036244
     18      H   -0.0000334494   -0.0000580080   -0.0000294712


--------------
Atomic charges
--------------
  Index   Atom    Charge
      1      C    0.0229
      2      C    0.1699
      3     Cl   -0.1682
      4      H   -0.1541
      5      C    0.1379
      6      N   -0.2529
      7      C    0.7231
      8      H   -0.1983
      9      H   -0.2047
     10      H   -0.1883
     11      C    0.7167
     12      H   -0.2435
     13      H   -0.2262
     14      H   -0.1996
     15      C    0.7074
     16      H   -0.2094
     17      H   -0.1998
     18      H   -0.2330


Dipole moment vector    (Debye):    -0.13424085    3.14356083    2.46666200
              magnitude (Debye):     3.99805162


-----------------------
Molecular orbitals info
-----------------------
n orbitals:              326
n spin:                    1

Note: only printing virtual orbitals with
      energy smaller than HOMO + 100. eV

HOMO (eV):              -7.4299
LUMO (eV):              -2.0798
HOMO-LUMO gap (eV):      5.3502

   Index   Energy (eV)    Occupation
     212       92.2829         0.000       
     211       91.7784         0.000       
     210       90.2947         0.000       
     209       89.5839         0.000       
     208       87.3230         0.000       
     207       86.8833         0.000       
     206       85.8959         0.000       
     205       84.6994         0.000       
     204       84.0857         0.000       
     203       83.3299         0.000       
     202       82.6431         0.000       
     201       82.2597         0.000       
     200       81.7861         0.000       
     199       81.1169         0.000       
     198       80.6327         0.000       
     197       80.0500         0.000       
     196       79.3609         0.000       
     195       78.8170         0.000       
     194       78.2059         0.000       
     193       77.7990         0.000       
     192       77.4094         0.000       
     191       77.2859         0.000       
     190       76.7449         0.000       
     189       76.2870         0.000       
     188       75.8854         0.000       
     187       74.8061         0.000       
     186       74.2832         0.000       
     185       72.8591         0.000       
     184       71.8837         0.000       
     183       71.4459         0.000       
     182       70.7009         0.000       
     181       70.0098         0.000       
     180       69.1020         0.000       
     179       68.7791         0.000       
     178       67.5507         0.000       
     177       66.7416         0.000       
     176       66.2666         0.000       
     175       65.4041         0.000       
     174       64.5292         0.000       
     173       64.3121         0.000       
     172       63.6853         0.000       
     171       63.5986         0.000       
     170       62.3543         0.000       
     169       61.1749         0.000       
     168       60.9496         0.000       
     167       60.0763         0.000       
     166       59.5710         0.000       
     165       58.2322         0.000       
     164       57.6212         0.000       
     163       57.2219         0.000       
     162       56.8520         0.000       
     161       56.2224         0.000       
     160       54.2810         0.000       
     159       53.9837         0.000       
     158       53.0029         0.000       
     157       52.6543         0.000       
     156       52.2636         0.000       
     155       51.0545         0.000       
     154       50.6789         0.000       
     153       50.3221         0.000       
     152       49.6539         0.000       
     151       49.1300         0.000       
     150       48.2818         0.000       
     149       47.6154         0.000       
     148       47.5032         0.000       
     147       46.6474         0.000       
     146       46.3269         0.000       
     145       45.3749         0.000       
     144       44.9517         0.000       
     143       43.6543         0.000       
     142       43.4174         0.000       
     141       42.4158         0.000       
     140       41.7531         0.000       
     139       40.7037         0.000       
     138       40.2869         0.000       
     137       40.0446         0.000       
     136       39.4931         0.000       
     135       39.1344         0.000       
     134       38.4863         0.000       
     133       37.7994         0.000       
     132       37.0613         0.000       
     131       36.4631         0.000       
     130       36.3228         0.000       
     129       36.0594         0.000       
     128       35.4290         0.000       
     127       34.7177         0.000       
     126       34.5643         0.000       
     125       34.4204         0.000       
     124       34.0338         0.000       
     123       33.9195         0.000       
     122       33.0793         0.000       
     121       32.8096         0.000       
     120       32.7267         0.000       
     119       32.1965         0.000       
     118       31.9916         0.000       
     117       31.1945         0.000       
     116       30.4415         0.000       
     115       30.0388         0.000       
     114       29.9419         0.000       
     113       29.4783         0.000       
     112       29.0846         0.000       
     111       28.7042         0.000       
     110       28.6234         0.000       
     109       28.4255         0.000       
     108       27.9828         0.000       
     107       26.7755         0.000       
     106       26.6654         0.000       
     105       26.4230         0.000       
     104       26.2132         0.000       
     103       25.3196         0.000       
     102       24.7329         0.000       
     101       24.6085         0.000       
     100       23.2836         0.000       
      99       22.7570         0.000       
      98       22.5792         0.000       
      97       21.4203         0.000       
      96       20.8330         0.000       
      95       20.5802         0.000       
      94       19.2242         0.000       
      93       18.0329         0.000       
      92       17.6624         0.000       
      91       17.4061         0.000       
      90       16.7781         0.000       
      89       15.6605         0.000       
      88       15.2099         0.000       
      87       14.7317         0.000       
      86       13.6254         0.000       
      85       13.4531         0.000       
      84       13.1842         0.000       
      83       12.8706         0.000       
      82       12.4842         0.000       
      81       12.1584         0.000       
      80       11.5270         0.000       
      79       11.4363         0.000       
      78       11.2806         0.000       
      77       10.9414         0.000       
      76       10.8006         0.000       
      75       10.5699         0.000       
      74       10.4590         0.000       
      73       10.3377         0.000       
      72        9.8398         0.000       
      71        9.4594         0.000       
      70        9.2314         0.000       
      69        8.8821         0.000       
      68        8.4318         0.000       
      67        8.3782         0.000       
      66        8.1469         0.000       
      65        7.5431         0.000       
      64        7.3746         0.000       
      63        6.6738         0.000       
      62        6.5856         0.000       
      61        6.2712         0.000       
      60        6.1065         0.000       
      59        5.5178         0.000       
      58        5.2419         0.000       
      57        5.1684         0.000       
      56        4.7364         0.000       
      55        4.4568         0.000       
      54        4.1525         0.000       
      53        3.9077         0.000       
      52        3.5404         0.000       
      51        3.4103         0.000       
      50        3.0711         0.000       
      49        2.5608         0.000       
      48        2.4175         0.000       
      47        1.9922         0.000       
      46        1.7480         0.000       
      45        1.6111         0.000       
      44        1.3683         0.000       
      43        1.2329         0.000       
      42        0.7153         0.000       
      41        0.3761         0.000       
      40        0.2634         0.000       
      39        0.0737         0.000       
      38       -0.4057         0.000       
      37       -0.6969         0.000       
      36       -2.0798         0.000 < LUMO
      35       -7.4299         2.000 < HOMO
      34       -7.4717         2.000       
      33       -8.1698         2.000       
      32       -8.2980         2.000       
      31       -8.5913         2.000       
      30       -8.7175         2.000       
      29       -8.8743         2.000       
      28       -9.1322         2.000       
      27       -9.6371         2.000       
      26       -9.9865         2.000       
      25      -10.0203         2.000       
      24      -10.2626         2.000       
      23      -11.1279         2.000       
      22      -11.6459         2.000       
      21      -11.8254         2.000       
      20      -12.9135         2.000       
      19      -14.8094         2.000       
      18      -16.6480         2.000       
      17      -17.4169         2.000       
      16      -18.9571         2.000       
      15      -20.0091         2.000       
      14      -21.9116         2.000       
      13      -22.9114         2.000       
      12     -190.3399         2.000       
      11     -190.3444         2.000       
      10     -190.6433         2.000       
       9     -251.3891         2.000       
       8     -270.0030         2.000       
       7     -270.1795         2.000       
       6     -270.7018         2.000       
       5     -271.1149         2.000       
       4     -271.2554         2.000       
       3     -273.2003         2.000       
       2     -381.7834         2.000       
       1    -2750.6504         2.000       

AMS application finished. Exiting.
NORMAL TERMINATION
     Total cpu time:     703.10
  Total system time:       3.08
 Total elapsed time:     708.39
NORMAL TERMINATION
