
                                 *****************
                                 * O   R   C   A *
                                 *****************

                                            #,                                       
                                            ###                                      
                                            ####                                     
                                            #####                                    
                                            ######                                   
                                           ########,                                 
                                     ,,################,,,,,                         
                               ,,#################################,,                 
                          ,,##########################################,,             
                       ,#########################################, ''#####,          
                    ,#############################################,,   '####,        
                  ,##################################################,,,,####,       
                ,###########''''           ''''###############################       
              ,#####''   ,,,,##########,,,,          '''####'''          '####       
            ,##' ,,,,###########################,,,                        '##       
           ' ,,###''''                  '''############,,,                           
         ,,##''                                '''############,,,,        ,,,,,,###''
      ,#''                                            '''#######################'''  
     '                                                          ''''####''''         
             ,#######,   #######,   ,#######,      ##                                
            ,#'     '#,  ##    ##  ,#'     '#,    #''#        ,####,    ,#,          
            ##       ##  ##   ,#'  ##            #'  '#       #'       ,# #          
            ##       ##  #######   ##           ,######,      #####,      #          
            '#,     ,#'  ##    ##  '#,     ,#' ,#      #,     #,   #      #          
             '#######'   ##     ##  '#######'  #'      '#     '####' #    #          



                #########################################################
                #                        -***-                          #
                #          Department of theory and spectroscopy        #
                #                                                       #
                #                      Frank Neese                      #
                #                                                       #
                #     Directorship, Architecture, Infrastructure        #
                #                    SHARK, DRIVERS                     #
                #        Core code/Algorithms in most modules           #
                #                                                       #
                #        Max Planck Institute fuer Kohlenforschung      #
                #                Kaiser Wilhelm Platz 1                 #
                #                 D-45470 Muelheim/Ruhr                 #
                #                      Germany                          #
                #                                                       #
                #                  All rights reserved                  #
                #                        -***-                          #
                #########################################################


                         Program Version 6.1.1  -  RELEASE   -
                                (GIT: $487d211c$)
                          ($2025-11-21 10:33:24 +0100$)


 With contributions from (in alphabetic order):
[Max-Planck-Institut fuer Kohlenforschung]                               
  Daniel Aravena         : Magnetic Suceptibility                        
  Michael Atanasov       : Ab Initio Ligand Field Theory (pilot matlab implementation)
  Alexander A. Auer      : GIAO ZORA, VPT2 properties, NMR spectrum      
  Ute Becker             : All parallelization in ORCA, NUMFREQ, NUMCALC 
  Giovanni Bistoni       : ED, misc. LED, open-shell LED, HFLD           
  Dmytro Bykov           : pre 5.0 version of the SCF Hessian            
  Marcos Casanova-Páez   : Triplet and SCS-CIS(D). UHF-(DLPNO)-IP/EA/STEOM-CCSD. UHF-CVS-IP/STEOM-CCSD   
  Vijay G. Chilkuri      : MRCI spin determinant printing, contributions to CSF-ICE 
  Pauline Colinet        : FMM embedding                                 
  Dipayan Datta          : RHF DLPNO-CCSD density                        
  Achintya Kumar Dutta   : EOM-CC, STEOM-CC                              
  Nicolas Foglia         : Exact transition moments, OPA infrastructure, MCD improvements    
  Dmitry Ganyushin       : Spin-Orbit,Spin-Spin,Magnetic field MRCI      
  Miquel Garcia-Rates    : C-PCM and meta-GGA Hessian, CCSD/C-PCM, Gaussian charge scheme 
  Tiago L. C. Gouveia    : GS-ROHF, GS-ROCIS                             
  Yang Guo               : DLPNO-NEVPT2, F12-NEVPT2, CIM, IAO-localization        
  Andreas Hansen         : Spin unrestricted coupled pair/coupled cluster methods 
  Ingolf Harden          : AUTO-CI MPn and infrastructure                
  Benjamin Helmich-Paris : MC-RPA, TRAH-(SCF,CASSCF), AVAS, COSX integrals, SCF dyn. polar., MC-PDFT, srDFT 
  Lee Huntington         : MR-EOM, pCC                                   
  Robert Izsak           : Overlap fitted RIJCOSX, COSX-SCS-MP3, EOM     
  Riya Kayal             : Wick's Theorem for AUTO-CI, AUTO-CI UHF-CCSDT 
  Emily Kempfer          : AUTO-CI RHF CISDT and CCSDT, approximate NEVPT4
  Christian Kollmar      : KDIIS, OOCD, Brueckner-CCSD(T), CCSD density, CASPT2, CASPT2-K, improved NEVPT2 
  Axel Koslowski         : Symmetry handling                             
  Simone Kossmann        : meta-GGA functionals, TD-DFT gradient, OOMP2, (MP2 Hessian; deprecated post 5.0) 
  Lucas Lang             : DCDCAS, Hyperfine gauge corrections, ICE-SOC+SSC
  Marvin Lechner         : AUTO-CI (C++ implementation), FIC-MRCC        
  Spencer Leger          : CASSCF response                               
  Dagmar Lenk            : GEPOL surface, SMD, ORCA-2-JSON               
  Dimitrios Liakos       : Extrapolation schemes; Compound Job, Property file
  Dimitrios Manganas     : Further ROCIS development; embedding schemes. LFT, Crystal Embedding 
  Dimitrios Pantazis     : SARC Basis sets                               
  Anastasios Papadopoulos: AUTO-CI, single reference methods and gradients 
  Taras Petrenko         : pre 6.0 DFT Hessian and TD-DFT gradient,  ECA, NRVS 
  Petra Pikulova         : Analytic Raman intensities                    
  Peter Pinski           : DLPNO-MP2, DLPNO-MP2 Gradient                 
  Shashank Vittal Rao    : ES-AILFT, MagRelax                            
  Christoph Reimann      : Effective Core Potentials                     
  Marius Retegan         : Local ZFS, SOC                                
  Christoph Riplinger    : Optimizer, TS searches, QM/MM, DLPNO-CCSD(T), (RO)-DLPNO pert. Triples 
  Michael Roemelt        : Original ROCIS implementation, recursive CI coupling coefficients
  Masaaki Saitow         : Open-shell DLPNO-CCSD energy and density      
  Barbara Sandhoefer     : DKH picture change effects                    
  Yorick L. A. Schmerwitz: GMF and freeze-and-release deltaSCF, NEB S-IDPP initial path                    
  Kantharuban Sivalingam : CASSCF convergence/infrastructure, NEVPT2, NEVPT3, NEVPT4(SD), FIC-MRCI and CEPA variants
  Bernardo de Souza      : ESD, SOC TD-DFT                               
  Georgi L. Stoychev     : AutoAux, RI-MP2 NMR, DLPNO-MP2 response, X2C  
  Van Anh Tran           : RI-MP2 g-tensors                              
  Willem Van den Heuvel  : Paramagnetic NMR                              
  Zikuan Wang            : NOTCH, Electric field optimization            
  Frank Wennmohs         : Technical directorship and infrastructure     
  Hang Xu                : AUTO-CI-Response properties                   
                                                                         
[FACCTs GmbH]                                                            
  Markus Bursch, Nicolas Foglia, Miquel Garcia-Rates, Ingolf Harden, Hagen Neugebauer, Anastasios Papadopoulos, 
  Christoph Riplinger, Bernardo de Souza, Georgi L. Stoychev                                                    
                                                                 
  APM, various basis sets, CI-OPT, improved COSX, DLPNO-Multilevel,           
  DOCKER, DRACO, updates on ESD, Fragmentator, GOAT, IRC, LR-CPCM, L-BFGS, MBIS, meta-GGA TD-DFT gradient, ML-optimized integration grids, 
  MM, NACMEs, nearIR, NEB, NEB-TS, NL-DFT gradient (VV10), 2- and 3-layer-ONIOM, interface openCOSMO-RS, QMMM,   
  Crystal-QMMM, RESP, rigid body optimization, SF, symmetry and pop. for TD-DFT, various functionals, SOLVATOR                                   
                                                                         
[Other institutions]                                                     
  V. Asgeirsson          : NEB                                           
  Christoph Bannwarth    : sTDA-DFT, sTD-DFT, PBEh-3c, B97-3c, D3        
  Giovanni Bistoni       : ETS/NOCV, ADLD/ADEX, COVALED                  
  Martin Brehm           : Molecular dynamics                            
  Ronald Cardenas        : ETS/NOCV                                      
  Martina Colucci        : COVALED                                       
  Sebastian Ehlert       : rSCAN, r2SCAN, r2SCAN-3c, D4, dhf basis sets  
  Marvin Friede          : D4 for Fr, Ra, Ac-Lr                          
  Lars Goerigk           : TD-DFT with DH, B97 family of functionals     
  Stefan Grimme          : VdW corrections, initial TS optimization, DFT functionals, gCP, sTDA/sTD-DF 
  Waldemar Hujo          : DFT-NL                                        
  H. Jonsson             : NEB                                           
  Holger Kruse           : gCP                                           
  Marcel Mueller         : wB97X-3c, vDZP basis set                      
  Hagen Neugebauer       : wr2SCAN, Native XTB                           
  Gianluca Regni         : ADLD/ADEX                                     
  Tobias Risthaus        : pre 6.0 range-separated hybrid DFT and stability analysis
  Lukas Wittmann         : regularized MP2, r2SCAN double-hybrids, wr2SCAN        
                                                                         
We gratefully acknowledge several colleagues who have allowed us to      
interface, adapt or use parts of their codes:                            
  Ed Valeev, F. Pavosevic, A. Kumar             : LibInt (2-el integral package), F12 methods 
  Garnet Chan, S. Sharma, J. Yang, R. Olivares  : DMRG                   
  Ulf Ekstrom                                   : XCFun DFT Library      
  Mihaly Kallay                                 : mrcc  (arbitrary order and MRCC methods)
  Frank Weinhold                                : gennbo (NPA and NBO analysis)           
  Simon Mueller                                 : openCOSMO-RS                            
  Christopher J. Cramer and Donald G. Truhlar   : smd solvation model                     
  S Lehtola, MJT Oliveira, MAL Marques          : LibXC Library                           
  Liviu Ungur et al                             : ANISO software                          


 Your calculation uses the libint2 library for the computation of 2-el integrals
 For citations please refer to: http://libint.valeyev.net

 Your ORCA version has been built with support for libXC version: 7.0.0
 For citations please refer to: https://libxc.gitlab.io

 This ORCA versions uses:
   CBLAS   interface :  Fast vector & matrix operations
   LAPACKE interface :  Fast linear algebra routines
   SCALAPACK package :  Parallel linear algebra routines
   Shared memory     :  Shared parallel matrices
   BLAS/LAPACK       :  OpenBLAS 0.3.29  USE64BITINT DYNAMIC_ARCH NO_AFFINITY SkylakeX SINGLE_THREADED
        Core in use  :  SkylakeX
   Copyright (c) 2011-2014, The OpenBLAS Project


  ***********************************
  * Starting time: Fri May 22 19:49:33 2026
  * Host name:     n040.hpc
  * Process ID:    1167389
  * Working dir.:  /gpfs/home1/yeseo1ee/projects/v1-claisen-asr/runs/h/orca
  ***********************************

NOTE: MaxCore=4000 MB was set to SCF,MP2,MDCI,CIPSI,MRCI,RASCI and CIS
      => If you want to overwrite this, your respective input block should be placed after the MaxCore statement


***************************************
The coordinates will be read from file: ../build/mol.xyz
***************************************


Your calculation utilizes the atom-pairwise dispersion correction
based on EEQ partial charges (D4)


================================================================================

cite the ECPs for C  [vDZP-ECP], O  [vDZP-ECP] as follows:
   B-Ne (ecp-2-mwb), Al-Ar (ecp-10-mwb), Ga-Kr (ecp-28-mwb), Y-Cd (ecp-28-mwb), In-Xe (ecp-46-mwb):
     A. Bergner, M. Dolg, W. Küchle, H. Stoll, and H. Preuß, Mol. Phys. 80, 1431 (1993)., T. Leininger, A. Berning, A. Nicklass, H. Stoll, H.-J. Werner, and H.-J.Flad, Chem. Phys. 217, 19 (1997).
   Na-Mg, K-Ca, Rb-Sr, Cs-Ba (CRENBL):
     L. Fernandez Pacios and P. A. Christiansen, J. Chem. Phys. 82, 2664 (1985)., M. M. Hurley, L. F. Pacios, P. A. Christiansen, R. B. Ross, and W. C. Ermler, J. Chem. Phys. 84, 6840 (1986)., L. A. LaJohn, P. A. Christiansen, R. B. Ross, T. Atashroo, and W. C. Ermler, J. Chem. Phys. 87, 2812 (1987)., R. B. Ross, J. M. Powers, T. Atashroo, W. C. Ermler, L. A. LaJohn, and P. A. Christiansen, J. Chem. Phys. 93, 6654 (1990). 
   Sc-Zn (ecp-10-mdf):
     M. Dolg, U. Wedig, H. Stoll, and H. Preuss, J. Chem. Phys. 86, 866 (1986). 
   Y-Cd (ecp-28-mwb), Hf-Hg (ecp-60-mwb):
     D. Andrae, U. Häußermann, M. Dolg, H. Stoll, and H. Preuß, Theor. Chim. Acta 77, 123 (1990). 
   La (ecp-46-mwb):
     M. Dolg, H. Stoll, and H. Preuss, J. Chem. Phys. 90, 1730 (1989)., M. Dolg, H. Stoll, and H. Preuss, Theor. Chim. Acta 85, 441 (1993).
   Ce-Lu (SBKJC-ecp):
     T. R. Cundari and W. J. Stevens, J. Chem. Phys. 98, 5555 (1993).
   Tl-Rn (ecp-78-mwb):
     W. Küchle, M. Dolg, H. Stoll, and H. Preuss, Mol. Phys. 74, 1245 (1991).

ECP parameters for C  [vDZP-ECP], O  [vDZP-ECP] have been obtained from:
MM, AH, SG, J. Chem. Phys. 158, 014103 (2023), 10.1063/5.0133026

----- Orbital basis set information -----
Your calculation utilizes the basis: vDZP
   Marcel Mueller, Andreas Hansen, Stefan Grimme 
   J. Chem. Phys. 158, 014103 (2023). DOI: 10.1063/5.0133026

----- AuxJ basis set information -----
Your calculation utilizes the auxiliary basis: def2/J
   H-Rn: F. Weigend, Phys. Chem. Chem. Phys. 8, 1057 (2006).
   Fr-Lr: K. Eichkorn, F. Weigend, O. Treutler, R. Ahlrichs; Theor. Chem. Acc. 97, 119 (1997).

================================================================================
                                        WARNINGS
                       Please study these warnings very carefully!
================================================================================

WARNING: Frozen-Core approximation turned on, but there are no core electrons.
  ===> : Turning off frozen-core approximation


WARNING: Geometry Optimization
  ===> : Switching off AutoStart
         For restart on a previous wavefunction, please use MOREAD

================================================================================
                                       INPUT FILE
================================================================================
NAME = reactant.inp
|  1> ! wB97X-3c Opt Freq TightSCF
|  2> %pal nprocs 8 end
|  3> %maxcore 4000
|  4> * xyzfile 0 1 ../build/mol.xyz
|  5> 
|  6>                          ****END OF INPUT****
================================================================================

                       *****************************
                       * Geometry Optimization Run *
                       *****************************

Geometry optimization settings:
Update method            Update   .... BFGS
Choice of coordinates    CoordSys .... (2022) Redundant Internals
Initial Hessian          InHess   .... Almloef's Model
Max. no of cycles        MaxIter  .... 50

Convergence Tolerances:
Energy Change            TolE     ....  5.0000e-06 Eh
Max. Gradient            TolMAXG  ....  3.0000e-04 Eh/bohr
RMS Gradient             TolRMSG  ....  1.0000e-04 Eh/bohr
Max. Displacement        TolMAXD  ....  4.0000e-03 bohr
RMS Displacement         TolRMSD  ....  2.0000e-03 bohr
Strict Convergence                .... False

------------------------------------------------------------------------------
                        ORCA OPTIMIZATION COORDINATE SETUP
------------------------------------------------------------------------------

The optimization will be done in redundant internal coordinates (2022)
Making redundant internal coordinates   ...  (2022 redundants) done
Evaluating the initial hessian          ...  (Almloef) done
Evaluating the coordinates              ...  done
Calculating the B-matrix                .... done
Calculating the G-matrix                .... done
The number of degrees of freedom        ....   50

    -----------------------------------------------------------------
                    Redundant Internal Coordinates


    -----------------------------------------------------------------
         Definition                    Initial Value    Approx d2E/dq
    -----------------------------------------------------------------
      1. B(C   1,C   0)                  1.3377         0.757066   
      2. B(O   2,C   1)                  1.3656         0.612052   
      3. B(C   3,O   2)                  1.4276         0.487440   
      4. B(C   4,C   3)                  1.4990         0.418587   
      5. B(C   5,C   4)                  1.3398         0.751453   
      6. B(H   6,C   0)                  1.0828         0.369737   
      7. B(H   7,C   0)                  1.0858         0.365734   
      8. B(H   8,C   1)                  1.0854         0.366257   
      9. B(H   9,C   3)                  1.0966         0.351502   
     10. B(H  10,C   3)                  1.0964         0.351762   
     11. B(H  11,C   4)                  1.0875         0.363451   
     12. B(H  12,C   5)                  1.0858         0.365744   
     13. B(H  13,C   5)                  1.0855         0.366119   
     14. A(H   6,C   0,H   7)          116.9056         0.292764   
     15. A(C   1,C   0,H   6)          123.2949         0.366769   
     16. A(C   1,C   0,H   7)          119.7996         0.366085   
     17. A(C   0,C   1,H   8)          121.7511         0.366175   
     18. A(C   0,C   1,O   2)          129.2185         0.446008   
     19. A(O   2,C   1,H   8)          109.0304         0.350977   
     20. A(C   1,O   2,C   3)          117.4028         0.409488   
     21. A(O   2,C   3,C   4)          107.4962         0.385520   
     22. A(C   4,C   3,H  10)          108.6053         0.329180   
     23. A(O   2,C   3,H  10)          110.0417         0.335557   
     24. A(C   4,C   3,H   9)          110.8765         0.329140   
     25. A(O   2,C   3,H   9)          110.0854         0.335516   
     26. A(H   9,C   3,H  10)          109.6980         0.288677   
     27. A(C   3,C   4,H  11)          116.0062         0.330964   
     28. A(C   5,C   4,H  11)          119.1504         0.365227   
     29. A(C   3,C   4,C   5)          124.8432         0.418753   
     30. A(H  12,C   5,H  13)          117.5408         0.292313   
     31. A(C   4,C   5,H  13)          121.7978         0.365685   
     32. A(C   4,C   5,H  12)          120.6591         0.365620   
     33. D(O   2,C   1,C   0,H   7)   -179.9814         0.040949   
     34. D(H   8,C   1,C   0,H   7)      0.0073         0.040949   
     35. D(O   2,C   1,C   0,H   6)     -0.0060         0.040949   
     36. D(H   8,C   1,C   0,H   6)    179.9827         0.040949   
     37. D(C   3,O   2,C   1,H   8)   -179.8204         0.027434   
     38. D(C   3,O   2,C   1,C   0)      0.1695         0.027434   
     39. D(C   4,C   3,O   2,C   1)   -178.7800         0.018757   
     40. D(H  10,C   3,O   2,C   1)    -60.6757         0.018757   
     41. D(H   9,C   3,O   2,C   1)     60.3493         0.018757   
     42. D(H  11,C   4,C   3,H   9)    175.9936         0.012959   
     43. D(H  11,C   4,C   3,O   2)     55.6222         0.012959   
     44. D(C   5,C   4,C   3,H  10)    116.7665         0.012959   
     45. D(C   5,C   4,C   3,H   9)     -3.8327         0.012959   
     46. D(C   5,C   4,C   3,O   2)   -124.2041         0.012959   
     47. D(H  12,C   5,C   4,C   3)    179.6882         0.040286   
     48. D(H  13,C   5,C   4,H  11)   -179.5630         0.040286   
     49. D(H  13,C   5,C   4,C   3)      0.2582         0.040286   
     50. D(H  12,C   5,C   4,H  11)     -0.1330         0.040286   
    -----------------------------------------------------------------

Number of atoms                         .... 14
Number of degrees of freedom            .... 50


         *************************************************************
         *                GEOMETRY OPTIMIZATION CYCLE   1            *
         *************************************************************
---------------------------------
CARTESIAN COORDINATES (ANGSTROEM)
---------------------------------
  C     -2.511641   -0.097022    0.664051
  C     -1.920773    0.533504   -0.357140
  O     -0.591141    0.655111   -0.643811
  C      0.332959    0.031518    0.247902
  C      1.713859    0.327219   -0.254862
  C      2.636811   -0.598980   -0.546851
  H     -1.962996   -0.621394    1.436386
  H     -3.594460   -0.097473    0.744098
  H     -2.495717    1.051509   -1.118173
  H      0.152568   -1.049593    0.281695
  H      0.228723    0.455184    1.253727
  H      1.958496    1.378649   -0.386230
  H      3.616943   -0.307960   -0.912279
  H      2.436370   -1.660272   -0.438380

----------------------------
CARTESIAN COORDINATES (A.U.)
----------------------------
  NO LB      ZA    FRAG     MASS         X           Y           Z
   0 C     4.0000*   0    12.011   -4.746314   -0.183345    1.254875
   1 C     4.0000*   0    12.011   -3.629735    1.008176   -0.674897
   2 O     6.0000*   0    15.999   -1.117095    1.237980   -1.216626
   3 C     4.0000*   0    12.011    0.629201    0.059560    0.468467
   4 C     4.0000*   0    12.011    3.238724    0.618354   -0.481619
   5 C     4.0000*   0    12.011    4.982851   -1.131908   -1.033399
   6 H     1.0000    0     1.008   -3.709525   -1.174264    2.714376
   7 H     1.0000    0     1.008   -6.792545   -0.184197    1.406141
   8 H     1.0000    0     1.008   -4.716222    1.987064   -2.113041
   9 H     1.0000    0     1.008    0.288312   -1.983443    0.532326
  10 H     1.0000    0     1.008    0.432224    0.860173    2.369201
  11 H     1.0000    0     1.008    3.701021    2.605269   -0.729869
  12 H     1.0000    0     1.008    6.835032   -0.581960   -1.723957
  13 H     1.0000    0     1.008    4.604072   -3.137459   -0.828418
* core charge reduced due to ECP

--------------------------------
INTERNAL COORDINATES (ANGSTROEM)
--------------------------------
 C      0   0   0     0.000000000000     0.00000000     0.00000000
 C      1   0   0     1.337729078917     0.00000000     0.00000000
 O      2   1   0     1.365609673411   129.21854373     0.00000000
 C      3   2   1     1.427578759305   117.40280884     0.16949307
 C      4   3   2     1.499031531055   107.49621995   181.21995855
 C      5   4   3     1.339754663372   124.84324057   235.79591429
 H      1   2   3     1.082810547896   123.29486417     0.00000000
 H      1   2   3     1.085773785082   119.79956323   180.01862256
 H      2   1   3     1.085385189806   121.75105124   179.98871227
 H      4   3   2     1.096578257149   110.08538115    60.34934063
 H      4   3   2     1.096376739026   110.04168571   299.32428105
 H      5   4   3     1.087478670178   116.00617940    55.62222553
 H      6   5   4     1.085766549958   120.65908165   179.68824732
 H      6   5   4     1.085487568600   121.79781426     0.25824904

---------------------------
INTERNAL COORDINATES (A.U.)
---------------------------
 C      0   0   0     0.000000000000     0.00000000     0.00000000
 C      1   0   0     2.527941600536     0.00000000     0.00000000
 O      2   1   0     2.580628288581   129.21854373     0.00000000
 C      3   2   1     2.697732889689   117.40280884     0.16949307
 C      4   3   2     2.832759059807   107.49621995   181.21995855
 C      5   4   3     2.531769400416   124.84324057   235.79591429
 H      1   2   3     2.046215390444   123.29486417     0.00000000
 H      1   2   3     2.051815097196   119.79956323   180.01862256
 H      2   1   3     2.051080758547   121.75105124   179.98871227
 H      4   3   2     2.072232590423   110.08538115    60.34934063
 H      4   3   2     2.071851776361   110.04168571   299.32428105
 H      5   4   3     2.055036863118   116.00617940    55.62222553
 H      6   5   4     2.051801424793   120.65908165   179.68824732
 H      6   5   4     2.051274226431   121.79781426     0.25824904

---------------------
BASIS SET INFORMATION
---------------------
There are 3 groups of distinct atoms

 Group   1 Type C   : 6s6p2d contracted to 2s2p1d pattern {42/42/2}
 Group   2 Type O   : 6s6p2d contracted to 2s2p1d pattern {42/42/2}
 Group   3 Type H   : 8s2p contracted to 2s1p pattern {53/2}

Atom   0C    basis set group =>   1
Atom   1C    basis set group =>   1
Atom   2O    basis set group =>   2
Atom   3C    basis set group =>   1
Atom   4C    basis set group =>   1
Atom   5C    basis set group =>   1
Atom   6H    basis set group =>   3
Atom   7H    basis set group =>   3
Atom   8H    basis set group =>   3
Atom   9H    basis set group =>   3
Atom  10H    basis set group =>   3
Atom  11H    basis set group =>   3
Atom  12H    basis set group =>   3
Atom  13H    basis set group =>   3
---------------------------------
AUXILIARY/J BASIS SET INFORMATION
---------------------------------
There are 3 groups of distinct atoms

 Group   1 Type C   : 12s5p4d2f1g contracted to 6s4p3d1f1g pattern {711111/2111/211/2/1}
 Group   2 Type O   : 12s5p4d2f1g contracted to 6s4p3d1f1g pattern {711111/2111/211/2/1}
 Group   3 Type H   : 5s2p1d contracted to 3s1p1d pattern {311/2/1}

Atom   0C    basis set group =>   1
Atom   1C    basis set group =>   1
Atom   2O    basis set group =>   2
Atom   3C    basis set group =>   1
Atom   4C    basis set group =>   1
Atom   5C    basis set group =>   1
Atom   6H    basis set group =>   3
Atom   7H    basis set group =>   3
Atom   8H    basis set group =>   3
Atom   9H    basis set group =>   3
Atom  10H    basis set group =>   3
Atom  11H    basis set group =>   3
Atom  12H    basis set group =>   3
Atom  13H    basis set group =>   3
-------------------------
ECP PARAMETER INFORMATION
-------------------------

 Group 1, Type C  ECP vDZP-ECP (replacing 2 core electrons, lmax=3)
 Group 2, Type O  ECP vDZP-ECP (replacing 2 core electrons, lmax=3)

Atom   0C    ECP group =>   1
Atom   1C    ECP group =>   1
Atom   2O    ECP group =>   2
Atom   3C    ECP group =>   1
Atom   4C    ECP group =>   1
Atom   5C    ECP group =>   1



           ************************************************************
           *        Program running with 8 parallel MPI-processes     *
           *              working on a common directory               *
           ************************************************************
------------------------------------------------------------------------------
                             ORCA STARTUP CALCULATIONS
                           -- RI-GTO INTEGRALS CHOSEN --
------------------------------------------------------------------------------
------------------------------------------------------------------------------
                   ___                                                        
                  /   \      - P O W E R E D   B Y -                         
                 /     \                                                     
                 |  |  |   _    _      __       _____    __    __             
                 |  |  |  | |  | |    /  \     |  _  \  |  |  /  |          
                  \  \/   | |  | |   /    \    | | | |  |  | /  /          
                 / \  \   | |__| |  /  /\  \   | |_| |  |  |/  /          
                |  |  |   |  __  | /  /__\  \  |    /   |      \           
                |  |  |   | |  | | |   __   |  |    \   |  |\   \          
                \     /   | |  | | |  |  |  |  | |\  \  |  | \   \       
                 \___/    |_|  |_| |__|  |__|  |_| \__\ |__|  \__/        
                                                                              
                      - O R C A' S   B I G   F R I E N D -                    
                                      &                                       
                       - I N T E G R A L  F E E D E R -                       
                                                                              
 v1 FN, 2020, v2 2021, v3 2022-2024                                           
------------------------------------------------------------------------------


----------------------
SHARK INTEGRAL PACKAGE
----------------------

Number of atoms                             ...     14
Number of basis functions                   ...    118
Number of shells                            ...     54
Maximum angular momentum                    ...      2
Integral batch strategy                     ... SHARK/LIBINT Hybrid
RI-J (if used) integral strategy            ... SPLIT-RIJ (Revised 2003 algorithm where possible)
Printlevel                                  ...      1
Contraction scheme used                     ... SEGMENTED contraction
Prescreening option                         ... SCHWARTZ
   Thresh                                   ... 2.500e-11
   Tcut                                     ... 2.500e-12
   Tpresel                                  ... 2.500e-12 
Coulomb Range Separation                    ... NOT USED
Exchange Range Separation                   ... Long Range
   Mu parameter                             ... 3.000e-01
   Scaling (regular/separated)              ... 1.670e-01 8.330e-01
Robust (split-)RI terms used:
  metric    (central integrals)             ... YES
  density   (r.h.s.  integrals)             ... YES
  potential (l.h.s.  integrals)             ... YES
Multipole approximations                    ... NOT USED
Finite Nucleus Model                        ... NOT USED
CABS basis                                  ... NOT available
Auxiliary Coulomb fitting basis             ... AVAILABLE
   # of basis functions in Aux-J            ...    382
   # of shells in Aux-J                     ...    130
   Maximum angular momentum in Aux-J        ...      4
Auxiliary J/K fitting basis                 ... NOT available
Auxiliary Correlation fitting basis         ... NOT available
Auxiliary 'external' fitting basis          ... NOT available

Checking pre-screening integrals            ... done (  0.0 sec) Dimension = 54
   => SHARK Basis and OBASIS are compatible. Storing Pre-screening
Shell pair information
Shell pair cut-off parameter TPreSel        ...   2.5e-12
Total number of shell pairs                 ...      1485
Shell pairs after pre-screening             ...      1485
Total number of primitive shell pairs       ...     13732
Primitive shell pairs kept                  ...     11777
          la=0 lb=0:    406 shell pairs
          la=1 lb=0:    560 shell pairs
          la=1 lb=1:    210 shell pairs
          la=2 lb=0:    168 shell pairs
          la=2 lb=1:    120 shell pairs
          la=2 lb=2:     21 shell pairs

Checking whether 4 symmetric matrices of dimension 118 fit in memory
:Max Core in MB      =   4000.00
 MB in use           =      6.49
 MB left             =   3993.51
 MB needed           =      0.21
 Data fit in memory  = YES
Calculating RI/J V-Matrix + Cholesky decomp.... done (  0.1 sec)
Calculating Nuclear repulsion               ... done (  0.0 sec) ENN=    119.640173548494 Eh

Diagonalization of the overlap matrix:
Smallest eigenvalue                        ... 1.680e-03
Time for diagonalization                   ...    0.002 sec
Threshold for overlap eigenvalues          ... 1.000e-07
Number of eigenvalues below threshold      ... 0
Time for construction of square roots      ...    0.013 sec
Total time needed                          ...    0.016 sec

-------------------
DFT GRID GENERATION
-------------------

General Integration Accuracy     IntAcc      ... 4.388
Radial Grid Type                 RadialGrid  ... OptM3 with GC (2021)
Angular Grid (max. ang.)         AngularGrid ... 4 (Lebedev-302)
Angular grid pruning method      GridPruning ... 4 (adaptive)
Weight generation scheme         WeightScheme... mBecke (2022)
Basis function cutoff            BFCut       ... 1.0000e-11
Integration weight cutoff        WCut        ... 1.0000e-14
Partially contracted basis set               ... off
Rotationally invariant grid construction     ... off
Angular grids for H and He will be reduced by one unit

Total number of grid points                  ...    62250
Total number of batches                      ...      979
Average number of points per batch           ...       63
Average number of grid points per atom       ...     4446

--------------------
COSX GRID GENERATION
--------------------

GRIDX 1
-------
General Integration Accuracy     IntAcc      ... 3.816
Radial Grid Type                 RadialGrid  ... OptM3 with GC (2021)
Angular Grid (max. ang.)         AngularGrid ... 1 (Lebedev-50)
Angular grid pruning method      GridPruning ... 4 (adaptive)
Weight generation scheme         WeightScheme... mBecke (2022)
Basis function cutoff            BFCut       ... 1.0000e-11
Integration weight cutoff        WCut        ... 1.0000e-14
Partially contracted basis set               ... on
Rotationally invariant grid construction     ... off
Angular grids for H and He will be reduced by one unit

Total number of grid points                  ...     7995
Total number of batches                      ...       72
Average number of points per batch           ...      111
Average number of grid points per atom       ...      571
UseSFitting                                  ... on

GRIDX 2
-------
General Integration Accuracy     IntAcc      ... 4.020
Radial Grid Type                 RadialGrid  ... OptM3 with GC (2021)
Angular Grid (max. ang.)         AngularGrid ... 2 (Lebedev-110)
Angular grid pruning method      GridPruning ... 4 (adaptive)
Weight generation scheme         WeightScheme... mBecke (2022)
Basis function cutoff            BFCut       ... 1.0000e-11
Integration weight cutoff        WCut        ... 1.0000e-14
Partially contracted basis set               ... on
Rotationally invariant grid construction     ... off
Angular grids for H and He will be reduced by one unit

Total number of grid points                  ...    17105
Total number of batches                      ...      140
Average number of points per batch           ...      122
Average number of grid points per atom       ...     1222
UseSFitting                                  ... on

GRIDX 3
-------
General Integration Accuracy     IntAcc      ... 4.338
Radial Grid Type                 RadialGrid  ... OptM3 with GC (2021)
Angular Grid (max. ang.)         AngularGrid ... 3 (Lebedev-194)
Angular grid pruning method      GridPruning ... 4 (adaptive)
Weight generation scheme         WeightScheme... mBecke (2022)
Basis function cutoff            BFCut       ... 1.0000e-11
Integration weight cutoff        WCut        ... 1.0000e-14
Partially contracted basis set               ... on
Rotationally invariant grid construction     ... off
Angular grids for H and He will be reduced by one unit

Total number of grid points                  ...    37568
Total number of batches                      ...      300
Average number of points per batch           ...      125
Average number of grid points per atom       ...     2683
UseSFitting                                  ... on
Grids setup in   0.6 sec
Initializing property integral containers    ... done (  0.0 sec)

SHARK setup successfully completed in   0.8 seconds

Maximum memory used throughout the entire STARTUP-calculation: 18.8 MB


           ************************************************************
           *        Program running with 8 parallel MPI-processes     *
           *              working on a common directory               *
           ************************************************************
-------------------------------------------------------------------------------
                                 ORCA GUESS
                   Start orbitals & Density for SCF / CASSCF
-------------------------------------------------------------------------------

------------
SCF SETTINGS
------------
Hamiltonian:
 Density Functional     Method          .... DFT(GTOs)
 Exchange Functional    Exchange        .... WB97X-V
 Correlation Functional Correlation     .... WB97X-V
 Gradients option       PostSCFGGA      .... off
 Hybrid DFT is turned on
   Fraction HF Exchange ScalHFX         ....  0.167000
   Scaling of DF-GGA-X  ScalDFX         ....  0.000000
   Scaling of DF-GGA-C  ScalDFC         ....  1.000000
   Scaling of DF-LDA-C  ScalLDAC        ....  1.000000
   Perturbative correction              ....  0.000000
 Long-range corrected/Screened/Range-Separated Hybrid DFT is turned on
   Amount of maximum screened exact exchange              ....  0.833000
   Range separation parameter mu (erf(mu*r12)/r12)        ....  0.300000
   NL short-range parameter             ....  6.000000
   NL long-range parameter              ....  0.010000
 RI-approximation to the Coulomb term is turned on
   Number of AuxJ basis functions       .... 382
   RIJ-COSX (HFX calculated with COS-X)).... on


General Settings:
 Integral files         IntName         .... reactant
 Hartree-Fock type      HFTyp           .... RHF
 Total Charge           Charge          ....    0
 Multiplicity           Mult            ....    1
 Number of Electrons    NEL             ....   34
 Basis Dimension        Dim             ....  118
 Nuclear Repulsion      ENuc            ....    119.6401735485 Eh

Convergence Acceleration:
 AO-DIIS                CNVDIIS         .... on
   Start iteration      DIISMaxIt       ....    12
   Startup error        DIISStart       ....  0.200000
   # of expansion vecs  DIISMaxEq       ....     5
   Bias factor          DIISBfac        ....   1.050
   Max. coefficient     DIISMaxC        ....  10.000
 MO-DIIS                CNVKDIIS        .... off
 Trust-Rad. Augm. Hess. CNVTRAH         .... auto
   Auto Start mean grad. ratio tolernc. ....  1.125000
   Auto Start start iteration           ....    50
   Auto Start num. interpolation iter.  ....    10
   Max. Number of Micro iterations      ....    24
   Max. Number of Macro iterations      .... Maxiter - #DIIS iter
   Number of Davidson start vectors     ....     2
   Converg. threshold    (grad. norm)   ....   1.000e-05
   Grad. Scal. Fac. for Micro threshold ....   0.100
   Minimum threshold for Micro iter.    ....   1.000e-02
   NR start threshold (gradient norm)   ....   1.000e-04
   Initial trust radius                 ....   0.400
   Minimum AH scaling param. (alpha)    ....   1.000
   Maximum AH scaling param. (alpha)    .... 1000.000
   Quad. conv. algorithm                .... NR
   White noise on init. David. guess    .... on
   Maximum white noise                  ....   0.010
   Pseudo random numbers                .... off
   Inactive MOs                         .... canonical
   Orbital update algorithm             .... Taylor
   Preconditioner                       .... Diag
   Full preconditioner red. dimension   ....   250
 SOSCF                 CNVSOSCF           .... on
   Start iteration     SOSCFMaxIt         ....   150
   Startup grad/error  SOSCFStart         ....  0.003300
   Hessian update      SOSCFHessUp        .... L-BFGS
   Autom. constraints  SOSCFAutoConstrain .... off
 Level Shifting         CNVShift        .... on
   Level shift para.    LevelShift      ....    0.2500
   Turn off err/grad.   ShiftErr        ....    0.0010
 Zerner damping         CNVZerner       .... off
 Static damping         CNVDamp         .... on
   Fraction old density DampFac         ....    0.7000
   Max. Damping (<1)    DampMax         ....    0.9800
   Min. Damping (>=0)   DampMin         ....    0.0000
   Turn off err/grad.   DampErr         ....    0.1000

SCF Procedure:
 Maximum # iterations   MaxIter         ....   125
 SCF integral mode      SCFMode         .... Direct
   Integral package                     .... SHARK and LIBINT hybrid scheme
 Reset frequency        DirectResetFreq ....    20
 Integral Threshold     Thresh          ....  2.500e-11 Eh
 Primitive CutOff       TCut            ....  2.500e-12 Eh

Convergence Tolerance:
 Convergence Check Mode ConvCheckMode   .... Total+1el-Energy
 Convergence forced     ConvForced      .... 0
 Energy Change          TolE            ....  1.000e-08 Eh
 1-El. energy change                    ....  1.000e-05 Eh
 Orbital Gradient       TolG            ....  1.000e-05
 Orbital Rotation angle TolX            ....  1.000e-05
 DIIS Error             TolErr          ....  5.000e-07

------------------------------
INITIAL GUESS: MODEL POTENTIAL
------------------------------
Loading Hartree-Fock densities                     ... done
Atomic calculation to generate a density for atom 0 (C  with ECP)
  Multiplicity assumed   :    1
  Atomic configuration   : 1s2 2s2 2p2 
  Number of open shells  : 1
  Command: /home1/yeseo1ee/orca6/orca_6_1_1/orca reactant_atom6.inp "" > reactant_atom6.out
Returned from the atomic calculation with res=0
Atomic calculation to generate a density for atom 2 (O  with ECP)
  Multiplicity assumed   :    3
  Atomic configuration   : 1s2 2s2 2p4 
  Number of open shells  : 1
  Command: /home1/yeseo1ee/orca6/orca_6_1_1/orca reactant_atom8.inp "" > reactant_atom8.out
Returned from the atomic calculation with res=0
Calculating cut-offs                               ... done
Initializing the effective Hamiltonian             ... done
Setting up the integral package (SHARK)            ... done
Starting the Coulomb interaction                   ... done (   0.0 sec)
Making the grid                                    ... done (   0.1 sec)
Mapping shells                                     ... done
Starting the XC term evaluation                    ... done (   0.0 sec)
  promolecular density results
     # of electrons  =     45.995984286
     EX              =    -24.136306531
     EC              =     -1.852032740
     EX+EC           =    -25.988339271
Transforming the Hamiltonian                       ... done (   0.0 sec)
Diagonalizing the Hamiltonian                      ... done (   0.0 sec)
Back transforming the eigenvectors                 ... done (   0.0 sec)
Now organizing SCF variables                       ... done
                      ------------------
                      INITIAL GUESS DONE (   1.0 sec)
                      ------------------
             **** ENERGY FILE WAS UPDATED (reactant.en.tmp) ****
Finished Guess after   1.2 sec
Maximum memory used throughout the entire GUESS-calculation: 9.2 MB


           ************************************************************
           *        Program running with 8 parallel MPI-processes     *
           *              working on a common directory               *
           ************************************************************

-------------------------------------------------------------------------------------------
                                      ORCA LEAN-SCF
                              memory conserving SCF solver
-------------------------------------------------------------------------------------------

----------------------------------------D-I-I-S--------------------------------------------
Iteration    Energy (Eh)           Delta-E    RMSDP     MaxDP     DIISErr   Damp  Time(sec)
-------------------------------------------------------------------------------------------
               ***  Starting incremental Fock matrix formation  ***
    1    -49.0874367563016563     0.00e+00  1.22e-02  6.76e-02  1.72e-01  0.700   1.6
    2    -49.1645597972369899    -7.71e-02  9.12e-03  4.95e-02  1.07e-01  0.700   0.8
                               ***Turning on AO-DIIS***
    3    -49.2071543120613342    -4.26e-02  4.79e-03  2.19e-02  5.79e-02  0.700   0.8
    4    -49.2325581528985765    -2.54e-02  1.03e-02  4.30e-02  3.73e-02  0.000   0.8
                              *** Initializing SOSCF ***
---------------------------------------S-O-S-C-F--------------------------------------
Iteration    Energy (Eh)           Delta-E    RMSDP     MaxDP     MaxGrad    Time(sec)
--------------------------------------------------------------------------------------
    5    -49.2858098197790184    -5.33e-02  7.56e-04  3.47e-03  2.87e-03     0.8
               *** Restarting incremental Fock matrix formation ***
    6    -49.2859924180542919    -1.83e-04  5.16e-04  2.99e-03  1.19e-03     1.5
    7    -49.2860178005726652    -2.54e-05  2.79e-04  1.98e-03  5.11e-04     1.3
    8    -49.2860278702399626    -1.01e-05  6.86e-05  4.83e-04  1.75e-04     1.3
    9    -49.2860281753460754    -3.05e-07  3.19e-05  2.15e-04  1.10e-04     1.2
   10    -49.2860283743160608    -1.99e-07  8.15e-06  5.97e-05  2.88e-05     1.1
   11    -49.2860283859502033    -1.16e-08  2.93e-06  1.81e-05  8.27e-06     1.0
   12    -49.2860283820070890     3.94e-09  6.55e-07  3.65e-06  1.27e-06     0.9
                 **** Energy Check signals convergence ****

               *****************************************************
               *                     SUCCESS                       *
               *           SCF CONVERGED AFTER  12 CYCLES          *
               *****************************************************

Recomputing exchange energy using gridx3       ... done (    2.585 sec)
Old exchange energy                            :     -6.603500070 Eh
New exchange energy                            :     -6.603489599 Eh
Exchange energy change after final integration :      0.000010472 Eh
Total energy after final integration           :    -49.286017910 Eh
             **** ENERGY FILE WAS UPDATED (reactant.en.tmp) ****

----------------
TOTAL SCF ENERGY
----------------

Total Energy       :        -49.28601790957951 Eh           -1341.14073 eV

Components:
Nuclear Repulsion  :        119.64017354849443 Eh            3255.57463 eV
Electronic Energy  :       -168.92620192981101 Eh           -4596.71565 eV
One Electron Energy:       -311.32788387651073 Eh           -8471.66241 eV
Two Electron Energy:        142.40168194669971 Eh            3874.94676 eV

Virial components:
Potential Energy   :        -87.66883227579466 Eh           -2385.59021 eV
Kinetic Energy     :         38.38281436621515 Eh            1044.44948 eV
Virial Ratio       :          2.28406472332476

DFT components:
N(Alpha)           :       17.000019195969 electrons
N(Beta)            :       17.000019195969 electrons
N(Total)           :       34.000038391939 electrons
E(X)               :       -7.260485841455 Eh       
E(C)               :       -1.274365674266 Eh       
E(XC)              :       -8.534851515721 Eh       

---------------
SCF CONVERGENCE
---------------

  Last Energy change         ...   -3.9431e-09  Tolerance :   1.0000e-08
  Last MAX-Density change    ...    3.6546e-06  Tolerance :   1.0000e-07
  Last RMS-Density change    ...    6.5522e-07  Tolerance :   5.0000e-09
  Last DIIS Error            ...    2.8670e-03  Tolerance :   5.0000e-07
  Last Orbital Gradient      ...    1.2726e-06  Tolerance :   1.0000e-05
  Last Orbital Rotation      ...    3.0357e-06  Tolerance :   1.0000e-05


----------------
ORBITAL ENERGIES
----------------

  NO   OCC          E(Eh)            E(eV) 
   0   2.0000      -1.192035       -32.4369 
   1   2.0000      -0.943486       -25.6736 
   2   2.0000      -0.888602       -24.1801 
   3   2.0000      -0.831151       -22.6168 
   4   2.0000      -0.713354       -19.4113 
   5   2.0000      -0.691052       -18.8045 
   6   2.0000      -0.626224       -17.0404 
   7   2.0000      -0.612244       -16.6600 
   8   2.0000      -0.594821       -16.1859 
   9   2.0000      -0.560692       -15.2572 
  10   2.0000      -0.529103       -14.3976 
  11   2.0000      -0.494913       -13.4673 
  12   2.0000      -0.476223       -12.9587 
  13   2.0000      -0.461044       -12.5456 
  14   2.0000      -0.448347       -12.2001 
  15   2.0000      -0.377756       -10.2793 
  16   2.0000      -0.339661        -9.2427 
  17   0.0000       0.077644         2.1128 
  18   0.0000       0.092524         2.5177 
  19   0.0000       0.102474         2.7885 
  20   0.0000       0.104775         2.8511 
  21   0.0000       0.109024         2.9667 
  22   0.0000       0.115510         3.1432 
  23   0.0000       0.133585         3.6350 
  24   0.0000       0.155371         4.2278 
  25   0.0000       0.162531         4.4227 
  26   0.0000       0.191496         5.2109 
  27   0.0000       0.219898         5.9837 
*Only the first 10 virtual orbitals were printed.

                    ********************************
                    * MULLIKEN POPULATION ANALYSIS *
                    ********************************

-----------------------
MULLIKEN ATOMIC CHARGES
-----------------------
   0 C :   -0.116102
   1 C :    0.116816
   2 O :   -0.298499
   3 C :    0.073244
   4 C :   -0.007585
   5 C :   -0.036412
   6 H :    0.015307
   7 H :    0.038196
   8 H :    0.022480
   9 H :    0.047831
  10 H :    0.056124
  11 H :    0.025699
  12 H :    0.035757
  13 H :    0.027144
Sum of atomic charges:    0.0000000

--------------------------------
MULLIKEN REDUCED ORBITAL CHARGES
--------------------------------
  0 C s       :     0.988235  s :     0.988235
      pz      :     1.006983  p :     3.069378
      px      :     0.999123
      py      :     1.063272
      dz2     :     0.015782  d :     0.058490
      dxz     :     0.013498
      dyz     :     0.009471
      dx2y2   :     0.012290
      dxy     :     0.007448

  1 C s       :     1.059925  s :     1.059925
      pz      :     0.983278  p :     2.672948
      px      :     0.740701
      py      :     0.948970
      dz2     :     0.027591  d :     0.150311
      dxz     :     0.045165
      dyz     :     0.012757
      dx2y2   :     0.025385
      dxy     :     0.039413

  2 O s       :     1.704884  s :     1.704884
      pz      :     1.623542  p :     4.551817
      px      :     1.206872
      py      :     1.721403
      dz2     :     0.006336  d :     0.041798
      dxz     :     0.012563
      dyz     :     0.005297
      dx2y2   :     0.008409
      dxy     :     0.009191

  3 C s       :     1.008108  s :     1.008108
      pz      :     0.913683  p :     2.776265
      px      :     0.866551
      py      :     0.996031
      dz2     :     0.037017  d :     0.142383
      dxz     :     0.029100
      dyz     :     0.017698
      dx2y2   :     0.036244
      dxy     :     0.022325

  4 C s       :     1.055711  s :     1.055711
      pz      :     0.949396  p :     2.861361
      px      :     0.911156
      py      :     1.000808
      dz2     :     0.008108  d :     0.090513
      dxz     :     0.016487
      dyz     :     0.010947
      dx2y2   :     0.034100
      dxy     :     0.020871

  5 C s       :     1.017766  s :     1.017766
      pz      :     0.961931  p :     2.952882
      px      :     0.990874
      py      :     1.000077
      dz2     :     0.004932  d :     0.065764
      dxz     :     0.009542
      dyz     :     0.008389
      dx2y2   :     0.030155
      dxy     :     0.012746

  6 H s       :     0.930797  s :     0.930797
      pz      :     0.020442  p :     0.053895
      px      :     0.014704
      py      :     0.018749

  7 H s       :     0.910372  s :     0.910372
      pz      :     0.011556  p :     0.051432
      px      :     0.025520
      py      :     0.014355

  8 H s       :     0.932140  s :     0.932140
      pz      :     0.018948  p :     0.045380
      px      :     0.010356
      py      :     0.016076

  9 H s       :     0.911654  s :     0.911654
      pz      :     0.008358  p :     0.040515
      px      :     0.008172
      py      :     0.023985

 10 H s       :     0.902661  s :     0.902661
      pz      :     0.021290  p :     0.041214
      px      :     0.008889
      py      :     0.011036

 11 H s       :     0.926362  s :     0.926362
      pz      :     0.012693  p :     0.047939
      px      :     0.010708
      py      :     0.024538

 12 H s       :     0.914513  s :     0.914513
      pz      :     0.015319  p :     0.049730
      px      :     0.023515
      py      :     0.010896

 13 H s       :     0.922419  s :     0.922419
      pz      :     0.013865  p :     0.050438
      px      :     0.011026
      py      :     0.025547



                     *******************************
                     * LOEWDIN POPULATION ANALYSIS *
                     *******************************

----------------------
LOEWDIN ATOMIC CHARGES
----------------------
   0 C :   -0.125792
   1 C :   -0.037901
   2 O :   -0.045315
   3 C :   -0.039695
   4 C :   -0.040665
   5 C :   -0.061244
   6 H :    0.026316
   7 H :    0.041447
   8 H :    0.056328
   9 H :    0.051605
  10 H :    0.050955
  11 H :    0.046147
  12 H :    0.041840
  13 H :    0.035974

-------------------------------
LOEWDIN REDUCED ORBITAL CHARGES
-------------------------------
  0 C s       :     0.829871  s :     0.829871
      pz      :     1.030593  p :     3.099877
      px      :     1.058401
      py      :     1.010883
      dz2     :     0.047859  d :     0.196043
      dxz     :     0.047067
      dyz     :     0.036505
      dx2y2   :     0.041834
      dxy     :     0.022779

  1 C s       :     0.798660  s :     0.798660
      pz      :     1.023316  p :     2.790088
      px      :     0.833496
      py      :     0.933276
      dz2     :     0.074701  d :     0.449154
      dxz     :     0.141340
      dyz     :     0.040772
      dx2y2   :     0.081922
      dxy     :     0.110418

  2 O s       :     1.393922  s :     1.393922
      pz      :     1.594887  p :     4.541424
      px      :     1.290699
      py      :     1.655838
      dz2     :     0.017363  d :     0.109969
      dxz     :     0.031597
      dyz     :     0.009329
      dx2y2   :     0.026926
      dxy     :     0.024754

  3 C s       :     0.760441  s :     0.760441
      pz      :     0.957996  p :     2.859775
      px      :     0.880611
      py      :     1.021168
      dz2     :     0.107905  d :     0.419479
      dxz     :     0.083829
      dyz     :     0.055781
      dx2y2   :     0.105546
      dxy     :     0.066418

  4 C s       :     0.817885  s :     0.817885
      pz      :     0.878326  p :     2.925781
      px      :     0.982003
      py      :     1.065453
      dz2     :     0.028759  d :     0.296998
      dxz     :     0.053351
      dyz     :     0.026432
      dx2y2   :     0.116527
      dxy     :     0.071928

  5 C s       :     0.837177  s :     0.837177
      pz      :     0.903925  p :     3.009441
      px      :     1.044045
      py      :     1.061472
      dz2     :     0.016856  d :     0.214625
      dxz     :     0.027189
      dyz     :     0.019945
      dx2y2   :     0.106428
      dxy     :     0.044207

  6 H s       :     0.812970  s :     0.812970
      pz      :     0.056811  p :     0.160714
      px      :     0.048360
      py      :     0.055543

  7 H s       :     0.802778  s :     0.802778
      pz      :     0.040239  p :     0.155775
      px      :     0.067973
      py      :     0.047563

  8 H s       :     0.805124  s :     0.805124
      pz      :     0.054604  p :     0.138548
      px      :     0.036897
      py      :     0.047048

  9 H s       :     0.809028  s :     0.809028
      pz      :     0.034561  p :     0.139366
      px      :     0.032324
      py      :     0.072482

 10 H s       :     0.805651  s :     0.805651
      pz      :     0.066171  p :     0.143394
      px      :     0.035604
      py      :     0.041619

 11 H s       :     0.805071  s :     0.805071
      pz      :     0.041336  p :     0.148782
      px      :     0.037113
      py      :     0.070334

 12 H s       :     0.807989  s :     0.807989
      pz      :     0.046390  p :     0.150171
      px      :     0.064164
      py      :     0.039616

 13 H s       :     0.813507  s :     0.813507
      pz      :     0.043291  p :     0.150519
      px      :     0.038591
      py      :     0.068636



                      *****************************
                      * MAYER POPULATION ANALYSIS *
                      *****************************

  NA   - Mulliken gross atomic population
  ZA   - Total nuclear charge
  QA   - Mulliken gross atomic charge
  VA   - Mayer's total valence
  BVA  - Mayer's bonded valence
  FA   - Mayer's free valence

  ATOM       NA         ZA         QA         VA         BVA        FA
  0 C      4.1161     4.0000    -0.1161     3.9645     3.9645     0.0000
  1 C      3.8832     4.0000     0.1168     4.0746     4.0746    -0.0000
  2 O      6.2985     6.0000    -0.2985     2.0581     2.0581     0.0000
  3 C      3.9268     4.0000     0.0732     3.9922     3.9922     0.0000
  4 C      4.0076     4.0000    -0.0076     4.0259     4.0259     0.0000
  5 C      4.0364     4.0000    -0.0364     3.9815     3.9815     0.0000
  6 H      0.9847     1.0000     0.0153     1.0609     1.0609     0.0000
  7 H      0.9618     1.0000     0.0382     1.0430     1.0430     0.0000
  8 H      0.9775     1.0000     0.0225     1.0542     1.0542    -0.0000
  9 H      0.9522     1.0000     0.0478     1.0138     1.0138     0.0000
 10 H      0.9439     1.0000     0.0561     1.0063     1.0063     0.0000
 11 H      0.9743     1.0000     0.0257     1.0515     1.0515     0.0000
 12 H      0.9642     1.0000     0.0358     1.0395     1.0395     0.0000
 13 H      0.9729     1.0000     0.0271     1.0478     1.0478    -0.0000

  Mayer bond orders larger than 0.100000
B(  0-C ,  1-C ) :   1.8810 B(  0-C ,  6-H ) :   0.9993 B(  0-C ,  7-H ) :   0.9977 
B(  1-C ,  2-O ) :   1.0785 B(  1-C ,  8-H ) :   1.0252 B(  2-O ,  3-C ) :   0.9207 
B(  3-C ,  4-C ) :   1.0324 B(  3-C ,  9-H ) :   0.9899 B(  3-C , 10-H ) :   0.9853 
B(  4-C ,  5-C ) :   1.9285 B(  4-C , 11-H ) :   1.0040 B(  5-C , 12-H ) :   0.9980 
B(  5-C , 13-H ) :   1.0008 

-------
TIMINGS
-------

Total SCF time: 0 days 0 hours 0 min 16 sec 

Total time                  ....      16.924 sec
Sum of individual times     ....      16.104 sec  ( 95.2%)

SCF preparation             ....       0.240 sec  (  1.4%)
Fock matrix formation       ....      15.580 sec  ( 92.1%)
  Startup                   ....       0.059 sec  (  0.4% of F)
  Split-RI-J                ....       0.628 sec  (  4.0% of F)
  Chain of spheres X        ....      14.260 sec  ( 91.5% of F)
  XC integration            ....       1.283 sec  (  8.2% of F)
    Basis function eval.    ....       0.464 sec  ( 36.1% of XC)
    Density eval.           ....       0.159 sec  ( 12.4% of XC)
    XC-Functional eval.     ....       0.272 sec  ( 21.2% of XC)
    XC-Potential eval.      ....       0.196 sec  ( 15.3% of XC)
Diagonalization             ....       0.000 sec  (  0.0%)
Density matrix formation    ....       0.029 sec  (  0.2%)
Total Energy calculation    ....       0.015 sec  (  0.1%)
Population analysis         ....       0.089 sec  (  0.5%)
Orbital Transformation      ....       0.012 sec  (  0.1%)
Orbital Orthonormalization  ....       0.000 sec  (  0.0%)
DIIS solution               ....       0.070 sec  (  0.4%)
SOSCF solution              ....       0.069 sec  (  0.4%)
Finished LeanSCF after  17.0 sec

Maximum memory used throughout the entire LEANSCF-calculation: 14.5 MB


           ************************************************************
           *        Program running with 8 parallel MPI-processes     *
           *              working on a common directory               *
           ************************************************************

------------------------------------------------------------------------------
                         ORCA PROPERTY INTEGRAL CALCULATIONS
------------------------------------------------------------------------------

GBWName                                   ... reactant.gbw
Number of atoms                           ...     14
Number of basis functions                 ...    118
Max core memory                           ...   4000 MB

Dipole integrals                          ... YES
Quadrupole integrals                      ...  NO
Linear momentum integrals                 ...  NO
Angular momentum integrals                ...  NO
Higher moments length integrals           ...  NO
Higher moments velocity integrals         ...  NO
Kinetic energy integrals                  ...  NO
GIAO right hand sides                     ...  NO
GIAO dipole derivative integrals          ...  NO
SOC integrals                             ...  NO
EPR diamagnetic integrals (GIAO)          ...  NO
EPR gauge integrals                       ...  NO
Field gradient integrals                  ...  NO (   0 nuclei)
Spin-dipole/Fermi contact integrals       ...  NO (   0 nuclei)
Contact density integrals                 ...  NO (   0 nuclei)
Nucleus-orbit integrals                   ...  NO (   0 nuclei)
Geometric perturbations                   ...  NO (  14 nuclei)

Choice of electric origin   ... Center of mass
Position of electric origin ... ( -0.1370,  0.2691, -0.2785) 
Choice of magnetic origin   ... GIAO
Position of magnetic origin ... (  0.0000,  0.0000,  0.0000) 

Calculating integrals                     ... Electric Dipole (Length)     done (  0.0 sec)

Property integrals calculated in   0.0 sec

Maximum memory used throughout the entire PROPINT-calculation: 9.4 MB


-------------------------------------------------------------------------------
                          DFT DISPERSION CORRECTION                            
                                                                               
                                DFTD4 V3.4.0                                   
-------------------------------------------------------------------------------
The wB97X-3c composite method is recognized
Using three-body term ABC
Active option DFTDOPT                   ...         5   

-------------------------   ----------------
Dispersion correction           -0.011386088
-------------------------   ----------------


-------------------------   --------------------
FINAL SINGLE POINT ENERGY       -49.297403997821
-------------------------   --------------------



           ************************************************************
           *        Program running with 8 parallel MPI-processes     *
           *              working on a common directory               *
           ************************************************************
------------------------------------------------------------------------------
                         ORCA SCF GRADIENT CALCULATION
------------------------------------------------------------------------------

Nuc. rep. gradient        (SHARK) ... done (  0.0 sec)
HCore & Overlap gradient  (SHARK) ... done (  0.0 sec)
ECP gradient              (SHARK) ... done (  0.1 sec)
Split-RIJ-J gradient      (SHARK) ... done (  0.3 sec)
COSX-gradient                     ... done (  4.9 sec)
XC gradient                       ... done (  0.4 sec)
Dispersion correction             ... done (  0.0 sec)

-------------------
DISPERSION GRADIENT
-------------------

   1   C   :   -0.000431467   -0.000083505    0.000163097
   2   C   :   -0.000338574    0.000088658   -0.000108241
   3   O   :   -0.000120989    0.000148523   -0.000162731
   4   C   :    0.000123294   -0.000009901    0.000134624
   5   C   :    0.000316330    0.000066439   -0.000003062
   6   C   :    0.000392362   -0.000151660   -0.000087331
   7   H   :   -0.000114235   -0.000042821    0.000076619
   8   H   :   -0.000076861   -0.000017310    0.000030788
   9   H   :   -0.000053806    0.000038334   -0.000058691
  10   H   :    0.000026382   -0.000061619    0.000001363
  11   H   :    0.000047089    0.000047437    0.000080200
  12   H   :    0.000074302    0.000063848   -0.000015452
  13   H   :    0.000068838   -0.000019171   -0.000024999
  14   H   :    0.000087336   -0.000067253   -0.000026183

Difference to translation invariance:
           :    0.0000000000    0.0000000000    0.0000000000

Difference to rotation invariance:
           :    0.0000000000   -0.0000000000    0.0000000000

Norm of the Dispersion gradient    ...    0.0009050566
RMS gradient                       ...    0.0001396533
MAX gradient                       ...    0.0004314673

------------------
CARTESIAN GRADIENT
------------------

   1   C   :   -0.007664012   -0.003524349    0.006125988
   2   C   :   -0.004839401    0.001394168   -0.002519554
   3   O   :    0.010577130    0.006747405   -0.012565636
   4   C   :   -0.004238968   -0.002859116    0.006140425
   5   C   :   -0.011287508    0.013349567    0.005896939
   6   C   :    0.014105658   -0.013601676   -0.004140706
   7   H   :   -0.000029324   -0.001088278    0.001633640
   8   H   :   -0.004715375   -0.001500496    0.002687703
   9   H   :   -0.000645409    0.001510472   -0.002196152
  10   H   :    0.000299616   -0.003632409   -0.000775347
  11   H   :    0.004107982    0.001794602    0.001849983
  12   H   :    0.001874523    0.001940627   -0.000398421
  13   H   :    0.002330145    0.001224172   -0.002160062
  14   H   :    0.000124943   -0.001754689    0.000421199

Difference to translation invariance:
           :    0.0000000000   -0.0000000000   -0.0000000000

Difference to rotation invariance:
           :    0.0000252664   -0.0000427810   -0.0000215107

Norm of the Cartesian gradient     ...    0.0369303535
RMS gradient                       ...    0.0056984773
MAX gradient                       ...    0.0141056584

-------
TIMINGS
-------

Total SCF gradient time     ....        5.738 sec

Densities                   ....       0.000 sec  (  0.0%)
One electron gradient       ....       0.033 sec  (  0.6%)
RI-J Coulomb gradient       ....       0.284 sec  (  5.0%)
COSX gradient               ....       4.875 sec  ( 85.0%)
XC gradient                 ....       0.376 sec  (  6.6%)

Maximum memory used throughout the entire SCFGRAD-calculation: 29.3 MB
------------------------------------------------------------------------------
                         ORCA GEOMETRY RELAXATION STEP
------------------------------------------------------------------------------

Reading the OPT-File                    .... done
Getting information on internals        .... done
Copying old internal coords+grads       .... done
Making the new internal coordinates     .... (2022 redundants) done
Validating the new internal coordinates .... (2022 redundants) done
Calculating the B-matrix                .... done
Calculating the G,G- and P matrices     .... done
Transforming gradient to internals      .... done
Projecting the internal gradient        .... done
Number of atoms                         ....  14
Number of internal coordinates          ....  50
Current Energy                          ....   -49.297403998 Eh
Current gradient norm                   ....     0.036930354 Eh/bohr
Maximum allowed component of the step   ....  0.300
Current trust radius                    ....  0.300
Evaluating the initial hessian          ....  (Almloef) done
Projecting the Hessian                  .... done
Forming the augmented Hessian           .... done
Diagonalizing the augmented Hessian     .... done
Last element of RFO vector              ....  0.995921584
Lowest eigenvalues of augmented Hessian:
 -0.002853065  0.012966341  0.018763169  0.025751978  0.027433769
Length of the computed step             ....  0.090592523
The final length of the internal step   ....  0.090592523
Converting the step to Cartesian space:
 Initial RMS(Int)=    0.0128117175
Transforming coordinates:
 Iter   0:  RMS(Cart)=    0.0506846624 RMS(Int)=    0.8839243173
done
Storing new coordinates                 .... done

                                .--------------------.
          ----------------------|Geometry convergence|-------------------------
          Item                value                   Tolerance       Converged
          ---------------------------------------------------------------------
          RMS gradient        0.0056329893            0.0001000000      NO
          MAX gradient        0.0224597356            0.0003000000      NO
          RMS step            0.0128117175            0.0020000000      NO
          MAX step            0.0334420554            0.0040000000      NO
          -------------------------------------------------------------------------
          ........................................................
          Max(Bonds)      0.0163      Max(Angles)    1.09
          Max(Dihed)        1.92      Max(Improp)    0.00
          ---------------------------------------------------------------------

The optimization has not yet converged - more geometry cycles are needed


    ---------------------------------------------------------------------------
                         Redundant Internal Coordinates
                            (Angstroem and degrees)

        Definition                    Value    dE/dq     Step     New-Value
    ----------------------------------------------------------------------------
     1. B(C   1,C   0)                1.3377  0.016340 -0.0114    1.3264   
     2. B(O   2,C   1)                1.3656  0.018912 -0.0163    1.3493   
     3. B(C   3,O   2)                1.4276  0.010547 -0.0114    1.4162   
     4. B(C   4,C   3)                1.4990  0.006941 -0.0087    1.4903   
     5. B(C   5,C   4)                1.3398  0.022460 -0.0158    1.3240   
     6. B(H   6,C   0)                1.0828  0.001678 -0.0024    1.0804   
     7. B(H   7,C   0)                1.0858  0.004901 -0.0070    1.0787   
     8. B(H   8,C   1)                1.0854  0.002602 -0.0037    1.0817   
     9. B(H   9,C   3)                1.0966  0.003508 -0.0052    1.0913   
    10. B(H  10,C   3)                1.0964  0.002000 -0.0030    1.0934   
    11. B(H  11,C   4)                1.0875  0.002346 -0.0034    1.0841   
    12. B(H  12,C   5)                1.0858  0.003159 -0.0045    1.0812   
    13. B(H  13,C   5)                1.0855  0.001734 -0.0025    1.0830   
    14. A(H   6,C   0,H   7)          116.91 -0.002592    0.46    117.37   
    15. A(C   1,C   0,H   6)          123.29 -0.000507    0.05    123.34   
    16. A(C   1,C   0,H   7)          119.80  0.003099   -0.51    119.29   
    17. A(C   0,C   1,H   8)          121.75 -0.003090    0.39    122.14   
    18. A(C   0,C   1,O   2)          129.22  0.007947   -1.09    128.13   
    19. A(O   2,C   1,H   8)          109.03 -0.004858    0.69    109.73   
    20. A(C   1,O   2,C   3)          117.40  0.006682   -0.93    116.47   
    21. A(O   2,C   3,C   4)          107.50 -0.001617    0.35    107.85   
    22. A(C   4,C   3,H  10)          108.61 -0.003970    0.93    109.53   
    23. A(O   2,C   3,H  10)          110.04  0.003628   -0.72    109.32   
    24. A(C   4,C   3,H   9)          110.88 -0.000040    0.12    110.99   
    25. A(O   2,C   3,H   9)          110.09  0.000598   -0.16    109.92   
    26. A(H   9,C   3,H  10)          109.70  0.001333   -0.50    109.20   
    27. A(C   3,C   4,H  11)          116.01 -0.000340    0.03    116.04   
    28. A(C   5,C   4,H  11)          119.15 -0.003115    0.46    119.61   
    29. A(C   3,C   4,C   5)          124.84  0.003453   -0.49    124.35   
    30. A(H  12,C   5,H  13)          117.54  0.000065   -0.01    117.53   
    31. A(C   4,C   5,H  13)          121.80  0.000773   -0.12    121.68   
    32. A(C   4,C   5,H  12)          120.66 -0.000844    0.13    120.79   
    33. D(O   2,C   1,C   0,H   7)   -179.98 -0.000037    0.05   -179.93   
    34. D(H   8,C   1,C   0,H   7)      0.01  0.000020   -0.03     -0.02   
    35. D(O   2,C   1,C   0,H   6)     -0.01 -0.000053    0.07      0.07   
    36. D(H   8,C   1,C   0,H   6)    179.98  0.000005   -0.01    179.97   
    37. D(C   3,O   2,C   1,H   8)   -179.82 -0.000073    0.13   -179.69   
    38. D(C   3,O   2,C   1,C   0)      0.17 -0.000022    0.05      0.22   
    39. D(C   4,C   3,O   2,C   1)   -178.78  0.000785    0.36   -178.42   
    40. D(H  10,C   3,O   2,C   1)    -60.68 -0.002913    1.28    -59.40   
    41. D(H   9,C   3,O   2,C   1)     60.35  0.001477    0.09     60.44   
    42. D(H  11,C   4,C   3,H   9)    175.99 -0.000197    0.07    176.06   
    43. D(H  11,C   4,C   3,O   2)     55.62  0.000110   -0.02     55.60   
    44. D(C   5,C   4,C   3,H  10)    116.77 -0.000434   -0.88    115.89   
    45. D(C   5,C   4,C   3,H   9)     -3.83  0.000494   -0.94     -4.77   
    46. D(C   5,C   4,C   3,O   2)   -124.20  0.000800   -1.03   -125.23   
    47. D(H  12,C   5,C   4,C   3)    179.69 -0.001406    1.92    181.60   
    48. D(H  13,C   5,C   4,H  11)   -179.56  0.000022   -0.08   -179.64   
    49. D(H  13,C   5,C   4,C   3)      0.26 -0.000684    0.96      1.22   
    50. D(H  12,C   5,C   4,H  11)     -0.13 -0.000700    0.88      0.75   
    ----------------------------------------------------------------------------

Geometry step timings:
Preparation and reading OPT file:      0.000 s ( 3.230 %)
Internal coordinates            :      0.000 s ( 2.431 %)
B/P matrices and projection     :      0.001 s (19.208 %)
Hessian update/contruction      :      0.001 s (24.140 %)
Making the step                 :      0.001 s (21.014 %)
Converting the step to Cartesian:      0.000 s ( 4.620 %)
Storing new data                :      0.000 s ( 2.675 %)
Checking convergence            :      0.000 s ( 2.918 %)
Final printing                  :      0.001 s (19.555 %)
Total time                      :      0.003 s

Time for energy+gradient        :     26.046 s
Time for complete geometry iter :     26.325 s

         *************************************************************
         *                GEOMETRY OPTIMIZATION CYCLE   2            *
         *************************************************************
---------------------------------
CARTESIAN COORDINATES (ANGSTROEM)
---------------------------------
  C     -2.454204   -0.100467    0.664098
  C     -1.905817    0.537817   -0.361120
  O     -0.596032    0.664022   -0.659848
  C      0.316212    0.036466    0.223098
  C      1.695033    0.327784   -0.261695
  C      2.604172   -0.597066   -0.528323
  H     -1.878805   -0.619017    1.417320
  H     -3.528125   -0.111839    0.765293
  H     -2.500910    1.050586   -1.104698
  H      0.129587   -1.038504    0.248291
  H      0.187675    0.447335    1.228171
  H      1.945622    1.375617   -0.382114
  H      3.597364   -0.319447   -0.853222
  H      2.388229   -1.653288   -0.425118

----------------------------
CARTESIAN COORDINATES (A.U.)
----------------------------
  NO LB      ZA    FRAG     MASS         X           Y           Z
   0 C     4.0000*   0    12.011   -4.637774   -0.189856    1.254963
   1 C     4.0000*   0    12.011   -3.601473    1.016328   -0.682417
   2 O     6.0000*   0    15.999   -1.126337    1.254820   -1.246931
   3 C     4.0000*   0    12.011    0.597553    0.068911    0.421595
   4 C     4.0000*   0    12.011    3.203149    0.619423   -0.494532
   5 C     4.0000*   0    12.011    4.921172   -1.128291   -0.998385
   6 H     1.0000    0     1.008   -3.550427   -1.169774    2.678346
   7 H     1.0000    0     1.008   -6.667189   -0.211346    1.446194
   8 H     1.0000    0     1.008   -4.726034    1.985321   -2.087577
   9 H     1.0000    0     1.008    0.244884   -1.962487    0.469201
  10 H     1.0000    0     1.008    0.354654    0.845341    2.320907
  11 H     1.0000    0     1.008    3.676692    2.599540   -0.722091
  12 H     1.0000    0     1.008    6.798033   -0.603667   -1.612357
  13 H     1.0000    0     1.008    4.513098   -3.124262   -0.803356
* core charge reduced due to ECP

--------------------------------
INTERNAL COORDINATES (ANGSTROEM)
--------------------------------
 C      0   0   0     0.000000000000     0.00000000     0.00000000
 C      1   0   0     1.326350869306     0.00000000     0.00000000
 O      2   1   0     1.349334567626   128.13181727     0.00000000
 C      3   2   1     1.416194955131   116.47430184     0.22247233
 C      4   3   2     1.490315538771   107.85026098   181.57827414
 C      5   4   3     1.323998219208   124.35058124   234.76934020
 H      1   2   3     1.080426940669   123.34275491     0.06633870
 H      1   2   3     1.078737312463   119.28755140   180.07038173
 H      2   1   3     1.081654491888   122.14284218   179.90670695
 H      4   3   2     1.091340158674   109.92076685    60.44424305
 H      4   3   2     1.093392086587   109.32108370   300.59775764
 H      5   4   3     1.084088963789   116.03551543    55.59902377
 H      6   5   4     1.081231779200   120.79097928   181.60530692
 H      6   5   4     1.083000091108   121.67836043     1.21655180

---------------------------
INTERNAL COORDINATES (A.U.)
---------------------------
 C      0   0   0     0.000000000000     0.00000000     0.00000000
 C      1   0   0     2.506439900477     0.00000000     0.00000000
 O      2   1   0     2.549872795847   128.13181727     0.00000000
 C      3   2   1     2.676220617439   116.47430184     0.22247233
 C      4   3   2     2.816288221405   107.85026098   181.57827414
 C      5   4   3     2.501994036102   124.35058124   234.76934020
 H      1   2   3     2.041711025575   123.34275491     0.06633870
 H      1   2   3     2.038518090998   119.28755140   180.07038173
 H      2   1   3     2.044030761195   122.14284218   179.90670695
 H      4   3   2     2.062334018843   109.92076685    60.44424305
 H      4   3   2     2.066211600646   109.32108370   300.59775764
 H      5   4   3     2.048631246367   116.03551543    55.59902377
 H      6   5   4     2.043231949980   120.79097928   181.60530692
 H      6   5   4     2.046573575206   121.67836043     1.21655180



           ************************************************************
           *        Program running with 8 parallel MPI-processes     *
           *              working on a common directory               *
           ************************************************************
------------------------------------------------------------------------------
                   ___                                                        
                  /   \      - P O W E R E D   B Y -                         
                 /     \                                                     
                 |  |  |   _    _      __       _____    __    __             
                 |  |  |  | |  | |    /  \     |  _  \  |  |  /  |          
[...]
      8       0.000002   0.000012   0.000008  -0.000195   0.000014  -0.000274
      9       0.000170  -0.001814  -0.000167  -0.001113   0.000411   0.000103
     10       0.002331   0.004531   0.000070   0.000899  -0.000842   0.000313
     11       0.000543   0.002890  -0.000076  -0.001144  -0.000560  -0.000500
     12       0.010003   0.013084  -0.000168   0.000075  -0.001704   0.000075
     13       0.011530   0.083582  -0.000603   0.000056  -0.011555   0.000036
     14      -0.004079  -0.011195   0.000038   0.000018   0.001511   0.000058
     15      -0.041787   0.004711  -0.000024  -0.000086  -0.070478   0.000032
     16       0.051670  -0.023316   0.000215   0.000057  -0.064238   0.000037
     17       0.008725   0.000361  -0.000004   0.000023   0.026003  -0.000017
     18      -0.000187  -0.003775  -0.361088   0.133553   0.000226   0.371688
     19       0.000159   0.003127   0.335707  -0.124824  -0.000167  -0.358246
     20      -0.000281  -0.004442  -0.443750   0.165164   0.000246   0.475056
     21      -0.000321   0.005131   0.694581  -0.124947   0.000724   0.695668
     22       0.000022  -0.000024  -0.009568   0.000392  -0.000009  -0.001255
     23       0.000126  -0.000191  -0.061449   0.012916  -0.000113  -0.073520
     24       0.001120  -0.000210  -0.150349  -0.535527   0.000225   0.050709
     25      -0.001008   0.000760   0.129768   0.476764  -0.000323  -0.045826
     26       0.001444  -0.000797  -0.171827  -0.633351   0.000310   0.060908
     27      -0.006267  -0.008550   0.001930  -0.001824   0.003874  -0.002158
     28      -0.025062  -0.039637   0.002987  -0.009478   0.009131  -0.007203
     29       0.000522   0.000039   0.000190   0.000606  -0.000995  -0.000164
     30       0.000600   0.008155   0.001963  -0.001487  -0.000832  -0.002051
     31      -0.002635  -0.011251  -0.001373   0.002720   0.002078   0.002946
     32      -0.005899  -0.031789  -0.003178   0.008932   0.005006   0.007342
     33      -0.046559  -0.205338   0.001830  -0.000391   0.024253  -0.000614
     34      -0.198785  -0.933047   0.007391  -0.001322   0.114593  -0.001178
     35       0.031413   0.144204  -0.001175   0.000154  -0.017560   0.000278
     36       0.584357  -0.037400   0.000565   0.001489   0.711271  -0.000578
     37       0.163646  -0.010118   0.000132   0.000297   0.181817  -0.000139
     38      -0.187947   0.012231  -0.000142  -0.000573  -0.226910   0.000051
     39      -0.153620   0.046780  -0.000545  -0.000160   0.117282   0.000029
     40      -0.717402   0.225449  -0.002300  -0.000805   0.604321  -0.000340
     41       0.100137  -0.031590   0.000278   0.000182  -0.080748   0.000115


-----------
IR SPECTRUM
-----------

 Mode   freq       eps      Int      T**2         TX        TY        TZ
       cm**-1   L/(mol*cm) km/mol    a.u.
----------------------------------------------------------------------------
  6:     88.90   0.000025    0.13  0.000087  (-0.006363  0.001587  0.006624)
  7:     96.45   0.000027    0.14  0.000087  ( 0.007944  0.004612 -0.001589)
  8:    204.70   0.000062    0.31  0.000094  (-0.000992  0.003584 -0.008966)
  9:    250.13   0.001201    6.07  0.001499  ( 0.006567  0.033517  0.018228)
 10:    360.12   0.001108    5.60  0.000960  (-0.029330  0.002745 -0.009617)
 11:    448.67   0.000286    1.44  0.000199  (-0.003912 -0.001785  0.013425)
 12:    615.32   0.000213    1.07  0.000108  ( 0.003610  0.009011 -0.003685)
 13:    653.89   0.001401    7.08  0.000669  ( 0.005390  0.011943  0.022291)
 14:    732.34   0.000825    4.17  0.000351  (-0.001778 -0.014480 -0.011769)
 15:    851.70   0.014594   73.75  0.005347  ( 0.003898  0.059884  0.041786)
 16:    959.01   0.000369    1.86  0.000120  (-0.006100 -0.006328  0.006534)
 17:    978.71   0.010284   51.97  0.003279  (-0.022401 -0.002333 -0.052648)
 18:    988.65   0.005590   28.25  0.001765  ( 0.018332  0.011845 -0.035892)
 19:   1017.32   0.003700   18.70  0.001135  ( 0.009579  0.030516  0.010589)
 20:   1033.79   0.000562    2.84  0.000170  ( 0.012056  0.000278 -0.004926)
 21:   1053.69   0.008850   44.73  0.002621  ( 0.024800 -0.009837  0.043696)
 22:   1074.19   0.004928   24.91  0.001432  (-0.035902  0.011870 -0.001390)
 23:   1209.13   0.000383    1.94  0.000099  ( 0.001987  0.008470  0.004815)
 24:   1286.75   0.047384  239.46  0.011492  (-0.106391  0.006852  0.011205)
 25:   1304.11   0.000923    4.66  0.000221  (-0.012103 -0.007380 -0.004461)
 26:   1340.26   0.000029    0.15  0.000007  (-0.000230 -0.001903 -0.001774)
 27:   1378.83   0.015661   79.15  0.003545  (-0.058279 -0.002200  0.011969)
 28:   1423.21   0.001861    9.40  0.000408  ( 0.019101  0.000783 -0.006528)
 29:   1467.06   0.003396   17.16  0.000722  ( 0.025212 -0.008958  0.002532)
 30:   1493.16   0.003716   18.78  0.000777  ( 0.023301 -0.013354 -0.007443)
 31:   1537.39   0.001517    7.67  0.000308  (-0.012043 -0.009699  0.008296)
 32:   1741.24   0.043704  220.86  0.007833  (-0.073881 -0.021659  0.043647)
 33:   1781.00   0.001340    6.77  0.000235  ( 0.012995 -0.005674 -0.005807)
 34:   3078.66   0.002957   14.94  0.000300  ( 0.004925 -0.005046  0.015812)
 35:   3141.02   0.003773   19.07  0.000375  ( 0.001711  0.017715  0.007625)
 36:   3210.26   0.001137    5.74  0.000111  (-0.004896  0.009272  0.000751)
 37:   3239.63   0.000666    3.36  0.000064  ( 0.003245  0.007307 -0.000437)
 38:   3244.61   0.000418    2.11  0.000040  ( 0.005997 -0.001659  0.001223)
 39:   3272.27   0.001146    5.79  0.000109  ( 0.008566 -0.004065  0.004407)
 40:   3310.44   0.000563    2.84  0.000053  (-0.004782 -0.005253  0.001605)
 41:   3344.88   0.000343    1.73  0.000032  (-0.005557  0.000954 -0.000456)

* The epsilon (eps) is given for a Dirac delta lineshape.
** The dipole moment derivative (T) already includes vibrational overlap.

The first frequency considered to be a vibration is 6
The total number of vibrations considered is 36


--------------------------
THERMOCHEMISTRY AT 298.15K
--------------------------

Temperature         ...   298.15 K
Pressure            ...     1.00 atm
Total Mass          ...    84.12 AMU
Quasi RRHO          ...     True
Cut-Off Frequency   ...     1.00 cm^-1

Throughout the following assumptions are being made:
  (1) The electronic state is orbitally nondegenerate
  (2) There are no thermally accessible electronically excited states
  (3) Hindered rotations indicated by low frequency modes are not
      treated as such but are treated as vibrations and this may
      cause some error
  (4) All equations used are the standard statistical mechanics
      equations for an ideal gas
  (5) All vibrations are strictly harmonic

freq.      88.90  E(vib)   ...       0.47 
freq.      96.45  E(vib)   ...       0.47 
freq.     204.70  E(vib)   ...       0.35 
freq.     250.13  E(vib)   ...       0.31 
freq.     360.12  E(vib)   ...       0.22 
freq.     448.67  E(vib)   ...       0.17 
freq.     615.32  E(vib)   ...       0.10 
freq.     653.89  E(vib)   ...       0.08 
freq.     732.34  E(vib)   ...       0.06 
freq.     851.70  E(vib)   ...       0.04 
freq.     959.01  E(vib)   ...       0.03 
freq.     978.71  E(vib)   ...       0.03 
freq.     988.65  E(vib)   ...       0.02 
freq.    1017.32  E(vib)   ...       0.02 
freq.    1033.79  E(vib)   ...       0.02 
freq.    1053.69  E(vib)   ...       0.02 
freq.    1074.19  E(vib)   ...       0.02 
freq.    1209.13  E(vib)   ...       0.01 
freq.    1286.75  E(vib)   ...       0.01 
freq.    1304.11  E(vib)   ...       0.01 
freq.    1340.26  E(vib)   ...       0.01 
freq.    1378.83  E(vib)   ...       0.01 
freq.    1423.21  E(vib)   ...       0.00 
freq.    1467.06  E(vib)   ...       0.00 
freq.    1493.16  E(vib)   ...       0.00 
freq.    1537.39  E(vib)   ...       0.00 
freq.    1741.24  E(vib)   ...       0.00 
freq.    1781.00  E(vib)   ...       0.00 
freq.    3078.66  E(vib)   ...       0.00 
freq.    3141.02  E(vib)   ...       0.00 
freq.    3210.26  E(vib)   ...       0.00 
freq.    3239.63  E(vib)   ...       0.00 
freq.    3244.61  E(vib)   ...       0.00 
freq.    3272.27  E(vib)   ...       0.00 
freq.    3310.44  E(vib)   ...       0.00 
freq.    3344.88  E(vib)   ...       0.00 

------------
INNER ENERGY
------------

The inner energy is: U= E(el) + E(ZPE) + E(vib) + E(rot) + E(trans)
    E(el)   - is the total energy from the electronic structure calculation
              = E(kin-el) + E(nuc-el) + E(el-el) + E(nuc-nuc)
    E(ZPE)  - the the zero temperature vibrational energy from the frequency calculation
    E(vib)  - the the finite temperature correction to E(ZPE) due to population
              of excited vibrational states
    E(rot)  - is the rotational thermal energy
    E(trans)- is the translational thermal energy

Summary of contributions to the inner energy U:
Electronic energy                ...    -49.29926652 Eh
Zero point energy                ...      0.12122468 Eh      76.07 kcal/mol
Thermal vibrational correction   ...      0.00392944 Eh       2.47 kcal/mol
Thermal rotational correction    ...      0.00141627 Eh       0.89 kcal/mol
Thermal translational correction ...      0.00141627 Eh       0.89 kcal/mol
-----------------------------------------------------------------------
Total thermal energy                    -49.17127985 Eh


Summary of corrections to the electronic energy:
(perhaps to be used in another calculation)
Total thermal correction                  0.00676198 Eh       4.24 kcal/mol
Non-thermal (ZPE) correction              0.12122468 Eh      76.07 kcal/mol
-----------------------------------------------------------------------
Total correction                          0.12798666 Eh      80.31 kcal/mol


--------
ENTHALPY
--------

The enthalpy is H = U + kB*T
                kB is Boltzmann's constant
Total thermal energy              ...    -49.17127985 Eh 
Thermal Enthalpy correction       ...      0.00094421 Eh       0.59 kcal/mol
-----------------------------------------------------------------------
Total Enthalpy                    ...    -49.17033565 Eh


Note: Only C1 symmetry has been detected, increase convergence thresholds 
      if your molecule has a higher symmetry. Symmetry factor of 1.0 is   
      used for the rotational entropy correction. 
 

Note: Rotational entropy computed according to Herzberg 
Infrared and Raman Spectra, Chapter V,1, Van Nostrand Reinhold, 1945 
Point Group:  C1, Symmetry Number:   1  
Rotational constants in cm-1:     0.451895     0.056345     0.052378 

Vibrational entropy computed according to the QRRHO of S. Grimme
Chem.Eur.J. 2012 18 9955 using a reference frequency of 100.0 cm-1


-------
ENTROPY
-------

The entropy contributions are T*S = T*(S(el)+S(vib)+S(rot)+S(trans))
     S(el)   - electronic entropy
     S(vib)  - vibrational entropy
     S(rot)  - rotational entropy
     S(trans)- translational entropy
The entropies will be listed as multiplied by the temperature to get
units of energy

Electronic entropy                ...      0.00000000 Eh      0.00 kcal/mol
Vibrational entropy               ...      0.00676393 Eh      4.24 kcal/mol
Rotational entropy                ...      0.01263597 Eh      7.93 kcal/mol
Translational entropy             ...      0.01862630 Eh     11.69 kcal/mol
-----------------------------------------------------------------------
Final entropy term                ...      0.03802620 Eh     23.86 kcal/mol

In case the symmetry of your molecule has not been determined correctly
or in case you have a reason to use a different symmetry number we print 
out the resulting rotational entropy values for sn=1,12:

 non-linear molecules -----------------------------------
|  sn= 1 | S(rot)=       0.01263597 Eh      7.93 kcal/mol|
|  sn= 2 | S(rot)=       0.01198152 Eh      7.52 kcal/mol|
|  sn= 3 | S(rot)=       0.01159868 Eh      7.28 kcal/mol|
|  sn= 4 | S(rot)=       0.01132706 Eh      7.11 kcal/mol|
|  sn= 5 | S(rot)=       0.01111637 Eh      6.98 kcal/mol|
|  sn= 6 | S(rot)=       0.01094423 Eh      6.87 kcal/mol|
|  sn= 7 | S(rot)=       0.01079868 Eh      6.78 kcal/mol|
|  sn= 8 | S(rot)=       0.01067260 Eh      6.70 kcal/mol|
|  sn= 9 | S(rot)=       0.01056139 Eh      6.63 kcal/mol|
|  sn=10 | S(rot)=       0.01046192 Eh      6.56 kcal/mol|
|  sn=11 | S(rot)=       0.01037193 Eh      6.51 kcal/mol|
|  sn=12 | S(rot)=       0.01028977 Eh      6.46 kcal/mol|
 linear molecules ---------------------------------------
|  Dinfh | S(rot)=       0.00811046 Eh      5.09 kcal/mol|
|  Cinfv | S(rot)=       0.00876491 Eh      5.50 kcal/mol|
 --------------------------------------------------------


-------------------
GIBBS FREE ENERGY
-------------------

The Gibbs free energy is G = H - T*S

Total enthalpy                    ...    -49.17033565 Eh 
Total entropy correction          ...     -0.03802620 Eh    -23.86 kcal/mol
-----------------------------------------------------------------------
Final Gibbs free energy         ...    -49.20836185 Eh

For completeness - the Gibbs free energy minus the electronic energy
G-E(el)                           ...      0.09090467 Eh     57.04 kcal/mol


Maximum memory used throughout the entire PROP-calculation: 48.0 MB

--------------------------------
SUGGESTED CITATIONS FOR THIS RUN
--------------------------------

Below you find a list of papers that are relevant to this ORCA run
We neither can nor want to force you to cite these papers, but we appreciate if you do
You receive ORCA, which is the product of decades of hard work by many enthusiastic individuals, for free
The only thing we kindly ask in return is that you cite our papers,
We deeply appreciate it, if you show your appreciation for ORCA by not just citing the generic ORCA reference.

Please note that relegating all ORCA citations to the supporting information does *not* help us.
SI sections are not indexed - citations you put there will not count into any citation statistics
But we need these citations in order to attract the funding resources that allow us to do what we are doing

Therefore, if you are a happy ORCA user, please consider citing a few of the papers listed below in the main body of your paper

In addition to the list printed below, the program has created the file reactant.bibtex that contains the list in bibtex format
You can import this file easily into all common literature databanks and citation aid programs

It goes without saying that in many instances, there are alternative algorithms to achieve similar
results as the ones you have gotten from ORCA. It is, of course, also the case that in some instances
ORCA just re-implements algorithms worked out by others. We are fully aware of that and we are also
fully appreciative of our colleagues work. Hence this citation list should not be read as indicating
that the listed papers, which are focused on our own work, are the only ones worth citing. It simply
meant to make it easier for users to cite ORCA specific papers. It is not a substitute for doing your
own literature research and citing the relevant literature in a scientifically appropriate manner.

List of essential papers. We consider these as the minimum necessary citations

  1. Mueller, M.; Hansen, A.; Grimme, S.
     wB97X-3c: A composite range-separated hybrid DFT method with a molecule-optimized polarized valence double-zeta basis set
     J. Chem. Phys. 2023 158 , 014103
     doi.org/10.1063/5.0133026
  2. Neese, F.
     Software update: the ORCA program system, version 6.0
     WIRES Comput. Molec. Sci. 2025 15(1), e70019
     doi.org/10.1002/wcms.70019

List of papers to cite with high priority. The work reported in these papers was absolutely
necessary for this run to complete.
Our perspective: the developers of density functionals and basis sets usually get cited in chemistry papers
Good! But without the algorithms to do something with them, the functionals or basis sets would not do anything.
Hence, in our opinion, the algorithm design and method developments papers are equally worthy of getting cited

  1. Neese, F.
     An improvement of the resolution of the identity approximation for the formation of the Coulomb matrix
     J. Comp. Chem. 2003 24(14), 1740-1747
     doi.org/10.1002/jcc.10318
  2. Neese, F.; Wennmohs, F.; Hansen, A.; Becker, U.
     Efficient, approximate and parallel Hartree-Fock and hybrid DFT calculations. A 'chain-of-spheres' algorithm for the Hartree-Fock exchange
     Chem. Phys. 2009 356(1-3), 98-109
     doi.org/10.1016/j.chemphys.2008.10.036
  3. Bykov, D.; Petrenko, T.; Izsak, R.; Kossmann, S.; Becker, U.; Valeev, E.; Neese, F.
     Efficient implementation of the analytic second derivatives of Hartree-Fock and hybrid DFT energies: a detailed analysis of different approximations
     Molec. Phys. 2015 113 , 1961-1977
     doi.org/10.1080/00268976.2015.1025114
  4. Caldeweyher, E.; Bannwarth, C.; Grimme, S.
     Extension of the D3 dispersion coefficient model
     J. Chem. Phys. 2017 147 , 034112
     doi.org/10.1063/1.4993215
  5. Caldeweyher, E.; Ehlert, S.; Hansen, A.; Neugebauer, H.; Spicher, S.; Bannwarth, C.; Grimme, S.
     A generally applicable atomic-charge dependent London dispersion correction
     J. Chem. Phys. 2019 150 , 154122
     doi.org/10.1063/1.5090222
  6. Helmich-Paris, B.; de Souza, B.; Neese, F.; Izsák, R.
     An improved chain of spheres for exchange algorithm
     J. Chem. Phys. 2021 155(10), 104109
     doi.org/10.1063/5.0058766
  7. Neese, F.
     The SHARK Integral Generation and Digestion System
     J. Comp. Chem. 2022 44(3), 381
     doi.org/10.1002/jcc.26942

List of suggested additional citations. These are papers that are important in the 'surrounding' of 
of this run, or papers that preceded the highly important papers. If you like your results we are grateful for a citation.

  1. Izsak, R.; Neese, F.
     An overlap fitted chain of spheres exchange method
     J. Chem. Phys. 2011 135 , 144105
     doi.org/10.1063/1.3646921
  2. Izsak, R.; Hansen, A.; Neese, F.
     The resolution of identity and chain of spheres approximations for the LPNO-CCSD singles Fock term
     Molec. Phys. 2012 110 , 2413-2417
     doi.org/10.1080/00268976.2012.687466
  3. Neese, F.
     The ORCA program system
     WIRES Comput. Molec. Sci. 2012 2(1), 73-78
     doi.org/10.1002/wcms.81
  4. Izsak, R.; Neese, F.; Klopper, W.
     Robust fitting techniques in the chain of spheres approximation to the Fock exchange: The role of the complementary space
     J. Chem. Phys. 2013 139 , 
     doi.org/10.1063/1.4819264
  5. Neese, F.
     Software update: the ORCA program system, version 4.0
     WIRES Comput. Molec. Sci. 2018 8(1), 1-6
     doi.org/10.1002/wcms.1327
  6. Neese, F.; Wennmohs, F.; Becker, U.; Riplinger, C.
     The ORCA quantum chemistry program package
     J. Chem. Phys. 2020 152(22), 224108
     doi.org/10.1063/5.0004608
  7. Neese, F.
     Software update: The ORCA program system—Version 5.0
     WIRES Comput. Molec. Sci. 2022 12(1), e1606
     doi.org/10.1002/wcms.1606

List of optional additional citations

  1. Neese, F.
     Approximate second-order SCF convergence for spin unrestricted wavefunctions
     Chem. Phys. Lett. 2000 325(1-3), 93-98
     doi.org/10.1016/s0009-2614(00)00662-x

Timings for individual modules:

Sum of individual times          ...      261.958 sec (=   4.366 min)
Startup calculation              ...        8.682 sec (=   0.145 min)   3.3 %
SCF iterations                   ...      114.478 sec (=   1.908 min)  43.7 %
Property integrals               ...       16.598 sec (=   0.277 min)   6.3 %
SCF Response                     ...        9.245 sec (=   0.154 min)   3.5 %
Property calculations            ...       63.663 sec (=   1.061 min)  24.3 %
SCF Gradient evaluation          ...       49.258 sec (=   0.821 min)  18.8 %
Geometry relaxation              ...        0.035 sec (=   0.001 min)   0.0 %
                             ****ORCA TERMINATED NORMALLY****
TOTAL RUN TIME: 0 days 0 hours 4 minutes 24 seconds 897 msec
