14
Coordinates from ORCA-job ts_scan Relaxed Surface Scan Step 1 E -49.289949881431
  C      -1.421973     -0.947278      0.149935
  C      -1.598015      0.201076     -0.488906
  O      -0.884590      1.337728     -0.361217
  C       0.320248      1.252793      0.383756
  C       1.285995      0.379395     -0.341751
  C       1.574229     -0.852521      0.032469
  H      -0.710066     -1.112909      0.932918
  H      -2.107597     -1.751654     -0.074157
  H      -2.371701      0.321694     -1.235078
  H       0.117473      0.882809      1.390879
  H       0.679681      2.276039      0.461766
  H       1.654612      0.761374     -1.286918
  H       2.226429     -1.479000     -0.562813
  H       1.235275     -1.269546      0.969252
>
14
Coordinates from ORCA-job ts_scan Relaxed Surface Scan Step 2 E -49.286878528782
  C      -1.382656     -0.950243      0.167309
  C      -1.565994      0.185226     -0.491735
  O      -0.883896      1.338934     -0.347070
  C       0.325174      1.271379      0.397436
  C       1.281522      0.392936     -0.332474
  C       1.511404     -0.862578      0.003809
  H      -0.722524     -1.076230      1.000776
  H      -2.034838     -1.777196     -0.074611
  H      -2.304749      0.274108     -1.276842
  H       0.128722      0.910765      1.409005
  H       0.676396      2.298003      0.462438
  H       1.665287      0.783281     -1.268085
  H       2.138300     -1.496194     -0.611266
  H       1.167853     -1.292192      0.931443
>
14
Coordinates from ORCA-job ts_scan Relaxed Surface Scan Step 3 E -49.283095173336
  C      -1.342185     -0.953842      0.178600
  C      -1.535846      0.171792     -0.494025
  O      -0.884248      1.340416     -0.330578
  C       0.330362      1.288312      0.411561
  C       1.275098      0.403280     -0.323383
  C       1.449563     -0.870121     -0.019218
  H      -0.733958     -1.042797      1.054892
  H      -1.959318     -1.802603     -0.079953
  H      -2.239549      0.233655     -1.313258
  H       0.140528      0.937425      1.427638
  H       0.675405      2.317465      0.462938
  H       1.665292      0.795644     -1.255402
  H       2.047308     -1.511905     -0.655124
  H       1.111550     -1.306721      0.905445
>
14
Coordinates from ORCA-job ts_scan Relaxed Surface Scan Step 4 E -49.278489489302
  C      -1.300260     -0.958512      0.182362
  C      -1.508382      0.161296     -0.495863
  O      -0.885397      1.342114     -0.311742
  C       0.336427      1.303735      0.425670
  C       1.267231      0.410890     -0.314964
  C       1.389708     -0.875196     -0.034741
  H      -0.742665     -1.017011      1.093991
  H      -1.882833     -1.826516     -0.092770
  H      -2.178944      0.202358     -1.343795
  H       0.154010      0.962369      1.446229
  H       0.676166      2.334948      0.463036
  H       1.652617      0.799050     -1.250666
  H       1.952617     -1.527961     -0.691547
  H       1.069706     -1.311563      0.894933
>
14
Coordinates from ORCA-job ts_scan Relaxed Surface Scan Step 5 E -49.273001344260
  C      -1.257905     -0.964816      0.180001
  C      -1.483291      0.152683     -0.497460
  O      -0.887006      1.342839     -0.290294
  C       0.344513      1.318019      0.439902
  C       1.259573      0.417306     -0.307358
  C       1.330971     -0.877776     -0.043922
  H      -0.751538     -0.998542      1.122236
  H      -1.805710     -1.849786     -0.112650
  H      -2.121013      0.178394     -1.371098
  H       0.170991      0.985834      1.464909
  H       0.678017      2.351397      0.462577
  H       1.629403      0.796580     -1.252855
  H       1.851919     -1.544654     -0.721407
  H       1.041078     -1.307478      0.897552
>
14
Coordinates from ORCA-job ts_scan Relaxed Surface Scan Step 6 E -49.266599096186
  C      -1.215293     -0.972612      0.173711
  C      -1.459808      0.145115     -0.498924
  O      -0.887888      1.341505     -0.268492
  C       0.354722      1.331237      0.453454
  C       1.254126      0.423714     -0.300277
  C       1.273025     -0.877939     -0.048355
  H      -0.762041     -0.988244      1.143225
  H      -1.730773     -1.871012     -0.137046
  H      -2.065591      0.159861     -1.395472
  H       0.190465      1.007419      1.482561
  H       0.679724      2.367238      0.461462
  H       1.599735      0.791522     -1.259349
  H       1.745913     -1.560954     -0.745202
  H       1.023684     -1.296848      0.908836
>
14
Coordinates from ORCA-job ts_scan Relaxed Surface Scan Step 7 E -49.259317889194
  C      -1.173028     -0.982012      0.164295
  C      -1.438203      0.138385     -0.500315
  O      -0.889027      1.337469     -0.245197
  C       0.368000      1.343004      0.466536
  C       1.251415      0.430435     -0.294087
  C       1.215092     -0.876018     -0.049352
  H      -0.775938     -0.983688      1.158713
  H      -1.657044     -1.891521     -0.164922
  H      -2.011837      0.145659     -1.418234
  H       0.213634      1.027090      1.499437
  H       0.680636      2.382454      0.458869
  H       1.566020      0.785599     -1.268514
  H       1.635069     -1.576622     -0.762669
  H       1.015213     -1.280233      0.925574
>
14
Coordinates from ORCA-job ts_scan Relaxed Surface Scan Step 8 E -49.251341270634
  C      -1.130638     -0.991315      0.153886
  C      -1.419609      0.132932     -0.501457
  O      -0.890940      1.331446     -0.223539
  C       0.382852      1.353209      0.477972
  C       1.251395      0.436821     -0.287549
  C       1.157430     -0.873486     -0.048258
  H      -0.793000     -0.983101      1.170755
  H      -1.586061     -1.909396     -0.192698
  H      -1.962917      0.134385     -1.438182
  H       0.236744      1.045932      1.514402
  H       0.681060      2.396266      0.453930
  H       1.532923      0.779967     -1.276432
  H       1.526781     -1.588813     -0.774969
  H       1.013981     -1.264847      0.942271
>
14
Coordinates from ORCA-job ts_scan Relaxed Surface Scan Step 9 E -49.242962315472
  C      -1.088106     -0.999107      0.144840
  C      -1.404975      0.129016     -0.502557
  O      -0.895263      1.323793     -0.204949
  C       0.398932      1.361493      0.487755
  C       1.253765      0.442633     -0.279614
  C       1.099795     -0.871781     -0.047191
  H      -0.814631     -0.981986      1.181829
  H      -1.517504     -1.924499     -0.216057
  H      -1.919921      0.123984     -1.455869
  H       0.257002      1.064241      1.527243
  H       0.680628      2.408134      0.446054
  H       1.504930      0.776196     -1.280130
  H       1.427444     -1.595793     -0.785293
  H       1.017904     -1.256323      0.954073
>
14
Coordinates from ORCA-job ts_scan Relaxed Surface Scan Step 10 E -49.234714197462
  C      -1.045611     -1.004912      0.138329
  C      -1.395474      0.127026     -0.504066
  O      -0.906340      1.314814     -0.188491
  C       0.417852      1.368237      0.496423
  C       1.257940      0.448243     -0.269017
  C       1.042008     -0.872138     -0.046644
  H      -0.843595     -0.978517      1.193094
  H      -1.450966     -1.937113     -0.233568
  H      -1.883485      0.112821     -1.472454
  H       0.273763      1.083497      1.538376
  H       0.679153      2.418493      0.433462
  H       1.484886      0.774998     -1.277868
  H       1.341529     -1.596673     -0.796292
  H       1.028339     -1.258776      0.958851
>
14
Coordinates from ORCA-job ts_scan Relaxed Surface Scan Step 11 E -49.280210510593
  C      -1.054887     -1.194183     -0.375491
  C      -1.908977     -0.049861     -0.023236
  O      -2.662795     -0.034645      0.917656
  C       1.392965      1.656824      0.141398
  C       1.289622      0.418887     -0.322100
  C       0.704207     -0.696103      0.435373
  H      -1.341203     -2.119373      0.111894
  H      -0.842460     -1.293320     -1.435045
  H      -1.795883      0.848309     -0.654487
  H       1.040940      1.920911      1.131337
  H       1.834446      2.444659     -0.453711
  H       1.654128      0.193565     -1.318738
  H       1.244517     -1.633123      0.352381
  H       0.445381     -0.462547      1.462902
