srun: Job 662086 step creation temporarily disabled, retrying (Requested nodes are busy)
srun: Job 662086 step creation still disabled, retrying (Requested nodes are busy)
srun: Job 662086 step creation still disabled, retrying (Requested nodes are busy)
srun: Job 662086 step creation still disabled, retrying (Requested nodes are busy)
srun: Job 662086 step creation still disabled, retrying (Requested nodes are busy)
srun: Job 662086 step creation still disabled, retrying (Requested nodes are busy)
srun: Job 662086 step creation still disabled, retrying (Requested nodes are busy)
srun: Step created for StepId=662086.66

 *******************************************************************************
 *                                                                             *
 *  --------------------------------                                           *
 *   Amsterdam Modeling Suite (AMS)              2026.103                      *
 *  --------------------------------                                           *
 *                                               r260501 2026-05-01 873454b5   *
 *                                                                             *
 *                                                                             *
 *                              =================                              *
 *                              |               |                              *
 *                              |     A M S     |                              *
 *                              |               |                              *
 *                              =================                              *
 *                                                                             *
 *                                                                             *
 *   Online information and documentation:  https://www.scm.com/support/       *
 *   E-mail:  support@scm.com   info@scm.com                                   *
 *                                                                             *
 *   Scientific publications using AMS results must be properly referenced     *
 *   See the User Manuals (or the web site) for recommended citations          *
 *   The terms and conditions of the End User License Agreement apply to       *
 *   the use of AMS, https://www.scm.com/license-terms/                        *
 *                                                                             *
 **********************  x86_64_linux_intel / intelmpi  ************************
 
 Licensed to: Jong-June Jeon / University of Seoul 2026-06-02 13:44:15
 SCM User ID: u30731
  
 AMS 2026.103  RunTime: Jun03-2026 12:24:48  ShM Nodes: 1  Procs: 1

 AMS jobname: c1_fragA_ts
 AMS jobid  : 1999404254

 Start   directory: /gpfs/home1/yeseo1ee/projects/eda-asm-prediction/ADF_800/adf_outputs/batch_000/dipolar_001367/
 Results directory: /gpfs/home1/yeseo1ee/projects/eda-asm-prediction/ADF_800/adf_outputs/batch_000/dipolar_001367/c1_fragA_ts.results/
 Scratch directory: /tmp/amstmp_c1_fragA_ts_kid0.1999404254/

 RNG seed: -276892283 -922697143 -1209946772 2136604832 359902358 1658794202 -68623654 -1466490603



                      ************************************************************************
                      *  ADF 2026.103  RunTime: Jun03-2026 12:24:49  ShM Nodes: 1  Procs: 1  *
                      ************************************************************************
  

       ****************************
       * SINGLE POINT CALCULATION *
       ****************************

--------
Geometry
--------
Formula: C7H6O5
Atoms
  Index Symbol   x (angstrom)   y (angstrom)   z (angstrom)
      1      C    -0.32784000     3.98310000    -1.60543000
      2      C    -0.59396000     2.87001000    -0.64613000
      3      O    -1.62243000     2.70247000    -0.02424000
      4      C     0.52141000     1.87781000    -0.46007000
      5      O     1.77768000     2.16429000    -0.83451000
      6      C     2.63236000     1.21145000    -0.20666000
      7      O     3.80984000     1.15794000    -0.46823000
      8      C     1.74370000     0.50003000     0.66362000
      9      C     2.02378000    -0.37543000     1.79963000
     10      C     3.33329000    -1.10960000     1.77185000
     11      O     1.20244000    -0.48411000     2.70284000
     12      O     0.52356000     1.10919000     0.61427000
     13      H    -0.01762000     3.57997000    -2.58301000
     14      H     0.50949000     4.59376000    -1.22923000
     15      H    -1.22879000     4.59891000    -1.71343000
     16      H     4.17089000    -0.40495000     1.65201000
     17      H     3.35583000    -1.78826000     0.90368000
     18      H     3.44902000    -1.68619000     2.69834000

Total System Charge              0.00000


----------------
ADF Engine Input
----------------
 
   Basis
     Type TZ2P
     Core None
   End
   XC
     GGA BLYP
     Dispersion GRIMME3 BJDAMP
   End
   Symmetry NOSYM
   NumericalQuality Normal
   Unrestricted No
   SCF
     Iterations 200
     Converge 1.0e-6
   End
   Save TAPE21
 

 Title: *** (NO TITLE) ***

 *** adf ***



 ===========================
 A T T A C H E D   F I L E S
 ===========================
  



 ===============================
 M O D E L   P A R A M E T E R S
 ===============================
  
 DENSITY FUNCTIONAL POTENTIAL (scf)
    LDA:                               Exchange only                           == Not Default ==
    Gradient Corrections:              Becke88 LYP                             == Not Default ==

 SPIN  (restricted / unrestr.)
    Molecule:                          Restricted                               
    Fragments:                         Restricted                               

 OTHER ASPECTS
    Relativistic Corrections:          scalar (ZORA,MAPA)                       

    Nuclear Charge Density Model:      Point Charge Nuclei                      
    Core Treatment:                    Frozen Orbital(s)                        

    Hyperfine or Zeeman Interaction:   ---                                      

 Settings for Grimme D3 dispersion correction

      damping                        BJ
      s6                          1.000
      s8                          2.700
      a1                          0.430
      a2                          4.236

 Other (technical) parameters

      alpha                      14.000
      version                         4
 


 Fragment File(s)
 ----------------
 C:
         file : /gpfs/home1/yeseo1ee/projects/eda-asm-prediction/ADF_800/adf_outputs/batch_000/dipolar_001367/c1_fragA_ts.results/t21.50BA88D5.C
         jobid: 0
         title: Carbon (TZ2P)
 O:
         file : /gpfs/home1/yeseo1ee/projects/eda-asm-prediction/ADF_800/adf_outputs/batch_000/dipolar_001367/c1_fragA_ts.results/t21.6E90ABAE.O
         jobid: 0
         title: Oxygen (TZ2P)
 H:
         file : /gpfs/home1/yeseo1ee/projects/eda-asm-prediction/ADF_800/adf_outputs/batch_000/dipolar_001367/c1_fragA_ts.results/t21.6F35CCAB.H
         jobid: 0
         title: Hydrogen (TZ2P)



 ===============
 G E O M E T R Y  ***  3D  Molecule  ***
 ===============
  

 ATOMS
 =====                            X Y Z                    CHARGE
                                (Angstrom)             Nucl     +Core       At.Mass
                       --------------------------    ----------------       -------
    1  C              -0.3278    3.9831   -1.6054      6.00      6.00       12.0000
    2  C              -0.5940    2.8700   -0.6461      6.00      6.00       12.0000
    3  O              -1.6224    2.7025   -0.0242      8.00      8.00       15.9949
    4  C               0.5214    1.8778   -0.4601      6.00      6.00       12.0000
    5  O               1.7777    2.1643   -0.8345      8.00      8.00       15.9949
    6  C               2.6324    1.2114   -0.2067      6.00      6.00       12.0000
    7  O               3.8098    1.1579   -0.4682      8.00      8.00       15.9949
    8  C               1.7437    0.5000    0.6636      6.00      6.00       12.0000
    9  C               2.0238   -0.3754    1.7996      6.00      6.00       12.0000
   10  C               3.3333   -1.1096    1.7718      6.00      6.00       12.0000
   11  O               1.2024   -0.4841    2.7028      8.00      8.00       15.9949
   12  O               0.5236    1.1092    0.6143      8.00      8.00       15.9949
   13  H              -0.0176    3.5800   -2.5830      1.00      1.00        1.0078
   14  H               0.5095    4.5938   -1.2292      1.00      1.00        1.0078
   15  H              -1.2288    4.5989   -1.7134      1.00      1.00        1.0078
   16  H               4.1709   -0.4049    1.6520      1.00      1.00        1.0078
   17  H               3.3558   -1.7883    0.9037      1.00      1.00        1.0078
   18  H               3.4490   -1.6862    2.6983      1.00      1.00        1.0078


 FRAGMENTS
 =========                                     Atoms in this Fragment     Cart. coord.s (Angstrom)
                                               -------------------------------------------------------
    1  C                                                 1  C           -0.3278    3.9831   -1.6054
    2  C                                                 2  C           -0.5940    2.8700   -0.6461
    3  C                                                 4  C            0.5214    1.8778   -0.4601
    4  C                                                 6  C            2.6324    1.2114   -0.2067
    5  C                                                 8  C            1.7437    0.5000    0.6636
    6  C                                                 9  C            2.0238   -0.3754    1.7996
    7  C                                                10  C            3.3333   -1.1096    1.7718
    8  O                                                 3  O           -1.6224    2.7025   -0.0242
    9  O                                                 5  O            1.7777    2.1643   -0.8345
   10  O                                                 7  O            3.8098    1.1579   -0.4682
   11  O                                                11  O            1.2024   -0.4841    2.7028
   12  O                                                12  O            0.5236    1.1092    0.6143
   13  H                                                13  H           -0.0176    3.5800   -2.5830
   14  H                                                14  H            0.5095    4.5938   -1.2292
   15  H                                                15  H           -1.2288    4.5989   -1.7134
   16  H                                                16  H            4.1709   -0.4049    1.6520
   17  H                                                17  H            3.3558   -1.7883    0.9037
   18  H                                                18  H            3.4490   -1.6862    2.6983


 Interatomic Distance Matrix (Angstrom)
 --------------------------------------

   1)     0.000
   2)     1.493   0.000
   3)     2.412   1.213   0.000
   4)     2.543   1.504   2.338   0.000
   5)     2.887   2.482   3.537   1.342   0.000
   6)     4.290   3.654   4.512   2.228   1.426   0.000
   7)     5.138   4.728   5.665   3.366   2.297   1.207   0.000
   8)     4.645   3.577   4.081   2.158   2.239   1.433   2.446   0.000
   9)     6.010   4.834   5.108   3.527   3.667   2.629   3.269   1.461   0.000
  10)     7.124   6.092   6.505   4.670   4.464   3.129   3.223   2.519   1.502   0.000
  11)     6.392   5.069   5.057   4.006   4.456   3.659   4.422   2.328   1.226   2.408
          0.000
  12)     3.730   2.437   2.748   1.321   2.187   2.265   3.460   1.365   2.421   3.763
          2.713   0.000
  13)     1.102   2.142   3.145   2.774   2.878   4.275   4.999   4.809   6.247   7.224
          6.778   4.077   0.000
  14)     1.103   2.128   3.094   2.823   2.769   4.122   4.825   4.676   6.013   7.036
          6.460   3.942   1.772   0.000
  15)     1.097   2.129   2.570   3.470   3.967   5.353   6.227   5.593   6.904   8.096
          7.159   4.546   1.806   1.804   0.000
  16)     7.078   6.222   6.784   4.795   4.302   2.904   2.659   2.773   2.152   1.101
          3.150   4.083   7.166   6.833   8.095   0.000
  17)     7.292   6.301   6.768   4.831   4.597   3.279   3.282   2.809   2.138   1.102
          3.094   4.062   7.236   7.306   8.286   1.771   0.000
  18)     8.058   6.949   7.238   5.590   5.486   4.184   4.272   3.439   2.135   1.097
          2.548   4.551   8.225   7.969   8.992   1.805   1.800   0.000

 Min. Distance =    1.0966
 Max. Distance =    8.9916



 =====================================
 S Y M M E T R Y ,   E L E C T R O N S
 =====================================
  
 Symmetry: NOSYM

 Irreducible Representations, including subspecies
 -------------------------------------------------
 A


 Configuration of Valence Electrons
 ==================================
 ( determined in the SCF procedure )

 Total:   88

 Net Charge: 0 (Nuclei minus Electrons)

 Aufbau principle for MO occupations will be applied through SCF cycle no.     100
 Thereafter, the program will assign electrons to MOs that are spatially
 similar to the occupied MOs in a "reference" cycle ("KeepOrbitals").
 The reference cycle is always the PREVIOUS cycle: it will evolve with
 the SCF procedure.
 ***************************************************************************************************



                                      ****************************************
                                      *  B U I L D : (Fragments, Functions)  *
                                      ****************************************
  



 =======
 S F O s  ***  (Symmetrized Fragment Orbitals)  ***
 =======
  
 SFOs are linear combinations of (valence) Fragment Orbitals (FOs), such that the SFOs transform as the
 irreducible representations of the (molecular) symmetry group. Each SFO is therefore characterized by
 an irrep of the molecule and by a few (or only one) generating FOs.
 The SFOs constitute a symmetry-adapted basis for the Fock matrix. The MO eigenvector coefficients in
 this basis provide a direct interpretation of the MOs in terms of Frontier Orbital Theory.

 The SFOs are combined with auxiliary Core Functions (CFs) to ensure orthogonalization on the (frozen)
 Core Orbitals (COs). The Core-orthogonalized SFOs (CSFOs) constitute the true Fock basis.

 The FOs, and hence also the (C)SFOs are combinations of the elementary basis functions (BAS). The basis
 functions that participate in the description of the SFOs depend on the irrep. The indices of the
 involved functions are printed below for each irrep.
 (The complete list of primitive basis functions is printed in another section)

 Total nr. of (C)SFOs (summation over all irreps) :   378

 NOTE: a (C)SFO that is defined as a combination of more than one FO is usually NOT normalized.



                                       === A ===
 Nr. of SFOs :  378
 Cartesian basis functions that participate in this irrep (total number =   432) :
      1     2     3     4     5     6     9    12     7    10
     13     8    11    14    15    16    17    18    19    20
     21    22    23    24    25    26    27    28    29    30
     31    32    33    34    35    36    39    42    37    40
     43    38    41    44    45    46    47    48    49    50
     51    52    53    54    55    56    57    58    59    60
     61    62    63    64    65    66    69    72    67    70
     73    68    71    74    75    76    77    78    79    80
     81    82    83    84    85    86    87    88    89    90
     91    92    93    94    95    96    99   102    97   100
    103    98   101   104   105   106   107   108   109   110
    111   112   113   114   115   116   117   118   119   120
    121   122   123   124   125   126   129   132   127   130
    133   128   131   134   135   136   137   138   139   140
    141   142   143   144   145   146   147   148   149   150
    151   152   153   154   155   156   159   162   157   160
    163   158   161   164   165   166   167   168   169   170
    171   172   173   174   175   176   177   178   179   180
    181   182   183   184   185   186   189   192   187   190
    193   188   191   194   195   196   197   198   199   200
    201   202   203   204   205   206   207   208   209   210
    211   212   213   214   215   216   219   222   217   220
    223   218   221   224   225   226   227   228   229   230
    231   232   233   234   235   236   237   238   239   240
    241   242   243   244   245   246   249   252   247   250
    253   248   251   254   255   256   257   258   259   260
    261   262   263   264   265   266   267   268   269   270
    271   272   273   274   275   276   279   282   277   280
    283   278   281   284   285   286   287   288   289   290
    291   292   293   294   295   296   297   298   299   300
    301   302   303   304   305   306   309   312   307   310
    313   308   311   314   315   316   317   318   319   320
    321   322   323   324   325   326   327   328   329   330
    331   332   333   334   335   336   339   342   337   340
    343   338   341   344   345   346   347   348   349   350
    351   352   353   354   355   356   357   358   359   360
    361   362   363   364   365   366   367   368   369   370
    371   372   373   374   375   376   377   378   379   380
    381   382   383   384   385   386   387   388   389   390
    391   392   393   394   395   396   397   398   399   400
    401   402   403   404   405   406   407   408   409   410
    411   412   413   414   415   416   417   418   419   420
    421   422   423   424   425   426   427   428   429   430
    431   432

    SFO  (index         Fragment          Generating    Expansion in Fragment Orbitals
  indx  incl.CFs)   Occup   Orb.Energy   FragmentType  Coeff.   Orbital     on Fragment
 --------------------------------------------------------------------------------------
     1       1      2.000     -10.066 au  C             1.00      1 S               1
                        (    -273.921 eV)
     2       2      2.000      -0.501 au  C             1.00      2 S               1
                        (     -13.620 eV)
     3       3       --         0.373 au  C             1.00      3 S               1
                        (      10.158 eV)
     4       4       --         5.405 au  C             1.00      4 S               1
                        (     147.073 eV)
     5       5       --        49.848 au  C             1.00      5 S               1
                        (    1356.422 eV)
     6       6      0.667      -0.193 au  C             1.00      1 P:x             1
                        (      -5.239 eV)
     7       7       --         0.169 au  C             1.00      2 P:x             1
                        (       4.589 eV)
     8       8       --         2.013 au  C             1.00      3 P:x             1
                        (      54.789 eV)
     9       9      0.667      -0.193 au  C             1.00      1 P:y             1
                        (      -5.239 eV)
    10      10       --         0.169 au  C             1.00      2 P:y             1
                        (       4.589 eV)
    11      11       --         2.013 au  C             1.00      3 P:y             1
                        (      54.789 eV)
    12      12      0.667      -0.193 au  C             1.00      1 P:z             1
                        (      -5.239 eV)
    13      13       --         0.169 au  C             1.00      2 P:z             1
                        (       4.589 eV)
    14      14       --         2.013 au  C             1.00      3 P:z             1
                        (      54.789 eV)
    15      15       --         1.243 au  C             1.00      1 D:z2            1
                        (      33.824 eV)
    16      16       --         1.243 au  C             1.00      1 D:x2-y2         1
                        (      33.824 eV)
    17      17       --         1.243 au  C             1.00      1 D:xy            1
                        (      33.824 eV)
    18      18       --         1.243 au  C             1.00      1 D:xz            1
                        (      33.824 eV)
    19      19       --         1.243 au  C             1.00      1 D:yz            1
                        (      33.824 eV)
    20      20       --         4.016 au  C             1.00      1 F:z3            1
                        (     109.271 eV)
    21      21       --         4.016 au  C             1.00      1 F:z             1
                        (     109.271 eV)
    22      22       --         4.016 au  C             1.00      1 F:xyz           1
                        (     109.271 eV)
    23      23       --         4.016 au  C             1.00      1 F:z2x           1
                        (     109.271 eV)
    24      24       --         4.016 au  C             1.00      1 F:z2y           1
                        (     109.271 eV)
    25      25       --         4.016 au  C             1.00      1 F:x             1
                        (     109.271 eV)
    26      26       --         4.016 au  C             1.00      1 F:y             1
                        (     109.271 eV)
    27      27      2.000     -10.066 au  C             1.00      1 S               2
                        (    -273.921 eV)
    28      28      2.000      -0.501 au  C             1.00      2 S               2
                        (     -13.620 eV)
    29      29       --         0.373 au  C             1.00      3 S               2
                        (      10.158 eV)
    30      30       --         5.405 au  C             1.00      4 S               2
                        (     147.073 eV)
    31      31       --        49.848 au  C             1.00      5 S               2
                        (    1356.422 eV)
    32      32      0.667      -0.193 au  C             1.00      1 P:x             2
                        (      -5.239 eV)
    33      33       --         0.169 au  C             1.00      2 P:x             2
                        (       4.589 eV)
    34      34       --         2.013 au  C             1.00      3 P:x             2
                        (      54.789 eV)
    35      35      0.667      -0.193 au  C             1.00      1 P:y             2
                        (      -5.239 eV)
    36      36       --         0.169 au  C             1.00      2 P:y             2
                        (       4.589 eV)
    37      37       --         2.013 au  C             1.00      3 P:y             2
                        (      54.789 eV)
    38      38      0.667      -0.193 au  C             1.00      1 P:z             2
                        (      -5.239 eV)
    39      39       --         0.169 au  C             1.00      2 P:z             2
                        (       4.589 eV)
    40      40       --         2.013 au  C             1.00      3 P:z             2
                        (      54.789 eV)
    41      41       --         1.243 au  C             1.00      1 D:z2            2
                        (      33.824 eV)
    42      42       --         1.243 au  C             1.00      1 D:x2-y2         2
                        (      33.824 eV)
    43      43       --         1.243 au  C             1.00      1 D:xy            2
                        (      33.824 eV)
    44      44       --         1.243 au  C             1.00      1 D:xz            2
                        (      33.824 eV)
    45      45       --         1.243 au  C             1.00      1 D:yz            2
                        (      33.824 eV)
    46      46       --         4.016 au  C             1.00      1 F:z3            2
                        (     109.271 eV)
    47      47       --         4.016 au  C             1.00      1 F:z             2
                        (     109.271 eV)
    48      48       --         4.016 au  C             1.00      1 F:xyz           2
                        (     109.271 eV)
    49      49       --         4.016 au  C             1.00      1 F:z2x           2
                        (     109.271 eV)
    50      50       --         4.016 au  C             1.00      1 F:z2y           2
                        (     109.271 eV)
    51      51       --         4.016 au  C             1.00      1 F:x             2
                        (     109.271 eV)
    52      52       --         4.016 au  C             1.00      1 F:y             2
                        (     109.271 eV)
    53      53      2.000     -10.066 au  C             1.00      1 S               3
                        (    -273.921 eV)
    54      54      2.000      -0.501 au  C             1.00      2 S               3
                        (     -13.620 eV)
    55      55       --         0.373 au  C             1.00      3 S               3
                        (      10.158 eV)
    56      56       --         5.405 au  C             1.00      4 S               3
                        (     147.073 eV)
    57      57       --        49.848 au  C             1.00      5 S               3
                        (    1356.422 eV)
    58      58      0.667      -0.193 au  C             1.00      1 P:x             3
                        (      -5.239 eV)
    59      59       --         0.169 au  C             1.00      2 P:x             3
                        (       4.589 eV)
    60      60       --         2.013 au  C             1.00      3 P:x             3
                        (      54.789 eV)
    61      61      0.667      -0.193 au  C             1.00      1 P:y             3
                        (      -5.239 eV)
    62      62       --         0.169 au  C             1.00      2 P:y             3
                        (       4.589 eV)
    63      63       --         2.013 au  C             1.00      3 P:y             3
                        (      54.789 eV)
    64      64      0.667      -0.193 au  C             1.00      1 P:z             3
                        (      -5.239 eV)
    65      65       --         0.169 au  C             1.00      2 P:z             3
                        (       4.589 eV)
    66      66       --         2.013 au  C             1.00      3 P:z             3
                        (      54.789 eV)
    67      67       --         1.243 au  C             1.00      1 D:z2            3
                        (      33.824 eV)
    68      68       --         1.243 au  C             1.00      1 D:x2-y2         3
                        (      33.824 eV)
    69      69       --         1.243 au  C             1.00      1 D:xy            3
                        (      33.824 eV)
    70      70       --         1.243 au  C             1.00      1 D:xz            3
                        (      33.824 eV)
    71      71       --         1.243 au  C             1.00      1 D:yz            3
                        (      33.824 eV)
    72      72       --         4.016 au  C             1.00      1 F:z3            3
                        (     109.271 eV)
    73      73       --         4.016 au  C             1.00      1 F:z             3
                        (     109.271 eV)
    74      74       --         4.016 au  C             1.00      1 F:xyz           3
                        (     109.271 eV)
    75      75       --         4.016 au  C             1.00      1 F:z2x           3
                        (     109.271 eV)
    76      76       --         4.016 au  C             1.00      1 F:z2y           3
                        (     109.271 eV)
    77      77       --         4.016 au  C             1.00      1 F:x             3
                        (     109.271 eV)
    78      78       --         4.016 au  C             1.00      1 F:y             3
                        (     109.271 eV)
    79      79      2.000     -10.066 au  C             1.00      1 S               4
                        (    -273.921 eV)
    80      80      2.000      -0.501 au  C             1.00      2 S               4
                        (     -13.620 eV)
    81      81       --         0.373 au  C             1.00      3 S               4
                        (      10.158 eV)
    82      82       --         5.405 au  C             1.00      4 S               4
                        (     147.073 eV)
    83      83       --        49.848 au  C             1.00      5 S               4
                        (    1356.422 eV)
    84      84      0.667      -0.193 au  C             1.00      1 P:x             4
                        (      -5.239 eV)
    85      85       --         0.169 au  C             1.00      2 P:x             4
                        (       4.589 eV)
    86      86       --         2.013 au  C             1.00      3 P:x             4
                        (      54.789 eV)
    87      87      0.667      -0.193 au  C             1.00      1 P:y             4
                        (      -5.239 eV)
    88      88       --         0.169 au  C             1.00      2 P:y             4
                        (       4.589 eV)
    89      89       --         2.013 au  C             1.00      3 P:y             4
                        (      54.789 eV)
    90      90      0.667      -0.193 au  C             1.00      1 P:z             4
                        (      -5.239 eV)
    91      91       --         0.169 au  C             1.00      2 P:z             4
                        (       4.589 eV)
    92      92       --         2.013 au  C             1.00      3 P:z             4
                        (      54.789 eV)
    93      93       --         1.243 au  C             1.00      1 D:z2            4
                        (      33.824 eV)
    94      94       --         1.243 au  C             1.00      1 D:x2-y2         4
                        (      33.824 eV)
    95      95       --         1.243 au  C             1.00      1 D:xy            4
                        (      33.824 eV)
    96      96       --         1.243 au  C             1.00      1 D:xz            4
                        (      33.824 eV)
    97      97       --         1.243 au  C             1.00      1 D:yz            4
                        (      33.824 eV)
    98      98       --         4.016 au  C             1.00      1 F:z3            4
                        (     109.271 eV)
    99      99       --         4.016 au  C             1.00      1 F:z             4
                        (     109.271 eV)
   100     100       --         4.016 au  C             1.00      1 F:xyz           4
                        (     109.271 eV)
   101     101       --         4.016 au  C             1.00      1 F:z2x           4
                        (     109.271 eV)
   102     102       --         4.016 au  C             1.00      1 F:z2y           4
                        (     109.271 eV)
   103     103       --         4.016 au  C             1.00      1 F:x             4
                        (     109.271 eV)
   104     104       --         4.016 au  C             1.00      1 F:y             4
                        (     109.271 eV)
   105     105      2.000     -10.066 au  C             1.00      1 S               5
                        (    -273.921 eV)
   106     106      2.000      -0.501 au  C             1.00      2 S               5
                        (     -13.620 eV)
   107     107       --         0.373 au  C             1.00      3 S               5
                        (      10.158 eV)
   108     108       --         5.405 au  C             1.00      4 S               5
                        (     147.073 eV)
   109     109       --        49.848 au  C             1.00      5 S               5
                        (    1356.422 eV)
   110     110      0.667      -0.193 au  C             1.00      1 P:x             5
                        (      -5.239 eV)
   111     111       --         0.169 au  C             1.00      2 P:x             5
                        (       4.589 eV)
   112     112       --         2.013 au  C             1.00      3 P:x             5
                        (      54.789 eV)
   113     113      0.667      -0.193 au  C             1.00      1 P:y             5
                        (      -5.239 eV)
   114     114       --         0.169 au  C             1.00      2 P:y             5
                        (       4.589 eV)
   115     115       --         2.013 au  C             1.00      3 P:y             5
                        (      54.789 eV)
   116     116      0.667      -0.193 au  C             1.00      1 P:z             5
                        (      -5.239 eV)
   117     117       --         0.169 au  C             1.00      2 P:z             5
                        (       4.589 eV)
   118     118       --         2.013 au  C             1.00      3 P:z             5
                        (      54.789 eV)
   119     119       --         1.243 au  C             1.00      1 D:z2            5
                        (      33.824 eV)
   120     120       --         1.243 au  C             1.00      1 D:x2-y2         5
                        (      33.824 eV)
   121     121       --         1.243 au  C             1.00      1 D:xy            5
                        (      33.824 eV)
   122     122       --         1.243 au  C             1.00      1 D:xz            5
                        (      33.824 eV)
   123     123       --         1.243 au  C             1.00      1 D:yz            5
                        (      33.824 eV)
   124     124       --         4.016 au  C             1.00      1 F:z3            5
                        (     109.271 eV)
   125     125       --         4.016 au  C             1.00      1 F:z             5
                        (     109.271 eV)
   126     126       --         4.016 au  C             1.00      1 F:xyz           5
                        (     109.271 eV)
   127     127       --         4.016 au  C             1.00      1 F:z2x           5
                        (     109.271 eV)
   128     128       --         4.016 au  C             1.00      1 F:z2y           5
                        (     109.271 eV)
   129     129       --         4.016 au  C             1.00      1 F:x             5
                        (     109.271 eV)
   130     130       --         4.016 au  C             1.00      1 F:y             5
                        (     109.271 eV)
   131     131      2.000     -10.066 au  C             1.00      1 S               6
                        (    -273.921 eV)
   132     132      2.000      -0.501 au  C             1.00      2 S               6
                        (     -13.620 eV)
   133     133       --         0.373 au  C             1.00      3 S               6
                        (      10.158 eV)
   134     134       --         5.405 au  C             1.00      4 S               6
                        (     147.073 eV)
   135     135       --        49.848 au  C             1.00      5 S               6
                        (    1356.422 eV)
   136     136      0.667      -0.193 au  C             1.00      1 P:x             6
                        (      -5.239 eV)
   137     137       --         0.169 au  C             1.00      2 P:x             6
                        (       4.589 eV)
   138     138       --         2.013 au  C             1.00      3 P:x             6
                        (      54.789 eV)
   139     139      0.667      -0.193 au  C             1.00      1 P:y             6
                        (      -5.239 eV)
   140     140       --         0.169 au  C             1.00      2 P:y             6
                        (       4.589 eV)
   141     141       --         2.013 au  C             1.00      3 P:y             6
                        (      54.789 eV)
   142     142      0.667      -0.193 au  C             1.00      1 P:z             6
                        (      -5.239 eV)
   143     143       --         0.169 au  C             1.00      2 P:z             6
                        (       4.589 eV)
   144     144       --         2.013 au  C             1.00      3 P:z             6
                        (      54.789 eV)
   145     145       --         1.243 au  C             1.00      1 D:z2            6
                        (      33.824 eV)
   146     146       --         1.243 au  C             1.00      1 D:x2-y2         6
                        (      33.824 eV)
   147     147       --         1.243 au  C             1.00      1 D:xy            6
                        (      33.824 eV)
   148     148       --         1.243 au  C             1.00      1 D:xz            6
                        (      33.824 eV)
   149     149       --         1.243 au  C             1.00      1 D:yz            6
                        (      33.824 eV)
   150     150       --         4.016 au  C             1.00      1 F:z3            6
                        (     109.271 eV)
   151     151       --         4.016 au  C             1.00      1 F:z             6
                        (     109.271 eV)
   152     152       --         4.016 au  C             1.00      1 F:xyz           6
                        (     109.271 eV)
   153     153       --         4.016 au  C             1.00      1 F:z2x           6
                        (     109.271 eV)
   154     154       --         4.016 au  C             1.00      1 F:z2y           6
                        (     109.271 eV)
   155     155       --         4.016 au  C             1.00      1 F:x             6
                        (     109.271 eV)
   156     156       --         4.016 au  C             1.00      1 F:y             6
                        (     109.271 eV)
   157     157      2.000     -10.066 au  C             1.00      1 S               7
                        (    -273.921 eV)
   158     158      2.000      -0.501 au  C             1.00      2 S               7
                        (     -13.620 eV)
   159     159       --         0.373 au  C             1.00      3 S               7
                        (      10.158 eV)
   160     160       --         5.405 au  C             1.00      4 S               7
                        (     147.073 eV)
   161     161       --        49.848 au  C             1.00      5 S               7
                        (    1356.422 eV)
   162     162      0.667      -0.193 au  C             1.00      1 P:x             7
                        (      -5.239 eV)
   163     163       --         0.169 au  C             1.00      2 P:x             7
                        (       4.589 eV)
   164     164       --         2.013 au  C             1.00      3 P:x             7
                        (      54.789 eV)
   165     165      0.667      -0.193 au  C             1.00      1 P:y             7
                        (      -5.239 eV)
   166     166       --         0.169 au  C             1.00      2 P:y             7
                        (       4.589 eV)
   167     167       --         2.013 au  C             1.00      3 P:y             7
                        (      54.789 eV)
   168     168      0.667      -0.193 au  C             1.00      1 P:z             7
                        (      -5.239 eV)
   169     169       --         0.169 au  C             1.00      2 P:z             7
                        (       4.589 eV)
   170     170       --         2.013 au  C             1.00      3 P:z             7
                        (      54.789 eV)
   171     171       --         1.243 au  C             1.00      1 D:z2            7
                        (      33.824 eV)
   172     172       --         1.243 au  C             1.00      1 D:x2-y2         7
                        (      33.824 eV)
   173     173       --         1.243 au  C             1.00      1 D:xy            7
                        (      33.824 eV)
   174     174       --         1.243 au  C             1.00      1 D:xz            7
                        (      33.824 eV)
   175     175       --         1.243 au  C             1.00      1 D:yz            7
                        (      33.824 eV)
   176     176       --         4.016 au  C             1.00      1 F:z3            7
                        (     109.271 eV)
   177     177       --         4.016 au  C             1.00      1 F:z             7
                        (     109.271 eV)
   178     178       --         4.016 au  C             1.00      1 F:xyz           7
                        (     109.271 eV)
   179     179       --         4.016 au  C             1.00      1 F:z2x           7
                        (     109.271 eV)
   180     180       --         4.016 au  C             1.00      1 F:z2y           7
                        (     109.271 eV)
   181     181       --         4.016 au  C             1.00      1 F:x             7
                        (     109.271 eV)
   182     182       --         4.016 au  C             1.00      1 F:y             7
                        (     109.271 eV)
   183     183      2.000     -18.941 au  O             1.00      1 S               8
                        (    -515.403 eV)
   184     184      2.000      -0.876 au  O             1.00      2 S               8
                        (     -23.838 eV)
   185     185       --         0.791 au  O             1.00      3 S               8
                        (      21.524 eV)
   186     186       --        13.422 au  O             1.00      4 S               8
                        (     365.226 eV)
   187     187       --       121.561 au  O             1.00      5 S               8
                        (    3307.838 eV)
   188     188      1.333      -0.331 au  O             1.00      1 P:x             8
                        (      -9.020 eV)
   189     189       --         0.347 au  O             1.00      2 P:x             8
                        (       9.437 eV)
   190     190       --         3.820 au  O             1.00      3 P:x             8
                        (     103.939 eV)
   191     191      1.333      -0.331 au  O             1.00      1 P:y             8
                        (      -9.020 eV)
   192     192       --         0.347 au  O             1.00      2 P:y             8
                        (       9.437 eV)
   193     193       --         3.820 au  O             1.00      3 P:y             8
                        (     103.939 eV)
   194     194      1.333      -0.331 au  O             1.00      1 P:z             8
                        (      -9.020 eV)
   195     195       --         0.347 au  O             1.00      2 P:z             8
                        (       9.437 eV)
   196     196       --         3.820 au  O             1.00      3 P:z             8
                        (     103.939 eV)
   197     197       --         1.071 au  O             1.00      1 D:z2            8
                        (      29.134 eV)
   198     198       --         1.071 au  O             1.00      1 D:x2-y2         8
                        (      29.134 eV)
   199     199       --         1.071 au  O             1.00      1 D:xy            8
                        (      29.134 eV)
   200     200       --         1.071 au  O             1.00      1 D:xz            8
                        (      29.134 eV)
   201     201       --         1.071 au  O             1.00      1 D:yz            8
                        (      29.134 eV)
   202     202       --         3.359 au  O             1.00      1 F:z3            8
                        (      91.410 eV)
   203     203       --         3.359 au  O             1.00      1 F:z             8
                        (      91.410 eV)
   204     204       --         3.359 au  O             1.00      1 F:xyz           8
                        (      91.410 eV)
   205     205       --         3.359 au  O             1.00      1 F:z2x           8
                        (      91.410 eV)
   206     206       --         3.359 au  O             1.00      1 F:z2y           8
                        (      91.410 eV)
   207     207       --         3.359 au  O             1.00      1 F:x             8
                        (      91.410 eV)
   208     208       --         3.359 au  O             1.00      1 F:y             8
                        (      91.410 eV)
   209     209      2.000     -18.941 au  O             1.00      1 S               9
                        (    -515.403 eV)
   210     210      2.000      -0.876 au  O             1.00      2 S               9
                        (     -23.838 eV)
   211     211       --         0.791 au  O             1.00      3 S               9
                        (      21.524 eV)
   212     212       --        13.422 au  O             1.00      4 S               9
                        (     365.226 eV)
   213     213       --       121.561 au  O             1.00      5 S               9
                        (    3307.838 eV)
   214     214      1.333      -0.331 au  O             1.00      1 P:x             9
                        (      -9.020 eV)
   215     215       --         0.347 au  O             1.00      2 P:x             9
                        (       9.437 eV)
   216     216       --         3.820 au  O             1.00      3 P:x             9
                        (     103.939 eV)
   217     217      1.333      -0.331 au  O             1.00      1 P:y             9
                        (      -9.020 eV)
   218     218       --         0.347 au  O             1.00      2 P:y             9
                        (       9.437 eV)
   219     219       --         3.820 au  O             1.00      3 P:y             9
                        (     103.939 eV)
   220     220      1.333      -0.331 au  O             1.00      1 P:z             9
                        (      -9.020 eV)
   221     221       --         0.347 au  O             1.00      2 P:z             9
                        (       9.437 eV)
   222     222       --         3.820 au  O             1.00      3 P:z             9
                        (     103.939 eV)
   223     223       --         1.071 au  O             1.00      1 D:z2            9
                        (      29.134 eV)
   224     224       --         1.071 au  O             1.00      1 D:x2-y2         9
                        (      29.134 eV)
   225     225       --         1.071 au  O             1.00      1 D:xy            9
                        (      29.134 eV)
   226     226       --         1.071 au  O             1.00      1 D:xz            9
                        (      29.134 eV)
   227     227       --         1.071 au  O             1.00      1 D:yz            9
                        (      29.134 eV)
   228     228       --         3.359 au  O             1.00      1 F:z3            9
                        (      91.410 eV)
   229     229       --         3.359 au  O             1.00      1 F:z             9
                        (      91.410 eV)
   230     230       --         3.359 au  O             1.00      1 F:xyz           9
                        (      91.410 eV)
   231     231       --         3.359 au  O             1.00      1 F:z2x           9
                        (      91.410 eV)
   232     232       --         3.359 au  O             1.00      1 F:z2y           9
                        (      91.410 eV)
   233     233       --         3.359 au  O             1.00      1 F:x             9
                        (      91.410 eV)
   234     234       --         3.359 au  O             1.00      1 F:y             9
                        (      91.410 eV)
   235     235      2.000     -18.941 au  O             1.00      1 S              10
                        (    -515.403 eV)
   236     236      2.000      -0.876 au  O             1.00      2 S              10
                        (     -23.838 eV)
   237     237       --         0.791 au  O             1.00      3 S              10
                        (      21.524 eV)
   238     238       --        13.422 au  O             1.00      4 S              10
                        (     365.226 eV)
   239     239       --       121.561 au  O             1.00      5 S              10
                        (    3307.838 eV)
   240     240      1.333      -0.331 au  O             1.00      1 P:x            10
                        (      -9.020 eV)
   241     241       --         0.347 au  O             1.00      2 P:x            10
                        (       9.437 eV)
   242     242       --         3.820 au  O             1.00      3 P:x            10
                        (     103.939 eV)
   243     243      1.333      -0.331 au  O             1.00      1 P:y            10
                        (      -9.020 eV)
   244     244       --         0.347 au  O             1.00      2 P:y            10
                        (       9.437 eV)
   245     245       --         3.820 au  O             1.00      3 P:y            10
                        (     103.939 eV)
   246     246      1.333      -0.331 au  O             1.00      1 P:z            10
                        (      -9.020 eV)
   247     247       --         0.347 au  O             1.00      2 P:z            10
                        (       9.437 eV)
   248     248       --         3.820 au  O             1.00      3 P:z            10
                        (     103.939 eV)
   249     249       --         1.071 au  O             1.00      1 D:z2           10
                        (      29.134 eV)
   250     250       --         1.071 au  O             1.00      1 D:x2-y2        10
                        (      29.134 eV)
   251     251       --         1.071 au  O             1.00      1 D:xy           10
                        (      29.134 eV)
   252     252       --         1.071 au  O             1.00      1 D:xz           10
                        (      29.134 eV)
   253     253       --         1.071 au  O             1.00      1 D:yz           10
                        (      29.134 eV)
   254     254       --         3.359 au  O             1.00      1 F:z3           10
                        (      91.410 eV)
   255     255       --         3.359 au  O             1.00      1 F:z            10
                        (      91.410 eV)
   256     256       --         3.359 au  O             1.00      1 F:xyz          10
                        (      91.410 eV)
   257     257       --         3.359 au  O             1.00      1 F:z2x          10
                        (      91.410 eV)
   258     258       --         3.359 au  O             1.00      1 F:z2y          10
                        (      91.410 eV)
   259     259       --         3.359 au  O             1.00      1 F:x            10
                        (      91.410 eV)
   260     260       --         3.359 au  O             1.00      1 F:y            10
                        (      91.410 eV)
   261     261      2.000     -18.941 au  O             1.00      1 S              11
                        (    -515.403 eV)
   262     262      2.000      -0.876 au  O             1.00      2 S              11
                        (     -23.838 eV)
   263     263       --         0.791 au  O             1.00      3 S              11
                        (      21.524 eV)
   264     264       --        13.422 au  O             1.00      4 S              11
                        (     365.226 eV)
   265     265       --       121.561 au  O             1.00      5 S              11
                        (    3307.838 eV)
   266     266      1.333      -0.331 au  O             1.00      1 P:x            11
                        (      -9.020 eV)
   267     267       --         0.347 au  O             1.00      2 P:x            11
                        (       9.437 eV)
   268     268       --         3.820 au  O             1.00      3 P:x            11
                        (     103.939 eV)
   269     269      1.333      -0.331 au  O             1.00      1 P:y            11
                        (      -9.020 eV)
   270     270       --         0.347 au  O             1.00      2 P:y            11
                        (       9.437 eV)
   271     271       --         3.820 au  O             1.00      3 P:y            11
                        (     103.939 eV)
   272     272      1.333      -0.331 au  O             1.00      1 P:z            11
                        (      -9.020 eV)
   273     273       --         0.347 au  O             1.00      2 P:z            11
                        (       9.437 eV)
   274     274       --         3.820 au  O             1.00      3 P:z            11
                        (     103.939 eV)
   275     275       --         1.071 au  O             1.00      1 D:z2           11
                        (      29.134 eV)
   276     276       --         1.071 au  O             1.00      1 D:x2-y2        11
                        (      29.134 eV)
   277     277       --         1.071 au  O             1.00      1 D:xy           11
                        (      29.134 eV)
   278     278       --         1.071 au  O             1.00      1 D:xz           11
                        (      29.134 eV)
   279     279       --         1.071 au  O             1.00      1 D:yz           11
                        (      29.134 eV)
   280     280       --         3.359 au  O             1.00      1 F:z3           11
                        (      91.410 eV)
   281     281       --         3.359 au  O             1.00      1 F:z            11
                        (      91.410 eV)
   282     282       --         3.359 au  O             1.00      1 F:xyz          11
                        (      91.410 eV)
   283     283       --         3.359 au  O             1.00      1 F:z2x          11
                        (      91.410 eV)
   284     284       --         3.359 au  O             1.00      1 F:z2y          11
                        (      91.410 eV)
   285     285       --         3.359 au  O             1.00      1 F:x            11
                        (      91.410 eV)
   286     286       --         3.359 au  O             1.00      1 F:y            11
                        (      91.410 eV)
   287     287      2.000     -18.941 au  O             1.00      1 S              12
                        (    -515.403 eV)
   288     288      2.000      -0.876 au  O             1.00      2 S              12
                        (     -23.838 eV)
   289     289       --         0.791 au  O             1.00      3 S              12
                        (      21.524 eV)
   290     290       --        13.422 au  O             1.00      4 S              12
                        (     365.226 eV)
   291     291       --       121.561 au  O             1.00      5 S              12
                        (    3307.838 eV)
   292     292      1.333      -0.331 au  O             1.00      1 P:x            12
                        (      -9.020 eV)
   293     293       --         0.347 au  O             1.00      2 P:x            12
                        (       9.437 eV)
   294     294       --         3.820 au  O             1.00      3 P:x            12
                        (     103.939 eV)
   295     295      1.333      -0.331 au  O             1.00      1 P:y            12
                        (      -9.020 eV)
   296     296       --         0.347 au  O             1.00      2 P:y            12
                        (       9.437 eV)
   297     297       --         3.820 au  O             1.00      3 P:y            12
                        (     103.939 eV)
   298     298      1.333      -0.331 au  O             1.00      1 P:z            12
                        (      -9.020 eV)
   299     299       --         0.347 au  O             1.00      2 P:z            12
                        (       9.437 eV)
   300     300       --         3.820 au  O             1.00      3 P:z            12
                        (     103.939 eV)
   301     301       --         1.071 au  O             1.00      1 D:z2           12
                        (      29.134 eV)
   302     302       --         1.071 au  O             1.00      1 D:x2-y2        12
                        (      29.134 eV)
   303     303       --         1.071 au  O             1.00      1 D:xy           12
                        (      29.134 eV)
   304     304       --         1.071 au  O             1.00      1 D:xz           12
                        (      29.134 eV)
   305     305       --         1.071 au  O             1.00      1 D:yz           12
                        (      29.134 eV)
   306     306       --         3.359 au  O             1.00      1 F:z3           12
                        (      91.410 eV)
   307     307       --         3.359 au  O             1.00      1 F:z            12
                        (      91.410 eV)
   308     308       --         3.359 au  O             1.00      1 F:xyz          12
                        (      91.410 eV)
   309     309       --         3.359 au  O             1.00      1 F:z2x          12
                        (      91.410 eV)
   310     310       --         3.359 au  O             1.00      1 F:z2y          12
                        (      91.410 eV)
   311     311       --         3.359 au  O             1.00      1 F:x            12
                        (      91.410 eV)
   312     312       --         3.359 au  O             1.00      1 F:y            12
                        (      91.410 eV)
   313     313      1.000      -0.240 au  H             1.00      1 S              13
                        (      -6.532 eV)
   314     314       --         0.088 au  H             1.00      2 S              13
                        (       2.394 eV)
   315     315       --         1.502 au  H             1.00      3 S              13
                        (      40.869 eV)
   316     316       --         0.406 au  H             1.00      1 P:x            13
                        (      11.051 eV)
   317     317       --         0.406 au  H             1.00      1 P:y            13
                        (      11.051 eV)
   318     318       --         0.406 au  H             1.00      1 P:z            13
                        (      11.051 eV)
   319     319       --         2.569 au  H             1.00      1 D:z2           13
                        (      69.917 eV)
   320     320       --         2.569 au  H             1.00      1 D:x2-y2        13
                        (      69.917 eV)
   321     321       --         2.569 au  H             1.00      1 D:xy           13
                        (      69.917 eV)
   322     322       --         2.569 au  H             1.00      1 D:xz           13
                        (      69.917 eV)
   323     323       --         2.569 au  H             1.00      1 D:yz           13
                        (      69.917 eV)
   324     324      1.000      -0.240 au  H             1.00      1 S              14
                        (      -6.532 eV)
   325     325       --         0.088 au  H             1.00      2 S              14
                        (       2.394 eV)
   326     326       --         1.502 au  H             1.00      3 S              14
                        (      40.869 eV)
   327     327       --         0.406 au  H             1.00      1 P:x            14
                        (      11.051 eV)
   328     328       --         0.406 au  H             1.00      1 P:y            14
                        (      11.051 eV)
   329     329       --         0.406 au  H             1.00      1 P:z            14
                        (      11.051 eV)
   330     330       --         2.569 au  H             1.00      1 D:z2           14
                        (      69.917 eV)
   331     331       --         2.569 au  H             1.00      1 D:x2-y2        14
                        (      69.917 eV)
   332     332       --         2.569 au  H             1.00      1 D:xy           14
                        (      69.917 eV)
   333     333       --         2.569 au  H             1.00      1 D:xz           14
                        (      69.917 eV)
   334     334       --         2.569 au  H             1.00      1 D:yz           14
                        (      69.917 eV)
   335     335      1.000      -0.240 au  H             1.00      1 S              15
                        (      -6.532 eV)
   336     336       --         0.088 au  H             1.00      2 S              15
                        (       2.394 eV)
   337     337       --         1.502 au  H             1.00      3 S              15
                        (      40.869 eV)
   338     338       --         0.406 au  H             1.00      1 P:x            15
                        (      11.051 eV)
   339     339       --         0.406 au  H             1.00      1 P:y            15
                        (      11.051 eV)
   340     340       --         0.406 au  H             1.00      1 P:z            15
                        (      11.051 eV)
   341     341       --         2.569 au  H             1.00      1 D:z2           15
                        (      69.917 eV)
   342     342       --         2.569 au  H             1.00      1 D:x2-y2        15
                        (      69.917 eV)
   343     343       --         2.569 au  H             1.00      1 D:xy           15
                        (      69.917 eV)
   344     344       --         2.569 au  H             1.00      1 D:xz           15
                        (      69.917 eV)
   345     345       --         2.569 au  H             1.00      1 D:yz           15
                        (      69.917 eV)
   346     346      1.000      -0.240 au  H             1.00      1 S              16
                        (      -6.532 eV)
   347     347       --         0.088 au  H             1.00      2 S              16
                        (       2.394 eV)
   348     348       --         1.502 au  H             1.00      3 S              16
                        (      40.869 eV)
   349     349       --         0.406 au  H             1.00      1 P:x            16
                        (      11.051 eV)
   350     350       --         0.406 au  H             1.00      1 P:y            16
                        (      11.051 eV)
   351     351       --         0.406 au  H             1.00      1 P:z            16
                        (      11.051 eV)
   352     352       --         2.569 au  H             1.00      1 D:z2           16
                        (      69.917 eV)
   353     353       --         2.569 au  H             1.00      1 D:x2-y2        16
                        (      69.917 eV)
   354     354       --         2.569 au  H             1.00      1 D:xy           16
                        (      69.917 eV)
   355     355       --         2.569 au  H             1.00      1 D:xz           16
                        (      69.917 eV)
   356     356       --         2.569 au  H             1.00      1 D:yz           16
                        (      69.917 eV)
   357     357      1.000      -0.240 au  H             1.00      1 S              17
                        (      -6.532 eV)
   358     358       --         0.088 au  H             1.00      2 S              17
                        (       2.394 eV)
   359     359       --         1.502 au  H             1.00      3 S              17
                        (      40.869 eV)
   360     360       --         0.406 au  H             1.00      1 P:x            17
                        (      11.051 eV)
   361     361       --         0.406 au  H             1.00      1 P:y            17
                        (      11.051 eV)
   362     362       --         0.406 au  H             1.00      1 P:z            17
                        (      11.051 eV)
   363     363       --         2.569 au  H             1.00      1 D:z2           17
                        (      69.917 eV)
   364     364       --         2.569 au  H             1.00      1 D:x2-y2        17
                        (      69.917 eV)
   365     365       --         2.569 au  H             1.00      1 D:xy           17
                        (      69.917 eV)
   366     366       --         2.569 au  H             1.00      1 D:xz           17
                        (      69.917 eV)
   367     367       --         2.569 au  H             1.00      1 D:yz           17
                        (      69.917 eV)
   368     368      1.000      -0.240 au  H             1.00      1 S              18
                        (      -6.532 eV)
   369     369       --         0.088 au  H             1.00      2 S              18
                        (       2.394 eV)
   370     370       --         1.502 au  H             1.00      3 S              18
                        (      40.869 eV)
   371     371       --         0.406 au  H             1.00      1 P:x            18
                        (      11.051 eV)
   372     372       --         0.406 au  H             1.00      1 P:y            18
                        (      11.051 eV)
   373     373       --         0.406 au  H             1.00      1 P:z            18
                        (      11.051 eV)
   374     374       --         2.569 au  H             1.00      1 D:z2           18
                        (      69.917 eV)
   375     375       --         2.569 au  H             1.00      1 D:x2-y2        18
                        (      69.917 eV)
   376     376       --         2.569 au  H             1.00      1 D:xy           18
                        (      69.917 eV)
   377     377       --         2.569 au  H             1.00      1 D:xz           18
                        (      69.917 eV)
   378     378       --         2.569 au  H             1.00      1 D:yz           18
                        (      69.917 eV)



 ================================
 (Slater-type)  F U N C T I O N S  ***  (Basis and Fit)  ***
 ================================
  

 Atom Type    1  (C)
 ==============

 Valence Basis Sets:  10
 -----------------------
   1 S    7.680000
   1 S    5.000000
   2 S    1.280000
   2 S    2.100000
   2 S    4.600000
   2 P    0.820000
   2 P    1.480000
   2 P    2.940000
   3 D    2.200000
   4 F    3.300000

 Atom Type    2  (O)
 ==============

 Valence Basis Sets:  10
 -----------------------
   1 S    9.800000
   1 S    6.800000
   2 S    7.580000
   2 S    2.880000
   2 S    1.720000
   2 P    4.080000
   2 P    2.080000
   2 P    1.120000
   3 D    2.000000
   4 F    3.000000

 Atom Type    3  (H)
 ==============

 Valence Basis Sets:   5
 -----------------------
   1 S    0.690000
   1 S    0.920000
   1 S    1.580000
   2 P    1.250000
   3 D    2.500000


 BAS: List of all Elementary Cartesian Basis Functions
 =====================================================

 The numbering in the list below (to the right of the function characteristics) is referred
 to in print-outs of MO eigenvectors and Mulliken populations in the BAS representation
 (as contrasted to the SFO representation).

 Notes:
 1. The functions are characterized by a polynomial prefactor (powers of x,y,z and r) and
    an exponential decay factor alpha.
 2. Since the basis sets are specific for an atom TYPE, the individual functions occur on
    all atoms of that type.
 3. The word 'Core' in the left margin signals that it is a Core Function (CF) : not a
    degree of freedom in the valence set, but only used to ensure orthogonalization of
    the other valence basis functions on the frozen Core Orbitals.


 (power of) X  Y  Z  R     Alpha  on Atom
            ==========     =====     ==========

 C                                    1    2    3    4    5    6    7
                                  ---------------------------------------------------------------------------
            0  0  0  0     7.680      1   31   61   91  121  151  181
            0  0  0  0     5.000      2   32   62   92  122  152  182
            0  0  0  1     1.280      3   33   63   93  123  153  183
            0  0  0  1     2.100      4   34   64   94  124  154  184
            0  0  0  1     4.600      5   35   65   95  125  155  185
            1  0  0  0     0.820      6   36   66   96  126  156  186
            0  1  0  0     0.820      7   37   67   97  127  157  187
            0  0  1  0     0.820      8   38   68   98  128  158  188
            1  0  0  0     1.480      9   39   69   99  129  159  189
            0  1  0  0     1.480     10   40   70  100  130  160  190
            0  0  1  0     1.480     11   41   71  101  131  161  191
            1  0  0  0     2.940     12   42   72  102  132  162  192
            0  1  0  0     2.940     13   43   73  103  133  163  193
            0  0  1  0     2.940     14   44   74  104  134  164  194
            2  0  0  0     2.200     15   45   75  105  135  165  195
            1  1  0  0     2.200     16   46   76  106  136  166  196
            1  0  1  0     2.200     17   47   77  107  137  167  197
            0  2  0  0     2.200     18   48   78  108  138  168  198
            0  1  1  0     2.200     19   49   79  109  139  169  199
            0  0  2  0     2.200     20   50   80  110  140  170  200
            3  0  0  0     3.300     21   51   81  111  141  171  201
            2  1  0  0     3.300     22   52   82  112  142  172  202
            2  0  1  0     3.300     23   53   83  113  143  173  203
            1  2  0  0     3.300     24   54   84  114  144  174  204
            1  1  1  0     3.300     25   55   85  115  145  175  205
            1  0  2  0     3.300     26   56   86  116  146  176  206
            0  3  0  0     3.300     27   57   87  117  147  177  207
            0  2  1  0     3.300     28   58   88  118  148  178  208
            0  1  2  0     3.300     29   59   89  119  149  179  209
            0  0  3  0     3.300     30   60   90  120  150  180  210

 O                                    8    9   10   11   12
                                  ---------------------------------------------------------------------------
            0  0  0  0     9.800    211  241  271  301  331
            0  0  0  0     6.800    212  242  272  302  332
            0  0  0  1     7.580    213  243  273  303  333
            0  0  0  1     2.880    214  244  274  304  334
            0  0  0  1     1.720    215  245  275  305  335
            1  0  0  0     4.080    216  246  276  306  336
            0  1  0  0     4.080    217  247  277  307  337
            0  0  1  0     4.080    218  248  278  308  338
            1  0  0  0     2.080    219  249  279  309  339
            0  1  0  0     2.080    220  250  280  310  340
            0  0  1  0     2.080    221  251  281  311  341
            1  0  0  0     1.120    222  252  282  312  342
            0  1  0  0     1.120    223  253  283  313  343
            0  0  1  0     1.120    224  254  284  314  344
            2  0  0  0     2.000    225  255  285  315  345
            1  1  0  0     2.000    226  256  286  316  346
            1  0  1  0     2.000    227  257  287  317  347
            0  2  0  0     2.000    228  258  288  318  348
            0  1  1  0     2.000    229  259  289  319  349
            0  0  2  0     2.000    230  260  290  320  350
            3  0  0  0     3.000    231  261  291  321  351
            2  1  0  0     3.000    232  262  292  322  352
            2  0  1  0     3.000    233  263  293  323  353
            1  2  0  0     3.000    234  264  294  324  354
            1  1  1  0     3.000    235  265  295  325  355
            1  0  2  0     3.000    236  266  296  326  356
            0  3  0  0     3.000    237  267  297  327  357
            0  2  1  0     3.000    238  268  298  328  358
            0  1  2  0     3.000    239  269  299  329  359
            0  0  3  0     3.000    240  270  300  330  360

 H                                   13   14   15   16   17   18
                                  ---------------------------------------------------------------------------
            0  0  0  0     0.690    361  373  385  397  409  421
            0  0  0  0     0.920    362  374  386  398  410  422
            0  0  0  0     1.580    363  375  387  399  411  423
            1  0  0  0     1.250    364  376  388  400  412  424
            0  1  0  0     1.250    365  377  389  401  413  425
            0  0  1  0     1.250    366  378  390  402  414  426
            2  0  0  0     2.500    367  379  391  403  415  427
            1  1  0  0     2.500    368  380  392  404  416  428
            1  0  1  0     2.500    369  381  393  405  417  429
            0  2  0  0     2.500    370  382  394  406  418  430
            0  1  1  0     2.500    371  383  395  407  419  431
            0  0  2  0     2.500    372  384  396  408  420  432

 Total number of charge fitting functions (nprimf)      1308
 Total number of Cartesian basis functions (naos)        432
 Total number of Cartesian core functions  (ncos)          0

 ***************************************************************************************************



                                              ***********************
                                              *  T E C H N I C A L  *
                                              ***********************
  



 =============================================================
 P A R A L L E L I Z A T I O N  and  V E C T O R I Z A T I O N
 =============================================================
  
 Nr of parallel processes:                                1
 Maximum vector length in NumInt loops:                 128



 =====================
 S C F   U P D A T E S
 =====================
  
 Max. nr. of cycles:                               200
 Convergence criterion:                              0.0000010000
   secondary criterion:                              0.0010000000

 Mix parameter (when DIIS does not apply):           0.2000000000
 Mixed ADIIS+SDIIS will be used                  
    Max number of expansion vectors:                10
    Pure ADIIS when Max([F,P]) is above              0.1000000000
    Pure SDIIS when Max([F,P]) is below              0.0010000000
 Automatic ElectronSmearing (in case of problematic SCF convergence) disabled



 =================
 P R E C I S I O N  ***  (General: NumInt, NeglectFunctionTails, ...)  ***
 =================
  

 NumInt:           Target precision:                 4.0000000000
 -------           Initial precision:                4.0000000000
                   Min. precision (optimization):    4.0000000000

 Neglect Functions:          Basis functions:        0.1000000000E-05
 ------------------          Fit functions:          0.1000000000E-05



 ===========================
 L I N E A R   S C A L I N G
 ===========================
  

 Cut-off radii density fit:                        0.1000000000E-07
 Overlap cut-off criterion AO matrix elements:     0.1000000000E-05
 Cut-offs for Coulomb potential and fitted density:0.1000000000E-07
 Cut-off criterion for Coulomb multipole terms:    0.1000000000E-07
 Progressive Convergence parameter:                 0.000000000    
 ***************************************************************************************************



                                            ***************************
                                            *  C O M P U T A T I O N  *
                                            ***************************
  

 Number of elements of the density matrix on this node (used, total):     93528     93528



 ===========================================
 Numerical Integration : Fuzzy Cells (Becke)
 ===========================================
  
 Becke grid quality: NORMAL         
  
 Lebedev angular grid order:             min:  11 max:  23
 Nr. of radial points:                   min:  46 max:  52

 Total nr. of points:     118330
 Nr. of blocks:              925
 Block length:               128
 Nr. of dummy points:         70


 Test of Precision of the Numerical Integration Grid
 ===================================================

 Integral of the Total Core Density:                   0.00000000000000



 ========================
 Density Fitting (zlmFit)
 ========================
  
 ZlmFit Fit Quality: NORMAL         
  
 Max L-expansion:                        min:   6 max:   7
 Nr. of radial interpolation points:     min:  39 max:  54



 =====
 S C F  ***  ScaSCF  ***
 =====
  
 Initial density matrix is calculated as sum of fragments

 CYCLE    1
 SCF Error: norm([F,P])=      8.393980184358, max([F,P])=      1.505488148309
 orbitals (Q,E):
 ---------------
 A :35...54          ( 2.00    -0.5166)  ( 2.00    -0.4961)  ( 2.00    -0.4794)  ( 2.00    -0.4767)
                     ( 2.00    -0.4699)  ( 2.00    -0.4390)  ( 2.00    -0.4175)  ( 2.00    -0.3933)
                     ( 2.00    -0.3904)  ( 2.00    -0.3206)  ( 0.00    -0.2419)  ( 0.00    -0.1805)
                     ( 0.00    -0.1283)  ( 0.00    -0.0812)  ( 0.00    -0.0543)  ( 0.00    -0.0476)
                     ( 0.00    -0.0414)  ( 0.00    -0.0176)  ( 0.00    -0.0070)  ( 0.00    -0.0038)

 CYCLE    2
   MIX coefficients:  0.8000  0.2000
 SCF Error: norm([F,P])=      1.586059816780, max([F,P])=      0.200924315834
 orbitals (Q,E):
 ---------------
 A :35...45          ( 2.00    -0.4722)  ( 2.00    -0.4523)  ( 2.00    -0.4514)  ( 2.00    -0.4362)
                     ( 2.00    -0.4172)  ( 2.00    -0.3977)  ( 2.00    -0.3534)  ( 2.00    -0.3396)
                     ( 2.00    -0.3085)  ( 2.00    -0.2883)  ( 0.00    -0.2301)

 CYCLE    3
  SDIIS (wt  0.000): -0.3963  1.3963
 A-DIIS (wt  1.000):  0.0000  1.0000
  DIIS coefficients:  0.0000  1.0000
 SCF Error: norm([F,P])=      0.645832334022, max([F,P])=      0.093417767868
 orbitals (Q,E):
 ---------------
 A :35...45          ( 2.00    -0.3222)  ( 2.00    -0.3180)  ( 2.00    -0.3103)  ( 2.00    -0.2969)
                     ( 2.00    -0.2908)  ( 2.00    -0.2748)  ( 2.00    -0.2079)  ( 2.00    -0.1951)
                     ( 2.00    -0.1803)  ( 2.00    -0.1631)  ( 0.00    -0.1412)

 CYCLE    4
  SDIIS (wt  0.000):  0.0670  0.5487  0.3842
 A-DIIS (wt  1.000): -0.0000  0.7091  0.2909
  DIIS coefficients: -0.0000  0.7091  0.2909
 SCF Error: norm([F,P])=      1.136992509958, max([F,P])=      0.180802295460
 orbitals (Q,E):
 ---------------
 A :35...45          ( 2.00    -0.3653)  ( 2.00    -0.3607)  ( 2.00    -0.3524)  ( 2.00    -0.3358)
                     ( 2.00    -0.3333)  ( 2.00    -0.3081)  ( 2.00    -0.2642)  ( 2.00    -0.2509)
                     ( 2.00    -0.2120)  ( 2.00    -0.2027)  ( 0.00    -0.1541)

 CYCLE    5
  SDIIS (wt  0.494):  0.0521  0.3416  0.2389  0.3674
 A-DIIS (wt  0.506):  0.0000  0.1455  0.0000  0.8545
  DIIS coefficients:  0.0257  0.2423  0.1179  0.6140
 SCF Error: norm([F,P])=      0.352614203083, max([F,P])=      0.051131007949
 orbitals (Q,E):
 ---------------
 A :35...45          ( 2.00    -0.3993)  ( 2.00    -0.3777)  ( 2.00    -0.3736)  ( 2.00    -0.3687)
                     ( 2.00    -0.3431)  ( 2.00    -0.3382)  ( 2.00    -0.2758)  ( 2.00    -0.2488)
                     ( 2.00    -0.2377)  ( 2.00    -0.2285)  ( 0.00    -0.1739)

 CYCLE    6
  SDIIS (wt  0.000): -0.0114  0.2128  0.0318  0.5134  0.2534
[...]
                                    1.91%     1 S              -6.532  1.00    15 H
                                    1.58%     1 P:x            -5.239  0.67     7 C
                                    1.52%     1 S              -6.532  1.00    18 H
                                    1.44%     1 P:y            -5.239  0.67     7 C
                                   -1.37%     2 P:y             4.589  0.00     5 C
                                   -1.29%     3 S              10.158  0.00     1 C
                                    1.27%     1 P:y            -9.020  1.33    10 O
                                    1.24%     1 P:z            -9.020  1.33    10 O
                                    1.23%     1 P:z            -5.239  0.67     7 C
                                    1.23%     2 S               2.394  0.00    14 H
                                   -1.05%     2 P:y             4.589  0.00     3 C
                                   -1.04%     2 S             -13.620  2.00     4 C
                                   -1.03%     3 S              10.158  0.00     4 C
       0.234  0.00    50 A         22.01%     1 S              -6.532  1.00    16 H
                                   14.59%     2 S               2.394  0.00    16 H
                                   14.45%     1 P:y            -5.239  0.67     5 C
                                   13.89%     1 P:z            -5.239  0.67     4 C
                                    6.06%     1 P:x            -5.239  0.67     6 C
                                    5.11%     1 P:z            -5.239  0.67     5 C
                                    4.85%     2 S               2.394  0.00    18 H
                                    4.63%     1 P:y            -5.239  0.67     4 C
                                   -4.25%     2 P:x             4.589  0.00     7 C
                                   -3.90%     2 P:z             4.589  0.00     4 C
                                    3.90%     1 P:z            -9.020  1.33    10 O
                                   -3.88%     2 P:x             4.589  0.00     6 C
                                    3.18%     1 P:y            -5.239  0.67     6 C
                                   -2.97%     2 P:y             4.589  0.00     5 C
                                    2.88%     1 P:y            -9.020  1.33    10 O
                                    2.76%     1 P:z            -5.239  0.67     6 C
                                   -2.47%     2 P:z             4.589  0.00     6 C
                                    2.31%     1 P:z            -9.020  1.33    11 O
                                   -1.99%     2 S               2.394  0.00    17 H
                                    1.74%     1 P:x            -5.239  0.67     7 C
                                    1.68%     2 P:y             4.589  0.00     4 C
                                    1.63%     1 P:y            -9.020  1.33    11 O
                                    1.51%     1 P:y            -9.020  1.33     9 O
                                    1.50%     1 P:x            -5.239  0.67     4 C
                                   -1.27%     3 S              40.869  0.00    16 H
                                    1.25%     1 S              -6.532  1.00    13 H
                                    1.24%     2 S             -13.620  2.00     5 C
                                    1.23%     2 P:y             4.589  0.00     6 C
                                    1.23%     2 S               2.394  0.00    13 H
                                   -1.16%     2 P:x             4.589  0.00     3 C
                                    1.05%     2 S               2.394  0.00    15 H
       0.572  0.00    51 A         17.21%     1 S              -6.532  1.00    15 H
                                  -13.98%     2 P:x             4.589  0.00     1 C
                                   10.86%     1 S              -6.532  1.00    14 H
                                   10.27%     1 S              -6.532  1.00    18 H
                                    9.64%     2 S               2.394  0.00    15 H
                                    8.02%     2 S               2.394  0.00    18 H
                                    6.57%     2 P:z             4.589  0.00     2 C
                                    6.06%     1 P:x            -5.239  0.67     5 C
                                    4.89%     1 P:x            -5.239  0.67     1 C
                                    4.86%     1 P:z            -5.239  0.67     3 C
                                    4.73%     2 P:x             4.589  0.00     7 C
                                    4.36%     2 P:x             4.589  0.00     6 C
                                    4.13%     2 P:y             4.589  0.00     6 C
                                   -3.84%     3 S              10.158  0.00     7 C
                                    3.79%     2 S               2.394  0.00    13 H
                                   -2.66%     3 S              21.524  0.00    12 O
                                    2.56%     1 P:x            -5.239  0.67     6 C
                                    2.47%     1 P:y            -5.239  0.67     1 C
                                    2.38%     2 P:y             4.589  0.00     1 C
                                   -2.37%     2 S               2.394  0.00    16 H
                                    2.30%     2 P:y             4.589  0.00     2 C
                                    2.25%     1 P:z            -5.239  0.67     2 C
                                    2.18%     1 S              -6.532  1.00    13 H
                                    2.11%     2 S             -23.838  2.00    12 O
                                   -2.06%     3 S              10.158  0.00     1 C
                                   -2.05%     1 S              -6.532  1.00    16 H
                                    1.93%     2 P:z             4.589  0.00     1 C
                                    1.85%     1 P:y            -5.239  0.67     6 C
                                    1.74%     2 S             -13.620  2.00     7 C
                                    1.50%     1 P:x            -5.239  0.67     7 C
                                    1.47%     2 P:x             4.589  0.00     2 C
                                    1.39%     1 P:y            -5.239  0.67     2 C
                                   -1.36%     1 S              -6.532  1.00    17 H
                                   -1.31%     2 S               2.394  0.00    14 H
                                   -1.30%     2 P:z             4.589  0.00     7 C
                                    1.26%     2 P:y             4.589  0.00     4 C
                                    1.21%     2 S             -13.620  2.00     1 C
                                    1.11%     2 P:z             4.589  0.00     3 C
                                    1.06%     2 P:x             4.589  0.00     4 C
                                   -1.03%     3 S              10.158  0.00     2 C



 =======================================================================
 Electrostatic potential at the Nuclei due to electrons and other nuclei
 =======================================================================
  
         Atom                  Potential
         ----                  ---------
     1)   C                  14.74695965
     2)   C                  14.65475184
     3)   O                  22.37089789
     4)   C                  14.61025317
     5)   O                  22.27736090
     6)   C                  14.63732299
     7)   O                  22.39158895
     8)   C                  14.68838278
     9)   C                  14.68708045
    10)   C                  14.77579707
    11)   O                  22.40577536
    12)   O                  22.24594790
    13)   H                   1.05781892
    14)   H                   1.05808771
    15)   H                   1.07008809
    16)   H                   1.08841313
    17)   H                   1.08533049
    18)   H                   1.09777530
 Mulliken charges used for AMS results%charges...


    =====================
     CALCULATION RESULTS
    =====================

Energy (hartree)            -4.10483348


--------------
Atomic charges
--------------
  Index   Atom    Charge
      1      C    0.5952
      2      C    0.3854
      3      O   -0.4541
      4      C    0.5936
      5      O   -0.4669
      6      C    0.6227
      7      O   -0.5289
      8      C    0.1546
      9      C    0.3925
     10      C    0.5842
     11      O   -0.4996
     12      O   -0.3749
     13      H   -0.1614
     14      H   -0.1483
     15      H   -0.1821
     16      H   -0.1479
     17      H   -0.1688
     18      H   -0.1954


Dipole moment vector    (Debye):     0.28938491    1.66185867   -3.13633405
              magnitude (Debye):     3.56119490


-----------------------
Molecular orbitals info
-----------------------
n orbitals:              378
n spin:                    1

Note: only printing virtual orbitals with
      energy smaller than HOMO + 100. eV

HOMO (eV):              -6.1003
LUMO (eV):              -4.7323
HOMO-LUMO gap (eV):      1.3680

   Index   Energy (eV)    Occupation
     239       93.7401         0.000       
     238       92.9915         0.000       
     237       92.8216         0.000       
     236       92.4670         0.000       
     235       92.1701         0.000       
     234       91.9021         0.000       
     233       91.3438         0.000       
     232       91.2796         0.000       
     231       90.8936         0.000       
     230       90.6129         0.000       
     229       90.2840         0.000       
     228       89.9559         0.000       
     227       89.4841         0.000       
     226       88.8423         0.000       
     225       87.7448         0.000       
     224       87.1545         0.000       
     223       84.5370         0.000       
     222       83.4792         0.000       
     221       82.9513         0.000       
     220       82.4094         0.000       
     219       82.1063         0.000       
     218       80.9856         0.000       
     217       80.7020         0.000       
     216       79.8070         0.000       
     215       79.6894         0.000       
     214       79.3109         0.000       
     213       77.9802         0.000       
     212       77.7988         0.000       
     211       77.2577         0.000       
     210       77.0376         0.000       
     209       76.5654         0.000       
     208       76.0179         0.000       
     207       75.6694         0.000       
     206       75.2728         0.000       
     205       75.1388         0.000       
     204       73.4963         0.000       
     203       73.3560         0.000       
     202       71.4815         0.000       
     201       70.3287         0.000       
     200       69.0050         0.000       
     199       68.1147         0.000       
     198       67.7350         0.000       
     197       66.8286         0.000       
     196       66.3511         0.000       
     195       65.9059         0.000       
     194       65.3097         0.000       
     193       64.7853         0.000       
     192       64.2277         0.000       
     191       63.6834         0.000       
     190       63.1622         0.000       
     189       62.7914         0.000       
     188       62.1989         0.000       
     187       61.7463         0.000       
     186       61.2971         0.000       
     185       60.8936         0.000       
     184       59.7708         0.000       
     183       59.3895         0.000       
     182       59.0447         0.000       
     181       58.7529         0.000       
     180       56.7561         0.000       
     179       56.0764         0.000       
     178       55.2293         0.000       
     177       54.5071         0.000       
     176       54.3962         0.000       
     175       53.2104         0.000       
     174       52.4471         0.000       
     173       52.2891         0.000       
     172       51.5244         0.000       
     171       51.1145         0.000       
     170       50.4295         0.000       
     169       50.0496         0.000       
     168       49.4991         0.000       
     167       48.5897         0.000       
     166       48.1384         0.000       
     165       47.7999         0.000       
     164       47.5377         0.000       
     163       46.4828         0.000       
     162       46.0283         0.000       
     161       45.5334         0.000       
     160       44.8941         0.000       
     159       44.7612         0.000       
     158       44.1463         0.000       
     157       43.8261         0.000       
     156       43.0676         0.000       
     155       42.9388         0.000       
     154       42.4008         0.000       
     153       41.4206         0.000       
     152       40.2321         0.000       
     151       39.6668         0.000       
     150       39.3722         0.000       
     149       38.9133         0.000       
     148       38.0644         0.000       
     147       37.8229         0.000       
     146       37.1720         0.000       
     145       36.6535         0.000       
     144       36.3748         0.000       
     143       35.0914         0.000       
     142       34.9963         0.000       
     141       34.1022         0.000       
     140       33.7896         0.000       
     139       33.4702         0.000       
     138       32.8032         0.000       
     137       32.6274         0.000       
     136       32.2291         0.000       
     135       31.4292         0.000       
     134       31.3076         0.000       
     133       30.8146         0.000       
     132       30.3138         0.000       
     131       30.0297         0.000       
     130       29.4799         0.000       
     129       28.9341         0.000       
     128       28.6095         0.000       
     127       28.5193         0.000       
     126       28.0777         0.000       
     125       27.8108         0.000       
     124       27.1620         0.000       
     123       26.7850         0.000       
     122       26.4283         0.000       
     121       26.0804         0.000       
     120       25.5798         0.000       
     119       24.6296         0.000       
     118       24.2949         0.000       
     117       23.9739         0.000       
     116       23.3434         0.000       
     115       23.2970         0.000       
     114       22.6736         0.000       
     113       22.4598         0.000       
     112       22.0803         0.000       
     111       21.7025         0.000       
     110       20.9755         0.000       
     109       20.7169         0.000       
     108       19.9918         0.000       
     107       19.5613         0.000       
     106       19.2377         0.000       
     105       18.1185         0.000       
     104       17.9081         0.000       
     103       17.3381         0.000       
     102       16.5898         0.000       
     101       16.3287         0.000       
     100       16.0728         0.000       
      99       15.1549         0.000       
      98       14.7766         0.000       
      97       14.5519         0.000       
      96       14.0822         0.000       
      95       13.5895         0.000       
      94       13.4334         0.000       
      93       13.0392         0.000       
      92       12.2121         0.000       
      91       12.1565         0.000       
      90       11.8353         0.000       
      89       11.1895         0.000       
      88       11.1204         0.000       
      87       10.8430         0.000       
      86       10.4117         0.000       
      85       10.1163         0.000       
      84        9.7895         0.000       
      83        9.7096         0.000       
      82        9.4524         0.000       
      81        8.8869         0.000       
      80        8.7820         0.000       
      79        8.6266         0.000       
      78        8.3959         0.000       
      77        8.1979         0.000       
      76        7.6937         0.000       
      75        7.5059         0.000       
      74        7.0087         0.000       
      73        6.8040         0.000       
      72        6.3759         0.000       
      71        6.0609         0.000       
      70        5.5415         0.000       
      69        5.1558         0.000       
      68        5.0376         0.000       
      67        4.7908         0.000       
      66        4.3703         0.000       
      65        4.2588         0.000       
      64        4.1813         0.000       
      63        3.9270         0.000       
      62        3.5632         0.000       
      61        3.5269         0.000       
      60        3.3670         0.000       
      59        3.0075         0.000       
      58        2.1722         0.000       
      57        1.9467         0.000       
      56        1.7688         0.000       
      55        1.5414         0.000       
      54        1.2448         0.000       
      53        1.0097         0.000       
      52        0.8593         0.000       
      51        0.5720         0.000       
      50        0.2340         0.000       
      49       -0.1619         0.000       
      48       -0.5974         0.000       
      47       -1.8319         0.000       
      46       -2.0602         0.000       
      45       -4.7323         0.000 < LUMO
      44       -6.1003         2.000 < HOMO
      43       -6.3266         2.000       
      42       -7.0386         2.000       
      41       -7.4881         2.000       
      40       -8.9623         2.000       
      39       -9.5661         2.000       
      38       -9.8179         2.000       
      37       -9.9116         2.000       
      36      -10.4687         2.000       
      35      -10.5129         2.000       
      34      -10.7910         2.000       
      33      -11.0632         2.000       
      32      -11.1894         2.000       
      31      -11.4074         2.000       
      30      -11.4889         2.000       
      29      -11.7657         2.000       
      28      -11.8386         2.000       
      27      -12.2818         2.000       
      26      -12.9025         2.000       
      25      -14.0127         2.000       
      24      -14.8049         2.000       
      23      -15.7622         2.000       
      22      -17.2028         2.000       
      21      -17.3658         2.000       
      20      -18.8120         2.000       
      19      -19.7124         2.000       
      18      -20.9574         2.000       
      17      -26.1001         2.000       
      16      -26.5104         2.000       
      15      -27.1613         2.000       
      14      -28.3693         2.000       
      13      -31.1519         2.000       
      12     -270.2961         2.000       
      11     -271.0770         2.000       
      10     -272.7686         2.000       
       9     -272.8253         2.000       
       8     -273.7266         2.000       
       7     -274.1628         2.000       
       6     -274.9116         2.000       
       5     -511.3690         2.000       
       4     -511.7304         2.000       
       3     -512.3407         2.000       
       2     -514.8426         2.000       
       1     -515.6567         2.000       

AMS application finished. Exiting.
NORMAL TERMINATION
     Total cpu time:      62.94
  Total system time:       0.32
 Total elapsed time:      63.66
NORMAL TERMINATION
