
 *******************************************************************************
 *                                                                             *
 *  --------------------------------                                           *
 *   Amsterdam Modeling Suite (AMS)              2026.103                      *
 *  --------------------------------                                           *
 *                                               r260501 2026-05-01 873454b5   *
 *                                                                             *
 *                                                                             *
 *                              =================                              *
 *                              |               |                              *
 *                              |     A M S     |                              *
 *                              |               |                              *
 *                              =================                              *
 *                                                                             *
 *                                                                             *
 *   Online information and documentation:  https://www.scm.com/support/       *
 *   E-mail:  support@scm.com   info@scm.com                                   *
 *                                                                             *
 *   Scientific publications using AMS results must be properly referenced     *
 *   See the User Manuals (or the web site) for recommended citations          *
 *   The terms and conditions of the End User License Agreement apply to       *
 *   the use of AMS, https://www.scm.com/license-terms/                        *
 *                                                                             *
 **********************  x86_64_linux_intel / intelmpi  ************************
 
 Licensed to: Jong-June Jeon / University of Seoul 2026-06-02 13:44:15
 SCM User ID: u30731
  
 AMS 2026.103  RunTime: Jun03-2026 12:45:34  ShM Nodes: 1  Procs: 1

 AMS jobname: c3_eda
 AMS jobid  : 2062806558

 Start   directory: /gpfs/home1/yeseo1ee/projects/eda-asm-prediction/ADF_800/adf_outputs/batch_000/dipolar_001367/
 Results directory: /gpfs/home1/yeseo1ee/projects/eda-asm-prediction/ADF_800/adf_outputs/batch_000/dipolar_001367/c3_eda.results/
 Scratch directory: /tmp/amstmp_c3_eda_kid0.2062806558/

 RNG seed: -642978455 -1147702202 1577133382 2113954792 -1823522661 989438946 1005708156 1138517631



                      ************************************************************************
                      *  ADF 2026.103  RunTime: Jun03-2026 12:45:34  ShM Nodes: 1  Procs: 1  *
                      ************************************************************************
  

       ****************************
       * SINGLE POINT CALCULATION *
       ****************************

--------
Geometry
--------
Formula: C14H10ClF3O6
Atoms
  Index Symbol   x (angstrom)   y (angstrom)   z (angstrom)
      1      C    -0.32784000     3.98310000    -1.60543000 adf.f=fA
      2      C    -0.59396000     2.87001000    -0.64613000 adf.f=fA
      3      O    -1.62243000     2.70247000    -0.02424000 adf.f=fA
      4      C     0.52141000     1.87781000    -0.46007000 adf.f=fA
      5      O     1.77768000     2.16429000    -0.83451000 adf.f=fA
      6      C     2.63236000     1.21145000    -0.20666000 adf.f=fA
      7      O     3.80984000     1.15794000    -0.46823000 adf.f=fA
      8      C     1.74370000     0.50003000     0.66362000 adf.f=fA
      9      C     2.02378000    -0.37543000     1.79963000 adf.f=fA
     10      C     3.33329000    -1.10960000     1.77185000 adf.f=fA
     11      O     1.20244000    -0.48411000     2.70284000 adf.f=fA
     12      O     0.52356000     1.10919000     0.61427000 adf.f=fA
     13      H    -0.01762000     3.57997000    -2.58301000 adf.f=fA
     14      H     0.50949000     4.59376000    -1.22923000 adf.f=fA
     15      H    -1.22879000     4.59891000    -1.71343000 adf.f=fA
     16      H     4.17089000    -0.40495000     1.65201000 adf.f=fA
     17      H     3.35583000    -1.78826000     0.90368000 adf.f=fA
     18      H     3.44902000    -1.68619000     2.69834000 adf.f=fA
     19      C     1.10152000    -0.54207000    -1.77772000 adf.f=fB
     20      C     0.34574000    -1.87486000    -1.61251000 adf.f=fB
     21      O    -0.76992000    -1.64133000    -2.49710000 adf.f=fB
     22      C    -1.19910000    -0.41861000    -1.84772000 adf.f=fB
     23      C    -1.35687000    -0.92824000    -0.40015000 adf.f=fB
     24      C    -2.39971000    -0.53556000     0.58976000 adf.f=fB
     25      F    -3.09582000    -1.61173000     1.01474000 adf.f=fB
     26      F    -3.28496000     0.32142000     0.05539000 adf.f=fB
     27      F    -1.89230000     0.04138000     1.69451000 adf.f=fB
     28      C    -0.39185000    -1.85018000    -0.27159000 adf.f=fB
     29     Cl     0.00940000    -2.87355000     1.03584000 adf.f=fB
     30      C     0.11399000     0.40246000    -1.98393000 adf.f=fB
     31      H     2.15892000    -0.48330000    -2.02677000 adf.f=fB
     32      H     0.90219000    -2.78555000    -1.85115000 adf.f=fB
     33      H    -2.09177000     0.00845000    -2.31181000 adf.f=fB
     34      H     0.19066000     1.22613000    -2.69361000 adf.f=fB

Total System Charge              0.00000


----------------
ADF Engine Input
----------------
 
   Basis
     Type TZ2P
     Core None
   End
   XC
     GGA BLYP
     Dispersion GRIMME3 BJDAMP
   End
   Symmetry NOSYM
   NumericalQuality Normal
   Unrestricted No
   SCF
     Iterations 200
     Converge 1.0e-6
   End
   fragments
     fA c1_fragA_ts.results/adf.rkf
     fB c2_fragB_ts.results/adf.rkf
   end
   etsnocv
     enocv 0.05
     ekmin 0.5
   end
   print etslowdin
   Save TAPE21
 

 Title: *** (NO TITLE) ***

 *** adf ***



 ===========================
 A T T A C H E D   F I L E S
 ===========================
  



 ===============================
 M O D E L   P A R A M E T E R S
 ===============================
  
 DENSITY FUNCTIONAL POTENTIAL (scf)
    LDA:                               Exchange only                           == Not Default ==
    Gradient Corrections:              Becke88 LYP                             == Not Default ==

 SPIN  (restricted / unrestr.)
    Molecule:                          Restricted                               
    Fragments:                         Restricted                               

 OTHER ASPECTS
    Relativistic Corrections:          scalar (ZORA,MAPA)                       

    Nuclear Charge Density Model:      Point Charge Nuclei                      
    Core Treatment:                    Frozen Orbital(s)                        

    Hyperfine or Zeeman Interaction:   ---                                      

 Settings for Grimme D3 dispersion correction

      damping                        BJ
      s6                          1.000
      s8                          2.700
      a1                          0.430
      a2                          4.236

 Other (technical) parameters

      alpha                      14.000
      version                         4
 


 Fragment File(s)
 ----------------
 fA:
         file : c1_fragA_ts.results/adf.rkf
         jobid: 1999404254
         title: *** adf ***
 fB:
         file : c2_fragB_ts.results/adf.rkf
         jobid: 1762968774
         title: *** adf ***



 ===============
 G E O M E T R Y  ***  3D  Molecule  ***
 ===============
  

 ATOMS
 =====                            X Y Z                    CHARGE
                                (Angstrom)             Nucl     +Core       At.Mass
                       --------------------------    ----------------       -------
    1  C              -0.3278    3.9831   -1.6054      6.00      6.00       12.0000
    2  C              -0.5940    2.8700   -0.6461      6.00      6.00       12.0000
    3  O              -1.6224    2.7025   -0.0242      8.00      8.00       15.9949
    4  C               0.5214    1.8778   -0.4601      6.00      6.00       12.0000
    5  O               1.7777    2.1643   -0.8345      8.00      8.00       15.9949
    6  C               2.6324    1.2114   -0.2067      6.00      6.00       12.0000
    7  O               3.8098    1.1579   -0.4682      8.00      8.00       15.9949
    8  C               1.7437    0.5000    0.6636      6.00      6.00       12.0000
    9  C               2.0238   -0.3754    1.7996      6.00      6.00       12.0000
   10  C               3.3333   -1.1096    1.7718      6.00      6.00       12.0000
   11  O               1.2024   -0.4841    2.7028      8.00      8.00       15.9949
   12  O               0.5236    1.1092    0.6143      8.00      8.00       15.9949
   13  H              -0.0176    3.5800   -2.5830      1.00      1.00        1.0078
   14  H               0.5095    4.5938   -1.2292      1.00      1.00        1.0078
   15  H              -1.2288    4.5989   -1.7134      1.00      1.00        1.0078
   16  H               4.1709   -0.4049    1.6520      1.00      1.00        1.0078
   17  H               3.3558   -1.7883    0.9037      1.00      1.00        1.0078
   18  H               3.4490   -1.6862    2.6983      1.00      1.00        1.0078
   19  C               1.1015   -0.5421   -1.7777      6.00      6.00       12.0000
   20  C               0.3457   -1.8749   -1.6125      6.00      6.00       12.0000
   21  O              -0.7699   -1.6413   -2.4971      8.00      8.00       15.9949
   22  C              -1.1991   -0.4186   -1.8477      6.00      6.00       12.0000
   23  C              -1.3569   -0.9282   -0.4002      6.00      6.00       12.0000
   24  C              -2.3997   -0.5356    0.5898      6.00      6.00       12.0000
   25  F              -3.0958   -1.6117    1.0147      9.00      9.00       18.9984
   26  F              -3.2850    0.3214    0.0554      9.00      9.00       18.9984
   27  F              -1.8923    0.0414    1.6945      9.00      9.00       18.9984
   28  C              -0.3918   -1.8502   -0.2716      6.00      6.00       12.0000
   29  Cl              0.0094   -2.8735    1.0358     17.00     17.00       34.9689
   30  C               0.1140    0.4025   -1.9839      6.00      6.00       12.0000
   31  H               2.1589   -0.4833   -2.0268      1.00      1.00        1.0078
   32  H               0.9022   -2.7856   -1.8512      1.00      1.00        1.0078
   33  H              -2.0918    0.0084   -2.3118      1.00      1.00        1.0078
   34  H               0.1907    1.2261   -2.6936      1.00      1.00        1.0078


 FRAGMENTS
 =========                                     Atoms in this Fragment     Cart. coord.s (Angstrom)
                                               -------------------------------------------------------
    1  fA                                                1  C           -0.3278    3.9831   -1.6054
                                                         2  C           -0.5940    2.8700   -0.6461
                                                         4  C            0.5214    1.8778   -0.4601
                                                         6  C            2.6324    1.2114   -0.2067
                                                         8  C            1.7437    0.5000    0.6636
                                                         9  C            2.0238   -0.3754    1.7996
                                                        10  C            3.3333   -1.1096    1.7718
                                                         3  O           -1.6224    2.7025   -0.0242
                                                         5  O            1.7777    2.1643   -0.8345
                                                         7  O            3.8098    1.1579   -0.4682
                                                        11  O            1.2024   -0.4841    2.7028
                                                        12  O            0.5236    1.1092    0.6143
                                                        13  H           -0.0176    3.5800   -2.5830
                                                        14  H            0.5095    4.5938   -1.2292
                                                        15  H           -1.2288    4.5989   -1.7134
                                                        16  H            4.1709   -0.4049    1.6520
                                                        17  H            3.3558   -1.7883    0.9037
                                                        18  H            3.4490   -1.6862    2.6983
    2  fB                                               19  C            1.1015   -0.5421   -1.7777
                                                        20  C            0.3457   -1.8749   -1.6125
                                                        22  C           -1.1991   -0.4186   -1.8477
                                                        23  C           -1.3569   -0.9282   -0.4002
                                                        24  C           -2.3997   -0.5356    0.5898
                                                        28  C           -0.3918   -1.8502   -0.2716
                                                        30  C            0.1140    0.4025   -1.9839
                                                        21  O           -0.7699   -1.6413   -2.4971
                                                        25  F           -3.0958   -1.6117    1.0147
                                                        26  F           -3.2850    0.3214    0.0554
                                                        27  F           -1.8923    0.0414    1.6945
                                                        29  Cl           0.0094   -2.8735    1.0358
                                                        31  H            2.1589   -0.4833   -2.0268
                                                        32  H            0.9022   -2.7856   -1.8512
                                                        33  H           -2.0918    0.0084   -2.3118
                                                        34  H            0.1907    1.2261   -2.6936



 =====================================
 S Y M M E T R Y ,   E L E C T R O N S
 =====================================
  
 Symmetry: NOSYM

 Irreducible Representations, including subspecies
 -------------------------------------------------
 A


 Configuration of Valence Electrons
 ==================================
 ( determined in the SCF procedure )

 Total:   186

 Net Charge: 0 (Nuclei minus Electrons)

 Aufbau principle for MO occupations will be applied through SCF cycle no.     100
 Thereafter, the program will assign electrons to MOs that are spatially
 similar to the occupied MOs in a "reference" cycle ("KeepOrbitals").
 The reference cycle is always the PREVIOUS cycle: it will evolve with
 the SCF procedure.
 ***************************************************************************************************



                                      ****************************************
                                      *  B U I L D : (Fragments, Functions)  *
                                      ****************************************
  

 The individual fragments are copies of the corresponding 'Master' fragments defined on the fragment files.
 However, they may have been rotated (and translated) with respect to the Master. The local coordinate axes
 of each fragment (which define for instance the spatial orientation in the current molecule of a fragment
 P:x orbital) are not necessarily those of the molecule.
 The local frame (if different from the molecular one) is printed to enable an interpretation of the expan-
 sion of an MO in Fragment Orbitals.



                                              ************************
                                              *  Fragment Type : fA  *
                                              ************************
  

 Fragment no.    1   (in the list of all fragments)
 -----------------
 The local coordinate frame is identical to the molecular frame.

 Check Atomic Coordinates:

                  Master (on file)          After Computed Tranformation               As specified on Input
           ----------------------------     ----------------------------     ---------------------------------
     1)    -0.32784   3.98310  -1.60543     -0.32784   3.98310  -1.60543       1  -0.32784   3.98310  -1.60543
     2)    -0.59396   2.87001  -0.64613     -0.59396   2.87001  -0.64613       2  -0.59396   2.87001  -0.64613
     3)     0.52141   1.87781  -0.46007      0.52141   1.87781  -0.46007       4   0.52141   1.87781  -0.46007
     4)     2.63236   1.21145  -0.20666      2.63236   1.21145  -0.20666       6   2.63236   1.21145  -0.20666
     5)     1.74370   0.50003   0.66362      1.74370   0.50003   0.66362       8   1.74370   0.50003   0.66362
     6)     2.02378  -0.37543   1.79963      2.02378  -0.37543   1.79963       9   2.02378  -0.37543   1.79963
     7)     3.33329  -1.10960   1.77185      3.33329  -1.10960   1.77185      10   3.33329  -1.10960   1.77185
     8)    -1.62243   2.70247  -0.02424     -1.62243   2.70247  -0.02424       3  -1.62243   2.70247  -0.02424
     9)     1.77768   2.16429  -0.83451      1.77768   2.16429  -0.83451       5   1.77768   2.16429  -0.83451
    10)     3.80984   1.15794  -0.46823      3.80984   1.15794  -0.46823       7   3.80984   1.15794  -0.46823
    11)     1.20244  -0.48411   2.70284      1.20244  -0.48411   2.70284      11   1.20244  -0.48411   2.70284
    12)     0.52356   1.10919   0.61427      0.52356   1.10919   0.61427      12   0.52356   1.10919   0.61427
    13)    -0.01762   3.57997  -2.58301     -0.01762   3.57997  -2.58301      13  -0.01762   3.57997  -2.58301
    14)     0.50949   4.59376  -1.22923      0.50949   4.59376  -1.22923      14   0.50949   4.59376  -1.22923
    15)    -1.22879   4.59891  -1.71343     -1.22879   4.59891  -1.71343      15  -1.22879   4.59891  -1.71343
    16)     4.17089  -0.40495   1.65201      4.17089  -0.40495   1.65201      16   4.17089  -0.40495   1.65201
    17)     3.35583  -1.78826   0.90368      3.35583  -1.78826   0.90368      17   3.35583  -1.78826   0.90368
    18)     3.44902  -1.68619   2.69834      3.44902  -1.68619   2.69834      18   3.44902  -1.68619   2.69834



                                              ************************
                                              *  Fragment Type : fB  *
                                              ************************
  

 Fragment no.    2   (in the list of all fragments)
 -----------------
 The local coordinate frame is identical to the molecular frame.

 Check Atomic Coordinates:

                  Master (on file)          After Computed Tranformation               As specified on Input
           ----------------------------     ----------------------------     ---------------------------------
     1)     1.10152  -0.54207  -1.77772      1.10152  -0.54207  -1.77772      19   1.10152  -0.54207  -1.77772
     2)     0.34574  -1.87486  -1.61251      0.34574  -1.87486  -1.61251      20   0.34574  -1.87486  -1.61251
     3)    -1.19910  -0.41861  -1.84772     -1.19910  -0.41861  -1.84772      22  -1.19910  -0.41861  -1.84772
     4)    -1.35687  -0.92824  -0.40015     -1.35687  -0.92824  -0.40015      23  -1.35687  -0.92824  -0.40015
     5)    -2.39971  -0.53556   0.58976     -2.39971  -0.53556   0.58976      24  -2.39971  -0.53556   0.58976
     6)    -0.39185  -1.85018  -0.27159     -0.39185  -1.85018  -0.27159      28  -0.39185  -1.85018  -0.27159
     7)     0.11399   0.40246  -1.98393      0.11399   0.40246  -1.98393      30   0.11399   0.40246  -1.98393
     8)    -0.76992  -1.64133  -2.49710     -0.76992  -1.64133  -2.49710      21  -0.76992  -1.64133  -2.49710
     9)    -3.09582  -1.61173   1.01474     -3.09582  -1.61173   1.01474      25  -3.09582  -1.61173   1.01474
    10)    -3.28496   0.32142   0.05539     -3.28496   0.32142   0.05539      26  -3.28496   0.32142   0.05539
    11)    -1.89230   0.04138   1.69451     -1.89230   0.04138   1.69451      27  -1.89230   0.04138   1.69451
    12)     0.00940  -2.87355   1.03584      0.00940  -2.87355   1.03584      29   0.00940  -2.87355   1.03584
    13)     2.15892  -0.48330  -2.02677      2.15892  -0.48330  -2.02677      31   2.15892  -0.48330  -2.02677
    14)     0.90219  -2.78555  -1.85115      0.90219  -2.78555  -1.85115      32   0.90219  -2.78555  -1.85115
    15)    -2.09177   0.00845  -2.31181     -2.09177   0.00845  -2.31181      33  -2.09177   0.00845  -2.31181
    16)     0.19066   1.22613  -2.69361      0.19066   1.22613  -2.69361      34   0.19066   1.22613  -2.69361



 =======
 S F O s  ***  (Symmetrized Fragment Orbitals)  ***
 =======
  
 SFOs are linear combinations of (valence) Fragment Orbitals (FOs), such that the SFOs transform as the
 irreducible representations of the (molecular) symmetry group. Each SFO is therefore characterized by
 an irrep of the molecule and by a few (or only one) generating FOs.
 The SFOs constitute a symmetry-adapted basis for the Fock matrix. The MO eigenvector coefficients in
 this basis provide a direct interpretation of the MOs in terms of Frontier Orbital Theory.

 The SFOs are combined with auxiliary Core Functions (CFs) to ensure orthogonalization on the (frozen)
 Core Orbitals (COs). The Core-orthogonalized SFOs (CSFOs) constitute the true Fock basis.

 The FOs, and hence also the (C)SFOs are combinations of the elementary basis functions (BAS). The basis
 functions that participate in the description of the SFOs depend on the irrep. The indices of the
 involved functions are printed below for each irrep.
 (The complete list of primitive basis functions is printed in another section)

 Total nr. of (C)SFOs (summation over all irreps) :   742

 NOTE: a (C)SFO that is defined as a combination of more than one FO is usually NOT normalized.



                                       === A ===
 Nr. of SFOs :  742
 Cartesian basis functions that participate in this irrep (total number =   848) :
      1     2     3     4     5     6     9    12     7    10
     13     8    11    14    15    16    17    18    19    20
     21    22    23    24    25    26    27    28    29    30
     31    32    33    34    35    36    39    42    37    40
     43    38    41    44    45    46    47    48    49    50
     51    52    53    54    55    56    57    58    59    60
     61    62    63    64    65    66    69    72    67    70
     73    68    71    74    75    76    77    78    79    80
     81    82    83    84    85    86    87    88    89    90
     91    92    93    94    95    96    99   102    97   100
    103    98   101   104   105   106   107   108   109   110
    111   112   113   114   115   116   117   118   119   120
    121   122   123   124   125   126   129   132   127   130
    133   128   131   134   135   136   137   138   139   140
    141   142   143   144   145   146   147   148   149   150
    151   152   153   154   155   156   159   162   157   160
    163   158   161   164   165   166   167   168   169   170
    171   172   173   174   175   176   177   178   179   180
    181   182   183   184   185   186   189   192   187   190
    193   188   191   194   195   196   197   198   199   200
    201   202   203   204   205   206   207   208   209   210
    211   212   213   214   215   216   219   222   217   220
    223   218   221   224   225   226   227   228   229   230
    231   232   233   234   235   236   237   238   239   240
    241   242   243   244   245   246   249   252   247   250
    253   248   251   254   255   256   257   258   259   260
    261   262   263   264   265   266   267   268   269   270
    271   272   273   274   275   276   279   282   277   280
    283   278   281   284   285   286   287   288   289   290
    291   292   293   294   295   296   297   298   299   300
    301   302   303   304   305   306   309   312   307   310
    313   308   311   314   315   316   317   318   319   320
    321   322   323   324   325   326   327   328   329   330
    331   332   333   334   335   336   339   342   337   340
    343   338   341   344   345   346   347   348   349   350
    351   352   353   354   355   356   357   358   359   360
    361   362   363   364   365   366   367   368   369   370
    371   372   373   374   375   376   377   378   379   380
    381   382   383   384   385   386   387   388   389   390
    391   392   393   394   395   396   397   398   399   400
    401   402   403   404   405   406   407   408   409   410
    411   412   413   414   415   416   417   418   419   420
    421   422   423   424   425   426   427   428   429   430
    431   432   433   434   435   436   437   438   441   444
    439   442   445   440   443   446   447   448   449   450
    451   452   453   454   455   456   457   458   459   460
    461   462   463   464   465   466   467   468   471   474
    469   472   475   470   473   476   477   478   479   480
    481   482   483   484   485   486   487   488   489   490
    491   492   493   494   495   496   497   498   501   504
    499   502   505   500   503   506   507   508   509   510
    511   512   513   514   515   516   517   518   519   520
    521   522   523   524   525   526   527   528   531   534
    529   532   535   530   533   536   537   538   539   540
    541   542   543   544   545   546   547   548   549   550
    551   552   553   554   555   556   557   558   561   564
    559   562   565   560   563   566   567   568   569   570
    571   572   573   574   575   576   577   578   579   580
    581   582   583   584   585   586   587   588   591   594
    589   592   595   590   593   596   597   598   599   600
    601   602   603   604   605   606   607   608   609   610
    611   612   613   614   615   616   617   618   621   624
    619   622   625   620   623   626   627   628   629   630
    631   632   633   634   635   636   637   638   639   640
    641   642   643   644   645   646   647   648   651   654
    649   652   655   650   653   656   657   658   659   660
    661   662   663   664   665   666   667   668   669   670
    671   672   673   674   675   676   677   678   681   684
    679   682   685   680   683   686   687   688   689   690
    691   692   693   694   695   696   697   698   699   700
    701   702   703   704   705   706   707   708   711   714
    709   712   715   710   713   716   717   718   719   720
    721   722   723   724   725   726   727   728   729   730
    731   732   733   734   735   736   737   738   741   744
    739   742   745   740   743   746   747   748   749   750
    751   752   753   754   755   756   757   758   759   760
    761   762   763   764   765   766   773   774   775   767
    770   776   779   782   768   771   777   780   783   769
    772   778   781   784   785   786   787   788   789   790
    791   792   793   794   795   796   797   798   799   800
    801   802   803   804   805   806   807   808   809   810
    811   812   813   814   815   816   817   818   819   820
    821   822   823   824   825   826   827   828   829   830
    831   832   833   834   835   836   837   838   839   840
    841   842   843   844   845   846   847   848

    SFO  (index         Fragment          Generating    Expansion in Fragment Orbitals
  indx  incl.CFs)   Occup   Orb.Energy   FragmentType  Coeff.   Orbital     on Fragment
 --------------------------------------------------------------------------------------
     1       1      2.000     -18.950 au  fA            1.00      1 A               1
                        (    -515.657 eV)
     2       2      2.000     -18.920 au  fA            1.00      2 A               1
                        (    -514.843 eV)
     3       3      2.000     -18.828 au  fA            1.00      3 A               1
                        (    -512.341 eV)
     4       4      2.000     -18.806 au  fA            1.00      4 A               1
                        (    -511.730 eV)
     5       5      2.000     -18.792 au  fA            1.00      5 A               1
                        (    -511.369 eV)
     6       6      2.000     -10.103 au  fA            1.00      6 A               1
                        (    -274.912 eV)
     7       7      2.000     -10.075 au  fA            1.00      7 A               1
                        (    -274.163 eV)
     8       8      2.000     -10.059 au  fA            1.00      8 A               1
                        (    -273.727 eV)
     9       9      2.000     -10.026 au  fA            1.00      9 A               1
                        (    -272.825 eV)
    10      10      2.000     -10.024 au  fA            1.00     10 A               1
                        (    -272.769 eV)
    11      11      2.000      -9.962 au  fA            1.00     11 A               1
                        (    -271.077 eV)
    12      12      2.000      -9.933 au  fA            1.00     12 A               1
                        (    -270.296 eV)
    13      13      2.000      -1.145 au  fA            1.00     13 A               1
                        (     -31.152 eV)
    14      14      2.000      -1.043 au  fA            1.00     14 A               1
                        (     -28.369 eV)
    15      15      2.000      -0.998 au  fA            1.00     15 A               1
                        (     -27.161 eV)
    16      16      2.000      -0.974 au  fA            1.00     16 A               1
                        (     -26.510 eV)
    17      17      2.000      -0.959 au  fA            1.00     17 A               1
                        (     -26.100 eV)
    18      18      2.000      -0.770 au  fA            1.00     18 A               1
                        (     -20.957 eV)
    19      19      2.000      -0.724 au  fA            1.00     19 A               1
                        (     -19.712 eV)
    20      20      2.000      -0.691 au  fA            1.00     20 A               1
                        (     -18.812 eV)
    21      21      2.000      -0.638 au  fA            1.00     21 A               1
                        (     -17.366 eV)
    22      22      2.000      -0.632 au  fA            1.00     22 A               1
                        (     -17.203 eV)
    23      23      2.000      -0.579 au  fA            1.00     23 A               1
                        (     -15.762 eV)
    24      24      2.000      -0.544 au  fA            1.00     24 A               1
                        (     -14.805 eV)
    25      25      2.000      -0.515 au  fA            1.00     25 A               1
                        (     -14.013 eV)
    26      26      2.000      -0.474 au  fA            1.00     26 A               1
                        (     -12.903 eV)
    27      27      2.000      -0.451 au  fA            1.00     27 A               1
                        (     -12.282 eV)
    28      28      2.000      -0.435 au  fA            1.00     28 A               1
                        (     -11.839 eV)
    29      29      2.000      -0.432 au  fA            1.00     29 A               1
                        (     -11.766 eV)
    30      30      2.000      -0.422 au  fA            1.00     30 A               1
                        (     -11.489 eV)
    31      31      2.000      -0.419 au  fA            1.00     31 A               1
                        (     -11.407 eV)
    32      32      2.000      -0.411 au  fA            1.00     32 A               1
                        (     -11.189 eV)
    33      33      2.000      -0.407 au  fA            1.00     33 A               1
                        (     -11.063 eV)
    34      34      2.000      -0.397 au  fA            1.00     34 A               1
                        (     -10.791 eV)
    35      35      2.000      -0.386 au  fA            1.00     35 A               1
                        (     -10.513 eV)
    36      36      2.000      -0.385 au  fA            1.00     36 A               1
                        (     -10.469 eV)
    37      37      2.000      -0.364 au  fA            1.00     37 A               1
                        (      -9.912 eV)
    38      38      2.000      -0.361 au  fA            1.00     38 A               1
                        (      -9.818 eV)
    39      39      2.000      -0.352 au  fA            1.00     39 A               1
                        (      -9.566 eV)
    40      40      2.000      -0.329 au  fA            1.00     40 A               1
                        (      -8.962 eV)
    41      41      2.000      -0.275 au  fA            1.00     41 A               1
                        (      -7.488 eV)
    42      42      2.000      -0.259 au  fA            1.00     42 A               1
                        (      -7.039 eV)
    43      43      2.000      -0.232 au  fA            1.00     43 A               1
                        (      -6.327 eV)
    44      44      2.000      -0.224 au  fA            1.00     44 A               1
                        (      -6.100 eV)
    45      45       --        -0.174 au  fA            1.00     45 A               1
                        (      -4.732 eV)
    46      46       --        -0.076 au  fA            1.00     46 A               1
                        (      -2.060 eV)
    47      47       --        -0.067 au  fA            1.00     47 A               1
                        (      -1.832 eV)
    48      48       --        -0.022 au  fA            1.00     48 A               1
                        (      -0.597 eV)
    49      49       --        -0.006 au  fA            1.00     49 A               1
                        (      -0.162 eV)
    50      50       --         0.009 au  fA            1.00     50 A               1
                        (       0.234 eV)
    51      51       --         0.021 au  fA            1.00     51 A               1
                        (       0.572 eV)
    52      52       --         0.032 au  fA            1.00     52 A               1
                        (       0.859 eV)
    53      53       --         0.037 au  fA            1.00     53 A               1
                        (       1.010 eV)
    54      54       --         0.046 au  fA            1.00     54 A               1
                        (       1.245 eV)
    55      55       --         0.057 au  fA            1.00     55 A               1
                        (       1.541 eV)
    56      56       --         0.065 au  fA            1.00     56 A               1
                        (       1.769 eV)
    57      57       --         0.072 au  fA            1.00     57 A               1
                        (       1.947 eV)
    58      58       --         0.080 au  fA            1.00     58 A               1
                        (       2.172 eV)
    59      59       --         0.111 au  fA            1.00     59 A               1
                        (       3.008 eV)
    60      60       --         0.124 au  fA            1.00     60 A               1
                        (       3.367 eV)
    61      61       --         0.130 au  fA            1.00     61 A               1
                        (       3.527 eV)
    62      62       --         0.131 au  fA            1.00     62 A               1
                        (       3.563 eV)
    63      63       --         0.144 au  fA            1.00     63 A               1
                        (       3.927 eV)
    64      64       --         0.154 au  fA            1.00     64 A               1
                        (       4.181 eV)
    65      65       --         0.157 au  fA            1.00     65 A               1
                        (       4.259 eV)
    66      66       --         0.161 au  fA            1.00     66 A               1
                        (       4.370 eV)
    67      67       --         0.176 au  fA            1.00     67 A               1
                        (       4.791 eV)
    68      68       --         0.185 au  fA            1.00     68 A               1
                        (       5.038 eV)
    69      69       --         0.189 au  fA            1.00     69 A               1
                        (       5.156 eV)
    70      70       --         0.204 au  fA            1.00     70 A               1
                        (       5.542 eV)
    71      71       --         0.223 au  fA            1.00     71 A               1
                        (       6.061 eV)
    72      72       --         0.234 au  fA            1.00     72 A               1
                        (       6.376 eV)
    73      73       --         0.250 au  fA            1.00     73 A               1
                        (       6.804 eV)
    74      74       --         0.258 au  fA            1.00     74 A               1
                        (       7.009 eV)
    75      75       --         0.276 au  fA            1.00     75 A               1
                        (       7.506 eV)
    76      76       --         0.283 au  fA            1.00     76 A               1
                        (       7.694 eV)
    77      77       --         0.301 au  fA            1.00     77 A               1
                        (       8.198 eV)
    78      78       --         0.309 au  fA            1.00     78 A               1
                        (       8.396 eV)
    79      79       --         0.317 au  fA            1.00     79 A               1
                        (       8.627 eV)
    80      80       --         0.323 au  fA            1.00     80 A               1
                        (       8.782 eV)
    81      81       --         0.327 au  fA            1.00     81 A               1
                        (       8.887 eV)
    82      82       --         0.347 au  fA            1.00     82 A               1
                        (       9.452 eV)
    83      83       --         0.357 au  fA            1.00     83 A               1
                        (       9.710 eV)
    84      84       --         0.360 au  fA            1.00     84 A               1
                        (       9.790 eV)
    85      85       --         0.372 au  fA            1.00     85 A               1
                        (      10.116 eV)
    86      86       --         0.383 au  fA            1.00     86 A               1
                        (      10.412 eV)
    87      87       --         0.398 au  fA            1.00     87 A               1
                        (      10.843 eV)
    88      88       --         0.409 au  fA            1.00     88 A               1
                        (      11.120 eV)
    89      89       --         0.411 au  fA            1.00     89 A               1
                        (      11.190 eV)
    90      90       --         0.435 au  fA            1.00     90 A               1
                        (      11.835 eV)
    91      91       --         0.447 au  fA            1.00     91 A               1
                        (      12.157 eV)
    92      92       --         0.449 au  fA            1.00     92 A               1
                        (      12.212 eV)
    93      93       --         0.479 au  fA            1.00     93 A               1
                        (      13.039 eV)
    94      94       --         0.494 au  fA            1.00     94 A               1
                        (      13.433 eV)
    95      95       --         0.499 au  fA            1.00     95 A               1
                        (      13.590 eV)
    96      96       --         0.518 au  fA            1.00     96 A               1
                        (      14.082 eV)
    97      97       --         0.535 au  fA            1.00     97 A               1
                        (      14.552 eV)
    98      98       --         0.543 au  fA            1.00     98 A               1
                        (      14.777 eV)
    99      99       --         0.557 au  fA            1.00     99 A               1
                        (      15.155 eV)
   100     100       --         0.591 au  fA            1.00    100 A               1
                        (      16.073 eV)
   101     101       --         0.600 au  fA            1.00    101 A               1
                        (      16.329 eV)
   102     102       --         0.610 au  fA            1.00    102 A               1
                        (      16.590 eV)
   103     103       --         0.637 au  fA            1.00    103 A               1
                        (      17.338 eV)
   104     104       --         0.658 au  fA            1.00    104 A               1
                        (      17.908 eV)
   105     105       --         0.666 au  fA            1.00    105 A               1
                        (      18.118 eV)
   106     106       --         0.707 au  fA            1.00    106 A               1
                        (      19.238 eV)
   107     107       --         0.719 au  fA            1.00    107 A               1
                        (      19.561 eV)
   108     108       --         0.735 au  fA            1.00    108 A               1
                        (      19.992 eV)
   109     109       --         0.761 au  fA            1.00    109 A               1
                        (      20.717 eV)
   110     110       --         0.771 au  fA            1.00    110 A               1
                        (      20.975 eV)
   111     111       --         0.798 au  fA            1.00    111 A               1
                        (      21.703 eV)
   112     112       --         0.811 au  fA            1.00    112 A               1
                        (      22.080 eV)
   113     113       --         0.825 au  fA            1.00    113 A               1
                        (      22.460 eV)
   114     114       --         0.833 au  fA            1.00    114 A               1
                        (      22.674 eV)
   115     115       --         0.856 au  fA            1.00    115 A               1
                        (      23.297 eV)
   116     116       --         0.858 au  fA            1.00    116 A               1
                        (      23.343 eV)
   117     117       --         0.881 au  fA            1.00    117 A               1
                        (      23.974 eV)
   118     118       --         0.893 au  fA            1.00    118 A               1
                        (      24.295 eV)
   119     119       --         0.905 au  fA            1.00    119 A               1
                        (      24.630 eV)
   120     120       --         0.940 au  fA            1.00    120 A               1
                        (      25.580 eV)
   121     121       --         0.958 au  fA            1.00    121 A               1
                        (      26.080 eV)
   122     122       --         0.971 au  fA            1.00    122 A               1
                        (      26.428 eV)
   123     123       --         0.984 au  fA            1.00    123 A               1
                        (      26.785 eV)
   124     124       --         0.998 au  fA            1.00    124 A               1
                        (      27.162 eV)
   125     125       --         1.022 au  fA            1.00    125 A               1
                        (      27.811 eV)
   126     126       --         1.032 au  fA            1.00    126 A               1
                        (      28.078 eV)
   127     127       --         1.048 au  fA            1.00    127 A               1
                        (      28.519 eV)
   128     128       --         1.051 au  fA            1.00    128 A               1
                        (      28.609 eV)
   129     129       --         1.063 au  fA            1.00    129 A               1
                        (      28.934 eV)
   130     130       --         1.083 au  fA            1.00    130 A               1
                        (      29.480 eV)
   131     131       --         1.104 au  fA            1.00    131 A               1
                        (      30.030 eV)
   132     132       --         1.114 au  fA            1.00    132 A               1
                        (      30.314 eV)
   133     133       --         1.132 au  fA            1.00    133 A               1
                        (      30.815 eV)
   134     134       --         1.151 au  fA            1.00    134 A               1
                        (      31.308 eV)
   135     135       --         1.155 au  fA            1.00    135 A               1
                        (      31.429 eV)
   136     136       --         1.184 au  fA            1.00    136 A               1
                        (      32.229 eV)
   137     137       --         1.199 au  fA            1.00    137 A               1
                        (      32.627 eV)
   138     138       --         1.205 au  fA            1.00    138 A               1
                        (      32.803 eV)
   139     139       --         1.230 au  fA            1.00    139 A               1
                        (      33.470 eV)
   140     140       --         1.242 au  fA            1.00    140 A               1
                        (      33.790 eV)
   141     141       --         1.253 au  fA            1.00    141 A               1
                        (      34.102 eV)
   142     142       --         1.286 au  fA            1.00    142 A               1
                        (      34.996 eV)
   143     143       --         1.290 au  fA            1.00    143 A               1
                        (      35.091 eV)
   144     144       --         1.337 au  fA            1.00    144 A               1
                        (      36.375 eV)
   145     145       --         1.347 au  fA            1.00    145 A               1
                        (      36.654 eV)
   146     146       --         1.366 au  fA            1.00    146 A               1
                        (      37.172 eV)
   147     147       --         1.390 au  fA            1.00    147 A               1
                        (      37.823 eV)
   148     148       --         1.399 au  fA            1.00    148 A               1
                        (      38.064 eV)
   149     149       --         1.430 au  fA            1.00    149 A               1
                        (      38.913 eV)
   150     150       --         1.447 au  fA            1.00    150 A               1
                        (      39.372 eV)
   151     151       --         1.458 au  fA            1.00    151 A               1
                        (      39.667 eV)
   152     152       --         1.479 au  fA            1.00    152 A               1
                        (      40.232 eV)
   153     153       --         1.522 au  fA            1.00    153 A               1
                        (      41.421 eV)
   154     154       --         1.558 au  fA            1.00    154 A               1
                        (      42.401 eV)
   155     155       --         1.578 au  fA            1.00    155 A               1
                        (      42.939 eV)
   156     156       --         1.583 au  fA            1.00    156 A               1
                        (      43.068 eV)
   157     157       --         1.611 au  fA            1.00    157 A               1
                        (      43.826 eV)
   158     158       --         1.622 au  fA            1.00    158 A               1
                        (      44.146 eV)
   159     159       --         1.645 au  fA            1.00    159 A               1
                        (      44.761 eV)
   160     160       --         1.650 au  fA            1.00    160 A               1
                        (      44.894 eV)
   161     161       --         1.673 au  fA            1.00    161 A               1
                        (      45.533 eV)
   162     162       --         1.692 au  fA            1.00    162 A               1
                        (      46.028 eV)
   163     163       --         1.708 au  fA            1.00    163 A               1
                        (      46.483 eV)
   164     164       --         1.747 au  fA            1.00    164 A               1
                        (      47.538 eV)
   165     165       --         1.757 au  fA            1.00    165 A               1
                        (      47.800 eV)
   166     166       --         1.769 au  fA            1.00    166 A               1
                        (      48.138 eV)
   167     167       --         1.786 au  fA            1.00    167 A               1
                        (      48.590 eV)
   168     168       --         1.819 au  fA            1.00    168 A               1
                        (      49.499 eV)
   169     169       --         1.839 au  fA            1.00    169 A               1
                        (      50.050 eV)
   170     170       --         1.853 au  fA            1.00    170 A               1
                        (      50.430 eV)
   171     171       --         1.878 au  fA            1.00    171 A               1
                        (      51.115 eV)
   172     172       --         1.893 au  fA            1.00    172 A               1
                        (      51.524 eV)
   173     173       --         1.922 au  fA            1.00    173 A               1
                        (      52.289 eV)
   174     174       --         1.927 au  fA            1.00    174 A               1
                        (      52.447 eV)
   175     175       --         1.955 au  fA            1.00    175 A               1
                        (      53.210 eV)
   176     176       --         1.999 au  fA            1.00    176 A               1
                        (      54.396 eV)
   177     177       --         2.003 au  fA            1.00    177 A               1
                        (      54.507 eV)
   178     178       --         2.030 au  fA            1.00    178 A               1
                        (      55.229 eV)
   179     179       --         2.061 au  fA            1.00    179 A               1
                        (      56.076 eV)
   180     180       --         2.086 au  fA            1.00    180 A               1
                        (      56.756 eV)
   181     181       --         2.159 au  fA            1.00    181 A               1
                        (      58.753 eV)
   182     182       --         2.170 au  fA            1.00    182 A               1
                        (      59.045 eV)
   183     183       --         2.183 au  fA            1.00    183 A               1
                        (      59.389 eV)
   184     184       --         2.197 au  fA            1.00    184 A               1
                        (      59.771 eV)
   185     185       --         2.238 au  fA            1.00    185 A               1
                        (      60.894 eV)
   186     186       --         2.253 au  fA            1.00    186 A               1
                        (      61.297 eV)
   187     187       --         2.269 au  fA            1.00    187 A               1
                        (      61.746 eV)
   188     188       --         2.286 au  fA            1.00    188 A               1
                        (      62.199 eV)
   189     189       --         2.308 au  fA            1.00    189 A               1
                        (      62.791 eV)
   190     190       --         2.321 au  fA            1.00    190 A               1
                        (      63.162 eV)
   191     191       --         2.340 au  fA            1.00    191 A               1
                        (      63.683 eV)
   192     192       --         2.360 au  fA            1.00    192 A               1
                        (      64.228 eV)
   193     193       --         2.381 au  fA            1.00    193 A               1
                        (      64.785 eV)
   194     194       --         2.400 au  fA            1.00    194 A               1
                        (      65.310 eV)
   195     195       --         2.422 au  fA            1.00    195 A               1
                        (      65.906 eV)
   196     196       --         2.438 au  fA            1.00    196 A               1
                        (      66.351 eV)
   197     197       --         2.456 au  fA            1.00    197 A               1
                        (      66.829 eV)
   198     198       --         2.489 au  fA            1.00    198 A               1
                        (      67.735 eV)
   199     199       --         2.503 au  fA            1.00    199 A               1
                        (      68.115 eV)
   200     200       --         2.536 au  fA            1.00    200 A               1
                        (      69.005 eV)
   201     201       --         2.585 au  fA            1.00    201 A               1
                        (      70.329 eV)
   202     202       --         2.627 au  fA            1.00    202 A               1
                        (      71.481 eV)
   203     203       --         2.696 au  fA            1.00    203 A               1
                        (      73.356 eV)
   204     204       --         2.701 au  fA            1.00    204 A               1
                        (      73.496 eV)
   205     205       --         2.761 au  fA            1.00    205 A               1
                        (      75.139 eV)
   206     206       --         2.766 au  fA            1.00    206 A               1
                        (      75.273 eV)
   207     207       --         2.781 au  fA            1.00    207 A               1
                        (      75.669 eV)
   208     208       --         2.794 au  fA            1.00    208 A               1
                        (      76.018 eV)
   209     209       --         2.814 au  fA            1.00    209 A               1
                        (      76.565 eV)
   210     210       --         2.831 au  fA            1.00    210 A               1
                        (      77.038 eV)
   211     211       --         2.839 au  fA            1.00    211 A               1
                        (      77.258 eV)
   212     212       --         2.859 au  fA            1.00    212 A               1
                        (      77.799 eV)
   213     213       --         2.866 au  fA            1.00    213 A               1
                        (      77.980 eV)
   214     214       --         2.915 au  fA            1.00    214 A               1
                        (      79.311 eV)
   215     215       --         2.929 au  fA            1.00    215 A               1
                        (      79.689 eV)
   216     216       --         2.933 au  fA            1.00    216 A               1
                        (      79.807 eV)
   217     217       --         2.966 au  fA            1.00    217 A               1
                        (      80.702 eV)
   218     218       --         2.976 au  fA            1.00    218 A               1
                        (      80.986 eV)
   219     219       --         3.017 au  fA            1.00    219 A               1
                        (      82.106 eV)
   220     220       --         3.028 au  fA            1.00    220 A               1
                        (      82.409 eV)
   221     221       --         3.048 au  fA            1.00    221 A               1
                        (      82.951 eV)
   222     222       --         3.068 au  fA            1.00    222 A               1
                        (      83.479 eV)
   223     223       --         3.107 au  fA            1.00    223 A               1
                        (      84.537 eV)
   224     224       --         3.203 au  fA            1.00    224 A               1
                        (      87.154 eV)
   225     225       --         3.225 au  fA            1.00    225 A               1
                        (      87.745 eV)
   226     226       --         3.265 au  fA            1.00    226 A               1
                        (      88.842 eV)
   227     227       --         3.288 au  fA            1.00    227 A               1
                        (      89.484 eV)
   228     228       --         3.306 au  fA            1.00    228 A               1
                        (      89.956 eV)
   229     229       --         3.318 au  fA            1.00    229 A               1
                        (      90.284 eV)
   230     230       --         3.330 au  fA            1.00    230 A               1
                        (      90.613 eV)
   231     231       --         3.340 au  fA            1.00    231 A               1
                        (      90.894 eV)
   232     232       --         3.354 au  fA            1.00    232 A               1
                        (      91.280 eV)
   233     233       --         3.357 au  fA            1.00    233 A               1
                        (      91.344 eV)
   234     234       --         3.377 au  fA            1.00    234 A               1
                        (      91.902 eV)
   235     235       --         3.387 au  fA            1.00    235 A               1
                        (      92.170 eV)
   236     236       --         3.398 au  fA            1.00    236 A               1
                        (      92.467 eV)
   237     237       --         3.411 au  fA            1.00    237 A               1
                        (      92.822 eV)
   238     238       --         3.417 au  fA            1.00    238 A               1
                        (      92.991 eV)
   239     239       --         3.445 au  fA            1.00    239 A               1
                        (      93.740 eV)
   240     240       --         3.452 au  fA            1.00    240 A               1
                        (      93.931 eV)
   241     241       --         3.456 au  fA            1.00    241 A               1
                        (      94.039 eV)
   242     242       --         3.461 au  fA            1.00    242 A               1
                        (      94.183 eV)
   243     243       --         3.476 au  fA            1.00    243 A               1
                        (      94.573 eV)
   244     244       --         3.503 au  fA            1.00    244 A               1
                        (      95.320 eV)
   245     245       --         3.510 au  fA            1.00    245 A               1
                        (      95.517 eV)
   246     246       --         3.529 au  fA            1.00    246 A               1
                        (      96.034 eV)
   247     247       --         3.564 au  fA            1.00    247 A               1
                        (      96.969 eV)
   248     248       --         3.591 au  fA            1.00    248 A               1
                        (      97.712 eV)
   249     249       --         3.597 au  fA            1.00    249 A               1
                        (      97.889 eV)
   250     250       --         3.641 au  fA            1.00    250 A               1
                        (      99.071 eV)
   251     251       --         3.682 au  fA            1.00    251 A               1
                        (     100.192 eV)
   252     252       --         3.694 au  fA            1.00    252 A               1
                        (     100.518 eV)
   253     253       --         3.740 au  fA            1.00    253 A               1
                        (     101.765 eV)
   254     254       --         3.756 au  fA            1.00    254 A               1
                        (     102.202 eV)
   255     255       --         3.772 au  fA            1.00    255 A               1
                        (     102.636 eV)
   256     256       --         3.789 au  fA            1.00    256 A               1
                        (     103.096 eV)
   257     257       --         3.826 au  fA            1.00    257 A               1
                        (     104.097 eV)
   258     258       --         3.840 au  fA            1.00    258 A               1
                        (     104.503 eV)
   259     259       --         3.888 au  fA            1.00    259 A               1
                        (     105.801 eV)
   260     260       --         3.899 au  fA            1.00    260 A               1
                        (     106.099 eV)
   261     261       --         3.910 au  fA            1.00    261 A               1
                        (     106.401 eV)
   262     262       --         3.943 au  fA            1.00    262 A               1
                        (     107.285 eV)
   263     263       --         3.974 au  fA            1.00    263 A               1
                        (     108.129 eV)
   264     264       --         3.993 au  fA            1.00    264 A               1
                        (     108.654 eV)
   265     265       --         4.015 au  fA            1.00    265 A               1
                        (     109.252 eV)
   266     266       --         4.040 au  fA            1.00    266 A               1
                        (     109.927 eV)
   267     267       --         4.055 au  fA            1.00    267 A               1
                        (     110.338 eV)
   268     268       --         4.061 au  fA            1.00    268 A               1
                        (     110.515 eV)
   269     269       --         4.111 au  fA            1.00    269 A               1
                        (     111.866 eV)
   270     270       --         4.136 au  fA            1.00    270 A               1
                        (     112.551 eV)
   271     271       --         4.163 au  fA            1.00    271 A               1
                        (     113.293 eV)
   272     272       --         4.197 au  fA            1.00    272 A               1
                        (     114.212 eV)
   273     273       --         4.214 au  fA            1.00    273 A               1
                        (     114.660 eV)
   274     274       --         4.248 au  fA            1.00    274 A               1
                        (     115.591 eV)
   275     275       --         4.277 au  fA            1.00    275 A               1
                        (     116.387 eV)
   276     276       --         4.292 au  fA            1.00    276 A               1
                        (     116.782 eV)
   277     277       --         4.295 au  fA            1.00    277 A               1
                        (     116.874 eV)
   278     278       --         4.329 au  fA            1.00    278 A               1
                        (     117.803 eV)
   279     279       --         4.356 au  fA            1.00    279 A               1
                        (     118.525 eV)
   280     280       --         4.386 au  fA            1.00    280 A               1
                        (     119.352 eV)
   281     281       --         4.418 au  fA            1.00    281 A               1
                        (     120.229 eV)
   282     282       --         4.430 au  fA            1.00    282 A               1
                        (     120.544 eV)
   283     283       --         4.480 au  fA            1.00    283 A               1
                        (     121.910 eV)
   284     284       --         4.489 au  fA            1.00    284 A               1
                        (     122.152 eV)
   285     285       --         4.504 au  fA            1.00    285 A               1
                        (     122.564 eV)
   286     286       --         4.517 au  fA            1.00    286 A               1
                        (     122.918 eV)
   287     287       --         4.559 au  fA            1.00    287 A               1
                        (     124.064 eV)
   288     288       --         4.568 au  fA            1.00    288 A               1
                        (     124.295 eV)
   289     289       --         4.572 au  fA            1.00    289 A               1
                        (     124.415 eV)
   290     290       --         4.623 au  fA            1.00    290 A               1
                        (     125.799 eV)
   291     291       --         4.625 au  fA            1.00    291 A               1
                        (     125.855 eV)
   292     292       --         4.649 au  fA            1.00    292 A               1
                        (     126.501 eV)
   293     293       --         4.709 au  fA            1.00    293 A               1
                        (     128.132 eV)
   294     294       --         4.734 au  fA            1.00    294 A               1
                        (     128.808 eV)
   295     295       --         4.769 au  fA            1.00    295 A               1
                        (     129.778 eV)
   296     296       --         4.787 au  fA            1.00    296 A               1
                        (     130.257 eV)
   297     297       --         4.836 au  fA            1.00    297 A               1
                        (     131.607 eV)
   298     298       --         4.857 au  fA            1.00    298 A               1
                        (     132.162 eV)
   299     299       --         4.899 au  fA            1.00    299 A               1
                        (     133.308 eV)
   300     300       --         4.923 au  fA            1.00    300 A               1
                        (     133.965 eV)
   301     301       --         4.980 au  fA            1.00    301 A               1
                        (     135.510 eV)
   302     302       --         5.033 au  fA            1.00    302 A               1
                        (     136.953 eV)
   303     303       --         5.052 au  fA            1.00    303 A               1
                        (     137.485 eV)
   304     304       --         5.085 au  fA            1.00    304 A               1
                        (     138.363 eV)
   305     305       --         5.128 au  fA            1.00    305 A               1
                        (     139.535 eV)
   306     306       --         5.180 au  fA            1.00    306 A               1
                        (     140.944 eV)
   307     307       --         5.208 au  fA            1.00    307 A               1
                        (     141.716 eV)
   308     308       --         5.339 au  fA            1.00    308 A               1
                        (     145.276 eV)
   309     309       --         5.379 au  fA            1.00    309 A               1
                        (     146.380 eV)
   310     310       --         5.473 au  fA            1.00    310 A               1
                        (     148.924 eV)
   311     311       --         5.490 au  fA            1.00    311 A               1
                        (     149.380 eV)
   312     312       --         5.522 au  fA            1.00    312 A               1
                        (     150.257 eV)
   313     313       --         5.539 au  fA            1.00    313 A               1
                        (     150.731 eV)
   314     314       --         5.557 au  fA            1.00    314 A               1
                        (     151.203 eV)
   315     315       --         5.641 au  fA            1.00    315 A               1
                        (     153.498 eV)
   316     316       --         5.653 au  fA            1.00    316 A               1
                        (     153.819 eV)
   317     317       --         5.789 au  fA            1.00    317 A               1
                        (     157.526 eV)
   318     318       --         5.849 au  fA            1.00    318 A               1
                        (     159.172 eV)
   319     319       --         5.864 au  fA            1.00    319 A               1
                        (     159.577 eV)
   320     320       --         5.946 au  fA            1.00    320 A               1
                        (     161.805 eV)
   321     321       --         5.960 au  fA            1.00    321 A               1
                        (     162.180 eV)
   322     322       --         6.024 au  fA            1.00    322 A               1
                        (     163.920 eV)
   323     323       --         6.090 au  fA            1.00    323 A               1
                        (     165.711 eV)
   324     324       --         6.112 au  fA            1.00    324 A               1
                        (     166.311 eV)
   325     325       --         6.119 au  fA            1.00    325 A               1
                        (     166.520 eV)
   326     326       --         6.173 au  fA            1.00    326 A               1
                        (     167.977 eV)
   327     327       --         6.197 au  fA            1.00    327 A               1
                        (     168.619 eV)
   328     328       --         6.312 au  fA            1.00    328 A               1
                        (     171.754 eV)
   329     329       --         6.319 au  fA            1.00    329 A               1
                        (     171.952 eV)
   330     330       --         6.384 au  fA            1.00    330 A               1
                        (     173.725 eV)
   331     331       --         6.419 au  fA            1.00    331 A               1
                        (     174.658 eV)
   332     332       --         6.426 au  fA            1.00    332 A               1
                        (     174.866 eV)
   333     333       --         6.506 au  fA            1.00    333 A               1
                        (     177.030 eV)
   334     334       --         6.517 au  fA            1.00    334 A               1
                        (     177.349 eV)
   335     335       --         6.525 au  fA            1.00    335 A               1
                        (     177.567 eV)
   336     336       --         6.536 au  fA            1.00    336 A               1
                        (     177.864 eV)
   337     337       --         6.623 au  fA            1.00    337 A               1
                        (     180.231 eV)
   338     338       --         6.690 au  fA            1.00    338 A               1
                        (     182.039 eV)
   339     339       --         6.696 au  fA            1.00    339 A               1
                        (     182.219 eV)
   340     340       --         6.843 au  fA            1.00    340 A               1
                        (     186.210 eV)
   341     341       --         6.891 au  fA            1.00    341 A               1
                        (     187.505 eV)
   342     342       --         6.956 au  fA            1.00    342 A               1
                        (     189.271 eV)
   343     343       --         7.093 au  fA            1.00    343 A               1
                        (     193.009 eV)
   344     344       --         7.193 au  fA            1.00    344 A               1
                        (     195.724 eV)
   345     345       --         7.213 au  fA            1.00    345 A               1
                        (     196.275 eV)
   346     346       --         7.285 au  fA            1.00    346 A               1
                        (     198.231 eV)
   347     347       --         7.308 au  fA            1.00    347 A               1
                        (     198.850 eV)
   348     348       --         7.319 au  fA            1.00    348 A               1
                        (     199.165 eV)
   349     349       --         7.397 au  fA            1.00    349 A               1
                        (     201.286 eV)
   350     350       --         7.411 au  fA            1.00    350 A               1
                        (     201.671 eV)
   351     351       --         7.505 au  fA            1.00    351 A               1
                        (     204.208 eV)
   352     352       --         7.673 au  fA            1.00    352 A               1
                        (     208.784 eV)
   353     353       --         7.708 au  fA            1.00    353 A               1
                        (     209.738 eV)
   354     354       --         7.911 au  fA            1.00    354 A               1
                        (     215.282 eV)
   355     355       --         8.401 au  fA            1.00    355 A               1
                        (     228.601 eV)
   356     356       --         8.889 au  fA            1.00    356 A               1
                        (     241.892 eV)
   357     357       --         8.906 au  fA            1.00    357 A               1
                        (     242.352 eV)
   358     358       --         9.201 au  fA            1.00    358 A               1
                        (     250.361 eV)
   359     359       --         9.815 au  fA            1.00    359 A               1
                        (     267.085 eV)
   360     360       --         9.860 au  fA            1.00    360 A               1
                        (     268.305 eV)
   361     361       --        10.032 au  fA            1.00    361 A               1
                        (     272.998 eV)
   362     362       --        15.597 au  fA            1.00    362 A               1
                        (     424.413 eV)
   363     363       --        15.690 au  fA            1.00    363 A               1
                        (     426.939 eV)
   364     364       --        15.732 au  fA            1.00    364 A               1
                        (     428.079 eV)
   365     365       --        16.548 au  fA            1.00    365 A               1
                        (     450.297 eV)
   366     366       --        16.570 au  fA            1.00    366 A               1
                        (     450.880 eV)
   367     367       --        53.895 au  fA            1.00    367 A               1
                        (    1466.552 eV)
   368     368       --        55.702 au  fA            1.00    368 A               1
                        (    1515.724 eV)
   369     369       --        56.502 au  fA            1.00    369 A               1
                        (    1537.500 eV)
   370     370       --        57.326 au  fA            1.00    370 A               1
                        (    1559.917 eV)
   371     371       --        57.778 au  fA            1.00    371 A               1
                        (    1572.209 eV)
   372     372       --        58.409 au  fA            1.00    372 A               1
                        (    1589.388 eV)
   373     373       --        58.720 au  fA            1.00    373 A               1
                        (    1597.864 eV)
   374     374       --       127.679 au  fA            1.00    374 A               1
                        (    3474.332 eV)
   375     375       --       127.954 au  fA            1.00    375 A               1
                        (    3481.800 eV)
   376     376       --       128.078 au  fA            1.00    376 A               1
                        (    3485.173 eV)
   377     377       --       130.512 au  fA            1.00    377 A               1
                        (    3551.411 eV)
   378     378       --       130.681 au  fA            1.00    378 A               1
                        (    3556.017 eV)
   379     379      2.000    -101.116 au  fB            1.00      1 A               2
                        (   -2751.516 eV)
   380     380      2.000     -24.349 au  fB            1.00      2 A               2
                        (    -662.561 eV)
   381     381      2.000     -24.343 au  fB            1.00      3 A               2
                        (    -662.397 eV)
   382     382      2.000     -24.340 au  fB            1.00      4 A               2
                        (    -662.322 eV)
   383     383      2.000     -18.818 au  fB            1.00      5 A               2
                        (    -512.056 eV)
   384     384      2.000     -10.178 au  fB            1.00      6 A               2
                        (    -276.953 eV)
   385     385      2.000     -10.015 au  fB            1.00      7 A               2
                        (    -272.511 eV)
   386     386      2.000     -10.014 au  fB            1.00      8 A               2
                        (    -272.486 eV)
   387     387      2.000     -10.010 au  fB            1.00      9 A               2
                        (    -272.373 eV)
   388     388      2.000      -9.963 au  fB            1.00     10 A               2
                        (    -271.117 eV)
   389     389      2.000      -9.959 au  fB            1.00     11 A               2
                        (    -270.992 eV)
   390     390      2.000      -9.956 au  fB            1.00     12 A               2
                        (    -270.907 eV)
   391     391      2.000      -9.270 au  fB            1.00     13 A               2
                        (    -252.246 eV)
   392     392      2.000      -7.037 au  fB            1.00     14 A               2
                        (    -191.492 eV)
   393     393      2.000      -7.027 au  fB            1.00     15 A               2
                        (    -191.215 eV)
   394     394      2.000      -7.026 au  fB            1.00     16 A               2
                        (    -191.186 eV)
   395     395      2.000      -1.216 au  fB            1.00     17 A               2
                        (     -33.094 eV)
   396     396      2.000      -1.133 au  fB            1.00     18 A               2
                        (     -30.829 eV)
   397     397      2.000      -1.126 au  fB            1.00     19 A               2
                        (     -30.630 eV)
   398     398      2.000      -0.993 au  fB            1.00     20 A               2
                        (     -27.025 eV)
   399     399      2.000      -0.832 au  fB            1.00     21 A               2
                        (     -22.651 eV)
   400     400      2.000      -0.756 au  fB            1.00     22 A               2
                        (     -20.575 eV)
   401     401      2.000      -0.724 au  fB            1.00     23 A               2
                        (     -19.703 eV)
   402     402      2.000      -0.691 au  fB            1.00     24 A               2
                        (     -18.795 eV)
   403     403      2.000      -0.650 au  fB            1.00     25 A               2
                        (     -17.700 eV)
   404     404      2.000      -0.572 au  fB            1.00     26 A               2
                        (     -15.551 eV)
   405     405      2.000      -0.559 au  fB            1.00     27 A               2
                        (     -15.198 eV)
   406     406      2.000      -0.538 au  fB            1.00     28 A               2
                        (     -14.631 eV)
   407     407      2.000      -0.535 au  fB            1.00     29 A               2
                        (     -14.550 eV)
[...]
     450       89.8274         0.000       
     449       89.6252         0.000       
     448       89.0839         0.000       
     447       88.7111         0.000       
     446       88.5206         0.000       
     445       88.1939         0.000       
     444       87.8887         0.000       
     443       87.5828         0.000       
     442       87.4236         0.000       
     441       86.5258         0.000       
     440       86.2338         0.000       
     439       85.9891         0.000       
     438       85.7882         0.000       
     437       85.4476         0.000       
     436       84.7982         0.000       
     435       84.0573         0.000       
     434       83.6603         0.000       
     433       83.4942         0.000       
     432       82.8159         0.000       
     431       82.3321         0.000       
     430       81.9231         0.000       
     429       81.8848         0.000       
     428       81.0250         0.000       
     427       80.6319         0.000       
     426       80.4351         0.000       
     425       80.0545         0.000       
     424       80.0113         0.000       
     423       79.8053         0.000       
     422       78.6254         0.000       
     421       78.3509         0.000       
     420       78.2157         0.000       
     419       77.8964         0.000       
     418       77.8611         0.000       
     417       77.7127         0.000       
     416       77.4428         0.000       
     415       77.0690         0.000       
     414       76.6690         0.000       
     413       76.4963         0.000       
     412       76.0929         0.000       
     411       75.9791         0.000       
     410       75.6159         0.000       
     409       75.3152         0.000       
     408       75.1411         0.000       
     407       74.7250         0.000       
     406       74.3302         0.000       
     405       73.9309         0.000       
     404       73.5868         0.000       
     403       73.3283         0.000       
     402       72.6562         0.000       
     401       72.4719         0.000       
     400       71.9595         0.000       
     399       71.8233         0.000       
     398       71.0814         0.000       
     397       70.5306         0.000       
     396       69.8919         0.000       
     395       69.7117         0.000       
     394       69.1186         0.000       
     393       68.6801         0.000       
     392       68.3441         0.000       
     391       68.2010         0.000       
     390       68.0349         0.000       
     389       67.4697         0.000       
     388       67.0886         0.000       
     387       66.3877         0.000       
     386       66.2340         0.000       
     385       65.9748         0.000       
     384       65.6278         0.000       
     383       65.2912         0.000       
     382       64.9340         0.000       
     381       64.6091         0.000       
     380       64.3653         0.000       
     379       63.9761         0.000       
     378       63.5376         0.000       
     377       63.3631         0.000       
     376       63.0056         0.000       
     375       62.9178         0.000       
     374       62.1373         0.000       
     373       62.0055         0.000       
     372       61.7637         0.000       
     371       61.6464         0.000       
     370       61.0459         0.000       
     369       60.6698         0.000       
     368       60.0416         0.000       
     367       59.8228         0.000       
     366       59.7980         0.000       
     365       59.3811         0.000       
     364       59.1314         0.000       
     363       58.9590         0.000       
     362       58.8055         0.000       
     361       58.1331         0.000       
     360       57.6873         0.000       
     359       56.9125         0.000       
     358       56.4864         0.000       
     357       56.3972         0.000       
     356       55.9332         0.000       
     355       55.5206         0.000       
     354       54.9748         0.000       
     353       54.6186         0.000       
     352       54.5701         0.000       
     351       54.3104         0.000       
     350       53.8662         0.000       
     349       53.6530         0.000       
     348       53.0595         0.000       
     347       52.9817         0.000       
     346       52.8582         0.000       
     345       52.7053         0.000       
     344       52.1749         0.000       
     343       52.0986         0.000       
     342       51.9129         0.000       
     341       51.4156         0.000       
     340       51.2273         0.000       
     339       50.9292         0.000       
     338       50.6922         0.000       
     337       50.4779         0.000       
     336       49.9884         0.000       
     335       49.6036         0.000       
     334       49.4874         0.000       
     333       49.3801         0.000       
     332       48.9700         0.000       
     331       48.5613         0.000       
     330       48.4482         0.000       
     329       48.2846         0.000       
     328       48.0169         0.000       
     327       47.8577         0.000       
     326       47.6542         0.000       
     325       47.4235         0.000       
     324       47.0715         0.000       
     323       46.8134         0.000       
     322       46.7500         0.000       
     321       46.6654         0.000       
     320       45.9989         0.000       
     319       45.8938         0.000       
     318       45.3023         0.000       
     317       45.0416         0.000       
     316       44.6001         0.000       
     315       44.5253         0.000       
     314       44.2297         0.000       
     313       43.7596         0.000       
     312       43.6316         0.000       
     311       43.5137         0.000       
     310       43.3812         0.000       
     309       43.3459         0.000       
     308       43.0447         0.000       
     307       42.1655         0.000       
     306       41.8649         0.000       
     305       41.6637         0.000       
     304       41.1720         0.000       
     303       40.8890         0.000       
     302       40.7237         0.000       
     301       40.5808         0.000       
     300       40.3517         0.000       
     299       39.7563         0.000       
     298       39.4800         0.000       
     297       39.4272         0.000       
     296       38.9318         0.000       
     295       38.6476         0.000       
     294       38.0553         0.000       
     293       37.9705         0.000       
     292       37.8470         0.000       
     291       37.4948         0.000       
     290       37.3577         0.000       
     289       37.0137         0.000       
     288       36.8851         0.000       
     287       36.6749         0.000       
     286       36.4462         0.000       
     285       35.8890         0.000       
     284       35.6271         0.000       
     283       35.4201         0.000       
     282       35.3827         0.000       
     281       35.1111         0.000       
     280       34.8412         0.000       
     279       34.5080         0.000       
     278       34.3282         0.000       
     277       34.2110         0.000       
     276       34.1746         0.000       
     275       33.7344         0.000       
     274       33.5207         0.000       
     273       33.4800         0.000       
     272       33.3230         0.000       
     271       33.2642         0.000       
     270       32.9109         0.000       
     269       32.7293         0.000       
     268       32.4694         0.000       
     267       32.2997         0.000       
     266       31.9326         0.000       
     265       31.7955         0.000       
     264       31.6570         0.000       
     263       31.4429         0.000       
     262       31.4020         0.000       
     261       30.9105         0.000       
     260       30.8663         0.000       
     259       30.5633         0.000       
     258       30.4033         0.000       
     257       30.1041         0.000       
     256       29.8124         0.000       
     255       29.7132         0.000       
     254       29.6037         0.000       
     253       29.1904         0.000       
     252       29.0830         0.000       
     251       29.0054         0.000       
     250       28.9009         0.000       
     249       28.4582         0.000       
     248       28.1698         0.000       
     247       28.1283         0.000       
     246       27.9831         0.000       
     245       27.6422         0.000       
     244       27.4209         0.000       
     243       27.0794         0.000       
     242       26.9730         0.000       
     241       26.7684         0.000       
     240       26.4464         0.000       
     239       26.3293         0.000       
     238       26.0372         0.000       
     237       25.8581         0.000       
     236       25.5555         0.000       
     235       25.2917         0.000       
     234       24.9313         0.000       
     233       24.6829         0.000       
     232       24.4775         0.000       
     231       24.1148         0.000       
     230       24.0106         0.000       
     229       23.7321         0.000       
     228       23.5603         0.000       
     227       23.2932         0.000       
     226       23.1832         0.000       
     225       23.0790         0.000       
     224       22.7603         0.000       
     223       22.5421         0.000       
     222       22.2806         0.000       
     221       22.1672         0.000       
     220       21.7707         0.000       
     219       21.6232         0.000       
     218       21.3570         0.000       
     217       21.0670         0.000       
     216       20.9211         0.000       
     215       20.7855         0.000       
     214       20.6057         0.000       
     213       20.4548         0.000       
     212       20.2679         0.000       
     211       20.0545         0.000       
     210       19.8223         0.000       
     209       19.6581         0.000       
     208       19.2253         0.000       
     207       18.8274         0.000       
     206       18.6512         0.000       
     205       18.4721         0.000       
     204       18.1632         0.000       
     203       17.9579         0.000       
     202       17.7514         0.000       
     201       17.6572         0.000       
     200       17.1998         0.000       
     199       16.8532         0.000       
     198       16.5727         0.000       
     197       16.4652         0.000       
     196       16.3416         0.000       
     195       16.1678         0.000       
     194       15.6062         0.000       
     193       15.5812         0.000       
     192       15.2610         0.000       
     191       15.0805         0.000       
     190       14.6690         0.000       
     189       14.5431         0.000       
     188       14.4166         0.000       
     187       14.0895         0.000       
     186       13.9736         0.000       
     185       13.7116         0.000       
     184       13.5232         0.000       
     183       13.4314         0.000       
     182       13.0499         0.000       
     181       12.9787         0.000       
     180       12.8339         0.000       
     179       12.2450         0.000       
     178       12.1164         0.000       
     177       11.9625         0.000       
     176       11.6871         0.000       
     175       11.5722         0.000       
     174       11.4522         0.000       
     173       11.1770         0.000       
     172       10.8504         0.000       
     171       10.7238         0.000       
     170       10.6605         0.000       
     169       10.2708         0.000       
     168       10.2135         0.000       
     167       10.1087         0.000       
     166        9.9635         0.000       
     165        9.9224         0.000       
     164        9.6682         0.000       
     163        9.5620         0.000       
     162        9.4857         0.000       
     161        9.3588         0.000       
     160        8.8832         0.000       
     159        8.7737         0.000       
     158        8.6236         0.000       
     157        8.5415         0.000       
     156        8.4707         0.000       
     155        8.3765         0.000       
     154        8.2106         0.000       
     153        7.9978         0.000       
     152        7.8538         0.000       
     151        7.6821         0.000       
     150        7.5188         0.000       
     149        7.2992         0.000       
     148        7.2641         0.000       
     147        7.0861         0.000       
     146        6.9483         0.000       
     145        6.8042         0.000       
     144        6.4223         0.000       
     143        6.3575         0.000       
     142        6.2672         0.000       
     141        6.1341         0.000       
     140        5.8998         0.000       
     139        5.7007         0.000       
     138        5.5725         0.000       
     137        5.3393         0.000       
     136        5.2237         0.000       
     135        5.0637         0.000       
     134        4.9220         0.000       
     133        4.6746         0.000       
     132        4.6155         0.000       
     131        4.5592         0.000       
     130        4.3648         0.000       
     129        4.2364         0.000       
     128        4.0430         0.000       
     127        3.9209         0.000       
     126        3.8191         0.000       
     125        3.7888         0.000       
     124        3.4682         0.000       
     123        3.2971         0.000       
     122        3.1987         0.000       
     121        2.9581         0.000       
     120        2.8607         0.000       
     119        2.8035         0.000       
     118        2.4708         0.000       
     117        2.4040         0.000       
     116        2.2415         0.000       
     115        2.1197         0.000       
     114        1.8769         0.000       
     113        1.6913         0.000       
     112        1.6051         0.000       
     111        1.5456         0.000       
     110        1.2150         0.000       
     109        1.0404         0.000       
     108        0.9307         0.000       
     107        0.7062         0.000       
     106        0.5261         0.000       
     105        0.4987         0.000       
     104        0.2787         0.000       
     103        0.1872         0.000       
     102        0.0663         0.000       
     101       -0.4437         0.000       
     100       -0.6866         0.000       
      99       -0.8088         0.000       
      98       -0.9762         0.000       
      97       -1.9600         0.000       
      96       -2.3489         0.000       
      95       -2.8577         0.000       
      94       -4.2385         0.000 < LUMO
      93       -6.1542         2.000 < HOMO
      92       -6.2892         2.000       
      91       -6.5456         2.000       
      90       -6.9762         2.000       
      89       -7.1783         2.000       
      88       -7.4736         2.000       
      87       -7.6366         2.000       
      86       -8.4976         2.000       
      85       -8.8075         2.000       
      84       -9.1208         2.000       
      83       -9.4174         2.000       
      82       -9.4936         2.000       
      81       -9.5462         2.000       
      80       -9.8846         2.000       
      79       -9.8931         2.000       
      78       -9.9260         2.000       
      77      -10.0017         2.000       
      76      -10.2101         2.000       
      75      -10.3004         2.000       
      74      -10.4663         2.000       
      73      -10.5216         2.000       
      72      -10.6202         2.000       
      71      -10.7986         2.000       
      70      -10.8703         2.000       
      69      -11.0551         2.000       
      68      -11.1047         2.000       
      67      -11.1763         2.000       
      66      -11.2227         2.000       
      65      -11.2646         2.000       
      64      -11.4406         2.000       
      63      -11.6302         2.000       
      62      -11.8087         2.000       
      61      -11.9177         2.000       
      60      -12.1930         2.000       
      59      -12.2955         2.000       
      58      -12.8578         2.000       
      57      -13.1001         2.000       
      56      -13.8009         2.000       
      55      -14.2101         2.000       
      54      -14.4512         2.000       
      53      -14.5441         2.000       
      52      -14.7442         2.000       
      51      -14.9291         2.000       
      50      -15.4277         2.000       
      49      -15.5791         2.000       
      48      -15.7845         2.000       
      47      -17.0080         2.000       
      46      -17.3095         2.000       
      45      -17.7655         2.000       
      44      -18.8359         2.000       
      43      -19.2356         2.000       
      42      -19.7363         2.000       
      41      -20.2384         2.000       
      40      -20.8526         2.000       
      39      -21.0882         2.000       
      38      -22.8214         2.000       
      37      -26.1467         2.000       
      36      -26.5094         2.000       
      35      -27.1350         2.000       
      34      -27.4922         2.000       
      33      -28.0209         2.000       
      32      -30.4465         2.000       
      31      -30.6609         2.000       
      30      -30.7803         2.000       
      29      -32.9279         2.000       
      28     -191.2840         2.000       
      27     -191.3109         2.000       
      26     -191.5947         2.000       
      25     -252.3445         2.000       
      24     -270.3918         2.000       
      23     -271.1289         2.000       
      22     -271.3672         2.000       
      21     -271.6337         2.000       
      20     -271.7368         2.000       
      19     -272.6011         2.000       
      18     -272.8337         2.000       
      17     -272.8713         2.000       
      16     -272.8982         2.000       
      15     -272.9157         2.000       
      14     -273.6574         2.000       
      13     -274.1576         2.000       
      12     -274.8200         2.000       
      11     -276.8778         2.000       
      10     -511.4281         2.000       
       9     -511.7771         2.000       
       8     -512.2922         2.000       
       7     -512.5639         2.000       
       6     -514.2259         2.000       
       5     -514.8481         2.000       
       4     -662.0923         2.000       
       3     -662.2594         2.000       
       2     -662.3892         2.000       
       1    -2751.6143         2.000       

AMS application finished. Exiting.
NORMAL TERMINATION
     Total cpu time:     345.43
  Total system time:       0.69
 Total elapsed time:     348.28
NORMAL TERMINATION
