
 *******************************************************************************
 *                                                                             *
 *  --------------------------------                                           *
 *   Amsterdam Modeling Suite (AMS)              2026.103                      *
 *  --------------------------------                                           *
 *                                               r260501 2026-05-01 873454b5   *
 *                                                                             *
 *                                                                             *
 *                              =================                              *
 *                              |               |                              *
 *                              |     A M S     |                              *
 *                              |               |                              *
 *                              =================                              *
 *                                                                             *
 *                                                                             *
 *   Online information and documentation:  https://www.scm.com/support/       *
 *   E-mail:  support@scm.com   info@scm.com                                   *
 *                                                                             *
 *   Scientific publications using AMS results must be properly referenced     *
 *   See the User Manuals (or the web site) for recommended citations          *
 *   The terms and conditions of the End User License Agreement apply to       *
 *   the use of AMS, https://www.scm.com/license-terms/                        *
 *                                                                             *
 **********************  x86_64_linux_intel / intelmpi  ************************
 
 Licensed to: Jong-June Jeon / University of Seoul 2026-05-13 16:10:32
 SCM User ID: u30731
  
 AMS 2026.103  RunTime: May30-2026 07:45:35  ShM Nodes: 1  Procs: 1

 AMS jobname: c2_fragB_ts
 AMS jobid  : 469952769

 Start   directory: /gpfs/home1/yeseo1ee/projects/eda-asm-prediction/adf_outputs/batch_000/dipolar_000696/
 Results directory: /gpfs/home1/yeseo1ee/projects/eda-asm-prediction/adf_outputs/batch_000/dipolar_000696/c2_fragB_ts.results/
 Scratch directory: /tmp/amstmp_c2_fragB_ts_kid0.469952769/

 RNG seed: -503834551 545659989 -1085120510 -1618086803 -911703185 1637698776 644408795 -1019071920



                      ************************************************************************
                      *  ADF 2026.103  RunTime: May30-2026 07:45:35  ShM Nodes: 1  Procs: 1  *
                      ************************************************************************
  

       ****************************
       * SINGLE POINT CALCULATION *
       ****************************

--------
Geometry
--------
Formula: C7H9N3O4
Atoms
  Index Symbol   x (angstrom)   y (angstrom)   z (angstrom)
      1      C    -4.13771000     2.81781000     0.23931000
      2      N    -2.82300000     2.32156000     0.60016000
      3      C    -1.98703000     1.82290000    -0.31987000
      4      O    -2.23921000     1.73598000    -1.52720000
      5      C    -0.70073000     1.28526000     0.19225000
      6      N     0.40035000     1.19621000    -0.59247000
      7      C     1.42318000     0.78618000     0.21921000
      8      C     2.72057000     0.34526000    -0.30738000
      9      O     2.87761000     0.14446000    -1.52148000
     10      N     3.68154000     0.14244000     0.61369000
     11      C     4.98672000    -0.36897000     0.24864000
     12      C     1.05831000     1.14264000     1.56289000
     13      O     1.65293000     1.12698000     2.62526000
     14      O    -0.28131000     1.54893000     1.47178000
     15      H    -4.70367000     2.05208000    -0.31236000
     16      H    -4.68235000     3.07424000     1.15543000
     17      H    -4.06768000     3.71480000    -0.39652000
     18      H    -2.51006000     2.38309000     1.56434000
     19      H     0.32294000     0.85560000    -1.55148000
     20      H     3.46227000     0.33314000     1.58886000
     21      H     5.62205000    -0.38903000     1.14217000
     22      H     5.46415000     0.26843000    -0.51169000
     23      H     4.92010000    -1.39038000    -0.16064000

Total System Charge              0.00000


----------------
ADF Engine Input
----------------
 
   Basis
     Type TZ2P
     Core None
   End
   XC
     GGA BLYP
     Dispersion GRIMME3 BJDAMP
   End
   Symmetry NOSYM
   NumericalQuality Normal
   Unrestricted No
   SCF
     Iterations 200
     Converge 1.0e-6
   End
   Save TAPE21
 

 Title: *** (NO TITLE) ***

 *** adf ***



 ===========================
 A T T A C H E D   F I L E S
 ===========================
  



 ===============================
 M O D E L   P A R A M E T E R S
 ===============================
  
 DENSITY FUNCTIONAL POTENTIAL (scf)
    LDA:                               Exchange only                           == Not Default ==
    Gradient Corrections:              Becke88 LYP                             == Not Default ==

 SPIN  (restricted / unrestr.)
    Molecule:                          Restricted                               
    Fragments:                         Restricted                               

 OTHER ASPECTS
    Relativistic Corrections:          scalar (ZORA,MAPA)                       

    Nuclear Charge Density Model:      Point Charge Nuclei                      
    Core Treatment:                    Frozen Orbital(s)                        

    Hyperfine or Zeeman Interaction:   ---                                      

 Settings for Grimme D3 dispersion correction

      damping                        BJ
      s6                          1.000
      s8                          2.700
      a1                          0.430
      a2                          4.236

 Other (technical) parameters

      alpha                      14.000
      version                         4
 


 Fragment File(s)
 ----------------
 C:
         file : /gpfs/home1/yeseo1ee/projects/eda-asm-prediction/adf_outputs/batch_000/dipolar_000696/c2_fragB_ts.results/t21.50BA88D5.C
         jobid: 0
         title: Carbon (TZ2P)
 N:
         file : /gpfs/home1/yeseo1ee/projects/eda-asm-prediction/adf_outputs/batch_000/dipolar_000696/c2_fragB_ts.results/t21.44EAA48D.N
         jobid: 0
         title: Nitrogen (TZ2P)
 O:
         file : /gpfs/home1/yeseo1ee/projects/eda-asm-prediction/adf_outputs/batch_000/dipolar_000696/c2_fragB_ts.results/t21.6E90ABAE.O
         jobid: 0
         title: Oxygen (TZ2P)
 H:
         file : /gpfs/home1/yeseo1ee/projects/eda-asm-prediction/adf_outputs/batch_000/dipolar_000696/c2_fragB_ts.results/t21.6F35CCAB.H
         jobid: 0
         title: Hydrogen (TZ2P)



 ===============
 G E O M E T R Y  ***  3D  Molecule  ***
 ===============
  

 ATOMS
 =====                            X Y Z                    CHARGE
                                (Angstrom)             Nucl     +Core       At.Mass
                       --------------------------    ----------------       -------
    1  C              -4.1377    2.8178    0.2393      6.00      6.00       12.0000
    2  N              -2.8230    2.3216    0.6002      7.00      7.00       14.0031
    3  C              -1.9870    1.8229   -0.3199      6.00      6.00       12.0000
    4  O              -2.2392    1.7360   -1.5272      8.00      8.00       15.9949
    5  C              -0.7007    1.2853    0.1923      6.00      6.00       12.0000
    6  N               0.4003    1.1962   -0.5925      7.00      7.00       14.0031
    7  C               1.4232    0.7862    0.2192      6.00      6.00       12.0000
    8  C               2.7206    0.3453   -0.3074      6.00      6.00       12.0000
    9  O               2.8776    0.1445   -1.5215      8.00      8.00       15.9949
   10  N               3.6815    0.1424    0.6137      7.00      7.00       14.0031
   11  C               4.9867   -0.3690    0.2486      6.00      6.00       12.0000
   12  C               1.0583    1.1426    1.5629      6.00      6.00       12.0000
   13  O               1.6529    1.1270    2.6253      8.00      8.00       15.9949
   14  O              -0.2813    1.5489    1.4718      8.00      8.00       15.9949
   15  H              -4.7037    2.0521   -0.3124      1.00      1.00        1.0078
   16  H              -4.6823    3.0742    1.1554      1.00      1.00        1.0078
   17  H              -4.0677    3.7148   -0.3965      1.00      1.00        1.0078
   18  H              -2.5101    2.3831    1.5643      1.00      1.00        1.0078
   19  H               0.3229    0.8556   -1.5515      1.00      1.00        1.0078
   20  H               3.4623    0.3331    1.5889      1.00      1.00        1.0078
   21  H               5.6220   -0.3890    1.1422      1.00      1.00        1.0078
   22  H               5.4642    0.2684   -0.5117      1.00      1.00        1.0078
   23  H               4.9201   -1.3904   -0.1606      1.00      1.00        1.0078


 FRAGMENTS
 =========                                     Atoms in this Fragment     Cart. coord.s (Angstrom)
                                               -------------------------------------------------------
    1  C                                                 1  C           -4.1377    2.8178    0.2393
    2  C                                                 3  C           -1.9870    1.8229   -0.3199
    3  C                                                 5  C           -0.7007    1.2853    0.1923
    4  C                                                 7  C            1.4232    0.7862    0.2192
    5  C                                                 8  C            2.7206    0.3453   -0.3074
    6  C                                                11  C            4.9867   -0.3690    0.2486
    7  C                                                12  C            1.0583    1.1426    1.5629
    8  N                                                 2  N           -2.8230    2.3216    0.6002
    9  N                                                 6  N            0.4003    1.1962   -0.5925
   10  N                                                10  N            3.6815    0.1424    0.6137
   11  O                                                 4  O           -2.2392    1.7360   -1.5272
   12  O                                                 9  O            2.8776    0.1445   -1.5215
   13  O                                                13  O            1.6529    1.1270    2.6253
   14  O                                                14  O           -0.2813    1.5489    1.4718
   15  H                                                15  H           -4.7037    2.0521   -0.3124
   16  H                                                16  H           -4.6823    3.0742    1.1554
   17  H                                                17  H           -4.0677    3.7148   -0.3965
   18  H                                                18  H           -2.5101    2.3831    1.5643
   19  H                                                19  H            0.3229    0.8556   -1.5515
   20  H                                                20  H            3.4623    0.3331    1.5889
   21  H                                                21  H            5.6220   -0.3890    1.1422
   22  H                                                22  H            5.4642    0.2684   -0.5117
   23  H                                                23  H            4.9201   -1.3904   -0.1606



 =====================================
 S Y M M E T R Y ,   E L E C T R O N S
 =====================================
  
 Symmetry: NOSYM

 Irreducible Representations, including subspecies
 -------------------------------------------------
 A


 Configuration of Valence Electrons
 ==================================
 ( determined in the SCF procedure )

 Total:   104

 Net Charge: 0 (Nuclei minus Electrons)

 Aufbau principle for MO occupations will be applied through SCF cycle no.     100
 Thereafter, the program will assign electrons to MOs that are spatially
 similar to the occupied MOs in a "reference" cycle ("KeepOrbitals").
 The reference cycle is always the PREVIOUS cycle: it will evolve with
 the SCF procedure.
 ***************************************************************************************************



                                      ****************************************
                                      *  B U I L D : (Fragments, Functions)  *
                                      ****************************************
  



 =======
 S F O s  ***  (Symmetrized Fragment Orbitals)  ***
 =======
  
 SFOs are linear combinations of (valence) Fragment Orbitals (FOs), such that the SFOs transform as the
 irreducible representations of the (molecular) symmetry group. Each SFO is therefore characterized by
 an irrep of the molecule and by a few (or only one) generating FOs.
 The SFOs constitute a symmetry-adapted basis for the Fock matrix. The MO eigenvector coefficients in
 this basis provide a direct interpretation of the MOs in terms of Frontier Orbital Theory.

 The SFOs are combined with auxiliary Core Functions (CFs) to ensure orthogonalization on the (frozen)
 Core Orbitals (COs). The Core-orthogonalized SFOs (CSFOs) constitute the true Fock basis.

 The FOs, and hence also the (C)SFOs are combinations of the elementary basis functions (BAS). The basis
 functions that participate in the description of the SFOs depend on the irrep. The indices of the
 involved functions are printed below for each irrep.
 (The complete list of primitive basis functions is printed in another section)

 Total nr. of (C)SFOs (summation over all irreps) :   463

 NOTE: a (C)SFO that is defined as a combination of more than one FO is usually NOT normalized.



                                       === A ===
 Nr. of SFOs :  463
 Cartesian basis functions that participate in this irrep (total number =   528) :
      1     2     3     4     5     6     9    12     7    10
     13     8    11    14    15    16    17    18    19    20
     21    22    23    24    25    26    27    28    29    30
     31    32    33    34    35    36    39    42    37    40
     43    38    41    44    45    46    47    48    49    50
     51    52    53    54    55    56    57    58    59    60
     61    62    63    64    65    66    69    72    67    70
     73    68    71    74    75    76    77    78    79    80
     81    82    83    84    85    86    87    88    89    90
     91    92    93    94    95    96    99   102    97   100
    103    98   101   104   105   106   107   108   109   110
    111   112   113   114   115   116   117   118   119   120
    121   122   123   124   125   126   129   132   127   130
    133   128   131   134   135   136   137   138   139   140
    141   142   143   144   145   146   147   148   149   150
    151   152   153   154   155   156   159   162   157   160
    163   158   161   164   165   166   167   168   169   170
    171   172   173   174   175   176   177   178   179   180
    181   182   183   184   185   186   189   192   187   190
    193   188   191   194   195   196   197   198   199   200
    201   202   203   204   205   206   207   208   209   210
    211   212   213   214   215   216   219   222   217   220
    223   218   221   224   225   226   227   228   229   230
    231   232   233   234   235   236   237   238   239   240
    241   242   243   244   245   246   249   252   247   250
    253   248   251   254   255   256   257   258   259   260
    261   262   263   264   265   266   267   268   269   270
    271   272   273   274   275   276   279   282   277   280
    283   278   281   284   285   286   287   288   289   290
    291   292   293   294   295   296   297   298   299   300
    301   302   303   304   305   306   309   312   307   310
    313   308   311   314   315   316   317   318   319   320
    321   322   323   324   325   326   327   328   329   330
    331   332   333   334   335   336   339   342   337   340
    343   338   341   344   345   346   347   348   349   350
    351   352   353   354   355   356   357   358   359   360
    361   362   363   364   365   366   369   372   367   370
    373   368   371   374   375   376   377   378   379   380
    381   382   383   384   385   386   387   388   389   390
    391   392   393   394   395   396   399   402   397   400
    403   398   401   404   405   406   407   408   409   410
    411   412   413   414   415   416   417   418   419   420
    421   422   423   424   425   426   427   428   429   430
    431   432   433   434   435   436   437   438   439   440
    441   442   443   444   445   446   447   448   449   450
    451   452   453   454   455   456   457   458   459   460
    461   462   463   464   465   466   467   468   469   470
    471   472   473   474   475   476   477   478   479   480
    481   482   483   484   485   486   487   488   489   490
    491   492   493   494   495   496   497   498   499   500
    501   502   503   504   505   506   507   508   509   510
    511   512   513   514   515   516   517   518   519   520
    521   522   523   524   525   526   527   528

    SFO  (index         Fragment          Generating    Expansion in Fragment Orbitals
  indx  incl.CFs)   Occup   Orb.Energy   FragmentType  Coeff.   Orbital     on Fragment
 --------------------------------------------------------------------------------------
     1       1      2.000     -10.066 au  C             1.00      1 S               1
                        (    -273.921 eV)
     2       2      2.000      -0.501 au  C             1.00      2 S               1
                        (     -13.620 eV)
     3       3       --         0.373 au  C             1.00      3 S               1
                        (      10.158 eV)
     4       4       --         5.405 au  C             1.00      4 S               1
                        (     147.073 eV)
     5       5       --        49.848 au  C             1.00      5 S               1
                        (    1356.422 eV)
     6       6      0.667      -0.193 au  C             1.00      1 P:x             1
                        (      -5.239 eV)
     7       7       --         0.169 au  C             1.00      2 P:x             1
                        (       4.589 eV)
     8       8       --         2.013 au  C             1.00      3 P:x             1
                        (      54.789 eV)
     9       9      0.667      -0.193 au  C             1.00      1 P:y             1
                        (      -5.239 eV)
    10      10       --         0.169 au  C             1.00      2 P:y             1
                        (       4.589 eV)
    11      11       --         2.013 au  C             1.00      3 P:y             1
                        (      54.789 eV)
    12      12      0.667      -0.193 au  C             1.00      1 P:z             1
                        (      -5.239 eV)
    13      13       --         0.169 au  C             1.00      2 P:z             1
                        (       4.589 eV)
    14      14       --         2.013 au  C             1.00      3 P:z             1
                        (      54.789 eV)
    15      15       --         1.243 au  C             1.00      1 D:z2            1
                        (      33.824 eV)
    16      16       --         1.243 au  C             1.00      1 D:x2-y2         1
                        (      33.824 eV)
    17      17       --         1.243 au  C             1.00      1 D:xy            1
                        (      33.824 eV)
    18      18       --         1.243 au  C             1.00      1 D:xz            1
                        (      33.824 eV)
    19      19       --         1.243 au  C             1.00      1 D:yz            1
                        (      33.824 eV)
    20      20       --         4.016 au  C             1.00      1 F:z3            1
                        (     109.271 eV)
    21      21       --         4.016 au  C             1.00      1 F:z             1
                        (     109.271 eV)
    22      22       --         4.016 au  C             1.00      1 F:xyz           1
                        (     109.271 eV)
    23      23       --         4.016 au  C             1.00      1 F:z2x           1
                        (     109.271 eV)
    24      24       --         4.016 au  C             1.00      1 F:z2y           1
                        (     109.271 eV)
    25      25       --         4.016 au  C             1.00      1 F:x             1
                        (     109.271 eV)
    26      26       --         4.016 au  C             1.00      1 F:y             1
                        (     109.271 eV)
    27      27      2.000     -10.066 au  C             1.00      1 S               2
                        (    -273.921 eV)
    28      28      2.000      -0.501 au  C             1.00      2 S               2
                        (     -13.620 eV)
    29      29       --         0.373 au  C             1.00      3 S               2
                        (      10.158 eV)
    30      30       --         5.405 au  C             1.00      4 S               2
                        (     147.073 eV)
    31      31       --        49.848 au  C             1.00      5 S               2
                        (    1356.422 eV)
    32      32      0.667      -0.193 au  C             1.00      1 P:x             2
                        (      -5.239 eV)
    33      33       --         0.169 au  C             1.00      2 P:x             2
                        (       4.589 eV)
    34      34       --         2.013 au  C             1.00      3 P:x             2
                        (      54.789 eV)
    35      35      0.667      -0.193 au  C             1.00      1 P:y             2
                        (      -5.239 eV)
    36      36       --         0.169 au  C             1.00      2 P:y             2
                        (       4.589 eV)
    37      37       --         2.013 au  C             1.00      3 P:y             2
                        (      54.789 eV)
    38      38      0.667      -0.193 au  C             1.00      1 P:z             2
                        (      -5.239 eV)
    39      39       --         0.169 au  C             1.00      2 P:z             2
                        (       4.589 eV)
    40      40       --         2.013 au  C             1.00      3 P:z             2
                        (      54.789 eV)
    41      41       --         1.243 au  C             1.00      1 D:z2            2
                        (      33.824 eV)
    42      42       --         1.243 au  C             1.00      1 D:x2-y2         2
                        (      33.824 eV)
    43      43       --         1.243 au  C             1.00      1 D:xy            2
                        (      33.824 eV)
    44      44       --         1.243 au  C             1.00      1 D:xz            2
                        (      33.824 eV)
    45      45       --         1.243 au  C             1.00      1 D:yz            2
                        (      33.824 eV)
    46      46       --         4.016 au  C             1.00      1 F:z3            2
                        (     109.271 eV)
    47      47       --         4.016 au  C             1.00      1 F:z             2
                        (     109.271 eV)
    48      48       --         4.016 au  C             1.00      1 F:xyz           2
                        (     109.271 eV)
    49      49       --         4.016 au  C             1.00      1 F:z2x           2
                        (     109.271 eV)
    50      50       --         4.016 au  C             1.00      1 F:z2y           2
                        (     109.271 eV)
    51      51       --         4.016 au  C             1.00      1 F:x             2
                        (     109.271 eV)
    52      52       --         4.016 au  C             1.00      1 F:y             2
                        (     109.271 eV)
    53      53      2.000     -10.066 au  C             1.00      1 S               3
                        (    -273.921 eV)
    54      54      2.000      -0.501 au  C             1.00      2 S               3
                        (     -13.620 eV)
    55      55       --         0.373 au  C             1.00      3 S               3
                        (      10.158 eV)
    56      56       --         5.405 au  C             1.00      4 S               3
                        (     147.073 eV)
    57      57       --        49.848 au  C             1.00      5 S               3
                        (    1356.422 eV)
    58      58      0.667      -0.193 au  C             1.00      1 P:x             3
                        (      -5.239 eV)
    59      59       --         0.169 au  C             1.00      2 P:x             3
                        (       4.589 eV)
    60      60       --         2.013 au  C             1.00      3 P:x             3
                        (      54.789 eV)
    61      61      0.667      -0.193 au  C             1.00      1 P:y             3
                        (      -5.239 eV)
    62      62       --         0.169 au  C             1.00      2 P:y             3
                        (       4.589 eV)
    63      63       --         2.013 au  C             1.00      3 P:y             3
                        (      54.789 eV)
    64      64      0.667      -0.193 au  C             1.00      1 P:z             3
                        (      -5.239 eV)
    65      65       --         0.169 au  C             1.00      2 P:z             3
                        (       4.589 eV)
    66      66       --         2.013 au  C             1.00      3 P:z             3
                        (      54.789 eV)
    67      67       --         1.243 au  C             1.00      1 D:z2            3
                        (      33.824 eV)
    68      68       --         1.243 au  C             1.00      1 D:x2-y2         3
                        (      33.824 eV)
    69      69       --         1.243 au  C             1.00      1 D:xy            3
                        (      33.824 eV)
    70      70       --         1.243 au  C             1.00      1 D:xz            3
                        (      33.824 eV)
    71      71       --         1.243 au  C             1.00      1 D:yz            3
                        (      33.824 eV)
    72      72       --         4.016 au  C             1.00      1 F:z3            3
                        (     109.271 eV)
    73      73       --         4.016 au  C             1.00      1 F:z             3
                        (     109.271 eV)
    74      74       --         4.016 au  C             1.00      1 F:xyz           3
                        (     109.271 eV)
    75      75       --         4.016 au  C             1.00      1 F:z2x           3
                        (     109.271 eV)
    76      76       --         4.016 au  C             1.00      1 F:z2y           3
                        (     109.271 eV)
    77      77       --         4.016 au  C             1.00      1 F:x             3
                        (     109.271 eV)
    78      78       --         4.016 au  C             1.00      1 F:y             3
                        (     109.271 eV)
    79      79      2.000     -10.066 au  C             1.00      1 S               4
                        (    -273.921 eV)
    80      80      2.000      -0.501 au  C             1.00      2 S               4
                        (     -13.620 eV)
    81      81       --         0.373 au  C             1.00      3 S               4
                        (      10.158 eV)
    82      82       --         5.405 au  C             1.00      4 S               4
                        (     147.073 eV)
    83      83       --        49.848 au  C             1.00      5 S               4
                        (    1356.422 eV)
    84      84      0.667      -0.193 au  C             1.00      1 P:x             4
                        (      -5.239 eV)
    85      85       --         0.169 au  C             1.00      2 P:x             4
                        (       4.589 eV)
    86      86       --         2.013 au  C             1.00      3 P:x             4
                        (      54.789 eV)
    87      87      0.667      -0.193 au  C             1.00      1 P:y             4
                        (      -5.239 eV)
    88      88       --         0.169 au  C             1.00      2 P:y             4
                        (       4.589 eV)
    89      89       --         2.013 au  C             1.00      3 P:y             4
                        (      54.789 eV)
    90      90      0.667      -0.193 au  C             1.00      1 P:z             4
                        (      -5.239 eV)
    91      91       --         0.169 au  C             1.00      2 P:z             4
                        (       4.589 eV)
    92      92       --         2.013 au  C             1.00      3 P:z             4
                        (      54.789 eV)
    93      93       --         1.243 au  C             1.00      1 D:z2            4
                        (      33.824 eV)
    94      94       --         1.243 au  C             1.00      1 D:x2-y2         4
                        (      33.824 eV)
    95      95       --         1.243 au  C             1.00      1 D:xy            4
                        (      33.824 eV)
    96      96       --         1.243 au  C             1.00      1 D:xz            4
                        (      33.824 eV)
    97      97       --         1.243 au  C             1.00      1 D:yz            4
                        (      33.824 eV)
    98      98       --         4.016 au  C             1.00      1 F:z3            4
                        (     109.271 eV)
    99      99       --         4.016 au  C             1.00      1 F:z             4
                        (     109.271 eV)
   100     100       --         4.016 au  C             1.00      1 F:xyz           4
                        (     109.271 eV)
   101     101       --         4.016 au  C             1.00      1 F:z2x           4
                        (     109.271 eV)
   102     102       --         4.016 au  C             1.00      1 F:z2y           4
                        (     109.271 eV)
   103     103       --         4.016 au  C             1.00      1 F:x             4
                        (     109.271 eV)
   104     104       --         4.016 au  C             1.00      1 F:y             4
                        (     109.271 eV)
   105     105      2.000     -10.066 au  C             1.00      1 S               5
                        (    -273.921 eV)
   106     106      2.000      -0.501 au  C             1.00      2 S               5
                        (     -13.620 eV)
   107     107       --         0.373 au  C             1.00      3 S               5
                        (      10.158 eV)
   108     108       --         5.405 au  C             1.00      4 S               5
                        (     147.073 eV)
   109     109       --        49.848 au  C             1.00      5 S               5
                        (    1356.422 eV)
   110     110      0.667      -0.193 au  C             1.00      1 P:x             5
                        (      -5.239 eV)
   111     111       --         0.169 au  C             1.00      2 P:x             5
                        (       4.589 eV)
   112     112       --         2.013 au  C             1.00      3 P:x             5
                        (      54.789 eV)
   113     113      0.667      -0.193 au  C             1.00      1 P:y             5
                        (      -5.239 eV)
   114     114       --         0.169 au  C             1.00      2 P:y             5
                        (       4.589 eV)
   115     115       --         2.013 au  C             1.00      3 P:y             5
                        (      54.789 eV)
   116     116      0.667      -0.193 au  C             1.00      1 P:z             5
                        (      -5.239 eV)
   117     117       --         0.169 au  C             1.00      2 P:z             5
                        (       4.589 eV)
   118     118       --         2.013 au  C             1.00      3 P:z             5
                        (      54.789 eV)
   119     119       --         1.243 au  C             1.00      1 D:z2            5
                        (      33.824 eV)
   120     120       --         1.243 au  C             1.00      1 D:x2-y2         5
                        (      33.824 eV)
   121     121       --         1.243 au  C             1.00      1 D:xy            5
                        (      33.824 eV)
   122     122       --         1.243 au  C             1.00      1 D:xz            5
                        (      33.824 eV)
   123     123       --         1.243 au  C             1.00      1 D:yz            5
                        (      33.824 eV)
   124     124       --         4.016 au  C             1.00      1 F:z3            5
                        (     109.271 eV)
   125     125       --         4.016 au  C             1.00      1 F:z             5
                        (     109.271 eV)
   126     126       --         4.016 au  C             1.00      1 F:xyz           5
                        (     109.271 eV)
   127     127       --         4.016 au  C             1.00      1 F:z2x           5
                        (     109.271 eV)
   128     128       --         4.016 au  C             1.00      1 F:z2y           5
                        (     109.271 eV)
   129     129       --         4.016 au  C             1.00      1 F:x             5
                        (     109.271 eV)
   130     130       --         4.016 au  C             1.00      1 F:y             5
                        (     109.271 eV)
   131     131      2.000     -10.066 au  C             1.00      1 S               6
                        (    -273.921 eV)
   132     132      2.000      -0.501 au  C             1.00      2 S               6
                        (     -13.620 eV)
   133     133       --         0.373 au  C             1.00      3 S               6
                        (      10.158 eV)
   134     134       --         5.405 au  C             1.00      4 S               6
                        (     147.073 eV)
   135     135       --        49.848 au  C             1.00      5 S               6
                        (    1356.422 eV)
   136     136      0.667      -0.193 au  C             1.00      1 P:x             6
                        (      -5.239 eV)
   137     137       --         0.169 au  C             1.00      2 P:x             6
                        (       4.589 eV)
   138     138       --         2.013 au  C             1.00      3 P:x             6
                        (      54.789 eV)
   139     139      0.667      -0.193 au  C             1.00      1 P:y             6
                        (      -5.239 eV)
   140     140       --         0.169 au  C             1.00      2 P:y             6
                        (       4.589 eV)
   141     141       --         2.013 au  C             1.00      3 P:y             6
                        (      54.789 eV)
   142     142      0.667      -0.193 au  C             1.00      1 P:z             6
                        (      -5.239 eV)
   143     143       --         0.169 au  C             1.00      2 P:z             6
                        (       4.589 eV)
   144     144       --         2.013 au  C             1.00      3 P:z             6
                        (      54.789 eV)
   145     145       --         1.243 au  C             1.00      1 D:z2            6
                        (      33.824 eV)
   146     146       --         1.243 au  C             1.00      1 D:x2-y2         6
                        (      33.824 eV)
   147     147       --         1.243 au  C             1.00      1 D:xy            6
                        (      33.824 eV)
   148     148       --         1.243 au  C             1.00      1 D:xz            6
                        (      33.824 eV)
   149     149       --         1.243 au  C             1.00      1 D:yz            6
                        (      33.824 eV)
   150     150       --         4.016 au  C             1.00      1 F:z3            6
                        (     109.271 eV)
   151     151       --         4.016 au  C             1.00      1 F:z             6
                        (     109.271 eV)
   152     152       --         4.016 au  C             1.00      1 F:xyz           6
                        (     109.271 eV)
   153     153       --         4.016 au  C             1.00      1 F:z2x           6
                        (     109.271 eV)
   154     154       --         4.016 au  C             1.00      1 F:z2y           6
                        (     109.271 eV)
   155     155       --         4.016 au  C             1.00      1 F:x             6
                        (     109.271 eV)
   156     156       --         4.016 au  C             1.00      1 F:y             6
                        (     109.271 eV)
   157     157      2.000     -10.066 au  C             1.00      1 S               7
                        (    -273.921 eV)
   158     158      2.000      -0.501 au  C             1.00      2 S               7
                        (     -13.620 eV)
   159     159       --         0.373 au  C             1.00      3 S               7
                        (      10.158 eV)
   160     160       --         5.405 au  C             1.00      4 S               7
                        (     147.073 eV)
   161     161       --        49.848 au  C             1.00      5 S               7
                        (    1356.422 eV)
   162     162      0.667      -0.193 au  C             1.00      1 P:x             7
                        (      -5.239 eV)
   163     163       --         0.169 au  C             1.00      2 P:x             7
                        (       4.589 eV)
   164     164       --         2.013 au  C             1.00      3 P:x             7
                        (      54.789 eV)
   165     165      0.667      -0.193 au  C             1.00      1 P:y             7
                        (      -5.239 eV)
   166     166       --         0.169 au  C             1.00      2 P:y             7
                        (       4.589 eV)
   167     167       --         2.013 au  C             1.00      3 P:y             7
                        (      54.789 eV)
   168     168      0.667      -0.193 au  C             1.00      1 P:z             7
                        (      -5.239 eV)
   169     169       --         0.169 au  C             1.00      2 P:z             7
                        (       4.589 eV)
   170     170       --         2.013 au  C             1.00      3 P:z             7
                        (      54.789 eV)
   171     171       --         1.243 au  C             1.00      1 D:z2            7
                        (      33.824 eV)
   172     172       --         1.243 au  C             1.00      1 D:x2-y2         7
                        (      33.824 eV)
   173     173       --         1.243 au  C             1.00      1 D:xy            7
                        (      33.824 eV)
   174     174       --         1.243 au  C             1.00      1 D:xz            7
                        (      33.824 eV)
   175     175       --         1.243 au  C             1.00      1 D:yz            7
                        (      33.824 eV)
   176     176       --         4.016 au  C             1.00      1 F:z3            7
                        (     109.271 eV)
   177     177       --         4.016 au  C             1.00      1 F:z             7
                        (     109.271 eV)
   178     178       --         4.016 au  C             1.00      1 F:xyz           7
                        (     109.271 eV)
   179     179       --         4.016 au  C             1.00      1 F:z2x           7
                        (     109.271 eV)
   180     180       --         4.016 au  C             1.00      1 F:z2y           7
                        (     109.271 eV)
   181     181       --         4.016 au  C             1.00      1 F:x             7
                        (     109.271 eV)
   182     182       --         4.016 au  C             1.00      1 F:y             7
                        (     109.271 eV)
   183     183      2.000     -14.160 au  N             1.00      1 S               8
                        (    -385.319 eV)
   184     184      2.000      -0.678 au  N             1.00      2 S               8
                        (     -18.450 eV)
   185     185       --         0.517 au  N             1.00      3 S               8
                        (      14.073 eV)
   186     186       --         6.872 au  N             1.00      4 S               8
                        (     186.990 eV)
   187     187       --        63.432 au  N             1.00      5 S               8
                        (    1726.082 eV)
   188     188      1.000      -0.260 au  N             1.00      1 P:x             8
                        (      -7.062 eV)
   189     189       --         0.281 au  N             1.00      2 P:x             8
                        (       7.649 eV)
   190     190       --         3.275 au  N             1.00      3 P:x             8
                        (      89.105 eV)
   191     191      1.000      -0.260 au  N             1.00      1 P:y             8
                        (      -7.062 eV)
   192     192       --         0.281 au  N             1.00      2 P:y             8
                        (       7.649 eV)
   193     193       --         3.275 au  N             1.00      3 P:y             8
                        (      89.105 eV)
   194     194      1.000      -0.260 au  N             1.00      1 P:z             8
                        (      -7.062 eV)
   195     195       --         0.281 au  N             1.00      2 P:z             8
                        (       7.649 eV)
   196     196       --         3.275 au  N             1.00      3 P:z             8
                        (      89.105 eV)
   197     197       --         1.250 au  N             1.00      1 D:z2            8
                        (      34.005 eV)
   198     198       --         1.250 au  N             1.00      1 D:x2-y2         8
                        (      34.005 eV)
   199     199       --         1.250 au  N             1.00      1 D:xy            8
                        (      34.005 eV)
   200     200       --         1.250 au  N             1.00      1 D:xz            8
                        (      34.005 eV)
   201     201       --         1.250 au  N             1.00      1 D:yz            8
                        (      34.005 eV)
   202     202       --         4.013 au  N             1.00      1 F:z3            8
                        (     109.190 eV)
   203     203       --         4.013 au  N             1.00      1 F:z             8
                        (     109.190 eV)
   204     204       --         4.013 au  N             1.00      1 F:xyz           8
                        (     109.190 eV)
   205     205       --         4.013 au  N             1.00      1 F:z2x           8
                        (     109.190 eV)
   206     206       --         4.013 au  N             1.00      1 F:z2y           8
                        (     109.190 eV)
   207     207       --         4.013 au  N             1.00      1 F:x             8
                        (     109.190 eV)
   208     208       --         4.013 au  N             1.00      1 F:y             8
                        (     109.190 eV)
   209     209      2.000     -14.160 au  N             1.00      1 S               9
                        (    -385.319 eV)
   210     210      2.000      -0.678 au  N             1.00      2 S               9
                        (     -18.450 eV)
   211     211       --         0.517 au  N             1.00      3 S               9
                        (      14.073 eV)
   212     212       --         6.872 au  N             1.00      4 S               9
                        (     186.990 eV)
   213     213       --        63.432 au  N             1.00      5 S               9
                        (    1726.082 eV)
   214     214      1.000      -0.260 au  N             1.00      1 P:x             9
                        (      -7.062 eV)
   215     215       --         0.281 au  N             1.00      2 P:x             9
                        (       7.649 eV)
   216     216       --         3.275 au  N             1.00      3 P:x             9
                        (      89.105 eV)
   217     217      1.000      -0.260 au  N             1.00      1 P:y             9
                        (      -7.062 eV)
   218     218       --         0.281 au  N             1.00      2 P:y             9
                        (       7.649 eV)
   219     219       --         3.275 au  N             1.00      3 P:y             9
                        (      89.105 eV)
   220     220      1.000      -0.260 au  N             1.00      1 P:z             9
                        (      -7.062 eV)
   221     221       --         0.281 au  N             1.00      2 P:z             9
                        (       7.649 eV)
   222     222       --         3.275 au  N             1.00      3 P:z             9
                        (      89.105 eV)
   223     223       --         1.250 au  N             1.00      1 D:z2            9
                        (      34.005 eV)
   224     224       --         1.250 au  N             1.00      1 D:x2-y2         9
                        (      34.005 eV)
   225     225       --         1.250 au  N             1.00      1 D:xy            9
                        (      34.005 eV)
   226     226       --         1.250 au  N             1.00      1 D:xz            9
                        (      34.005 eV)
   227     227       --         1.250 au  N             1.00      1 D:yz            9
                        (      34.005 eV)
   228     228       --         4.013 au  N             1.00      1 F:z3            9
                        (     109.190 eV)
   229     229       --         4.013 au  N             1.00      1 F:z             9
                        (     109.190 eV)
   230     230       --         4.013 au  N             1.00      1 F:xyz           9
                        (     109.190 eV)
   231     231       --         4.013 au  N             1.00      1 F:z2x           9
                        (     109.190 eV)
   232     232       --         4.013 au  N             1.00      1 F:z2y           9
                        (     109.190 eV)
   233     233       --         4.013 au  N             1.00      1 F:x             9
                        (     109.190 eV)
   234     234       --         4.013 au  N             1.00      1 F:y             9
                        (     109.190 eV)
   235     235      2.000     -14.160 au  N             1.00      1 S              10
                        (    -385.319 eV)
   236     236      2.000      -0.678 au  N             1.00      2 S              10
                        (     -18.450 eV)
   237     237       --         0.517 au  N             1.00      3 S              10
                        (      14.073 eV)
   238     238       --         6.872 au  N             1.00      4 S              10
                        (     186.990 eV)
   239     239       --        63.432 au  N             1.00      5 S              10
                        (    1726.082 eV)
   240     240      1.000      -0.260 au  N             1.00      1 P:x            10
                        (      -7.062 eV)
   241     241       --         0.281 au  N             1.00      2 P:x            10
                        (       7.649 eV)
   242     242       --         3.275 au  N             1.00      3 P:x            10
                        (      89.105 eV)
   243     243      1.000      -0.260 au  N             1.00      1 P:y            10
                        (      -7.062 eV)
   244     244       --         0.281 au  N             1.00      2 P:y            10
                        (       7.649 eV)
   245     245       --         3.275 au  N             1.00      3 P:y            10
                        (      89.105 eV)
   246     246      1.000      -0.260 au  N             1.00      1 P:z            10
                        (      -7.062 eV)
   247     247       --         0.281 au  N             1.00      2 P:z            10
                        (       7.649 eV)
   248     248       --         3.275 au  N             1.00      3 P:z            10
                        (      89.105 eV)
   249     249       --         1.250 au  N             1.00      1 D:z2           10
                        (      34.005 eV)
   250     250       --         1.250 au  N             1.00      1 D:x2-y2        10
                        (      34.005 eV)
   251     251       --         1.250 au  N             1.00      1 D:xy           10
                        (      34.005 eV)
   252     252       --         1.250 au  N             1.00      1 D:xz           10
                        (      34.005 eV)
   253     253       --         1.250 au  N             1.00      1 D:yz           10
                        (      34.005 eV)
   254     254       --         4.013 au  N             1.00      1 F:z3           10
                        (     109.190 eV)
   255     255       --         4.013 au  N             1.00      1 F:z            10
                        (     109.190 eV)
   256     256       --         4.013 au  N             1.00      1 F:xyz          10
                        (     109.190 eV)
   257     257       --         4.013 au  N             1.00      1 F:z2x          10
                        (     109.190 eV)
   258     258       --         4.013 au  N             1.00      1 F:z2y          10
                        (     109.190 eV)
   259     259       --         4.013 au  N             1.00      1 F:x            10
                        (     109.190 eV)
   260     260       --         4.013 au  N             1.00      1 F:y            10
                        (     109.190 eV)
   261     261      2.000     -18.941 au  O             1.00      1 S              11
                        (    -515.403 eV)
   262     262      2.000      -0.876 au  O             1.00      2 S              11
                        (     -23.838 eV)
   263     263       --         0.791 au  O             1.00      3 S              11
                        (      21.524 eV)
   264     264       --        13.422 au  O             1.00      4 S              11
                        (     365.226 eV)
   265     265       --       121.561 au  O             1.00      5 S              11
                        (    3307.838 eV)
   266     266      1.333      -0.331 au  O             1.00      1 P:x            11
                        (      -9.020 eV)
   267     267       --         0.347 au  O             1.00      2 P:x            11
                        (       9.437 eV)
   268     268       --         3.820 au  O             1.00      3 P:x            11
                        (     103.939 eV)
   269     269      1.333      -0.331 au  O             1.00      1 P:y            11
                        (      -9.020 eV)
   270     270       --         0.347 au  O             1.00      2 P:y            11
                        (       9.437 eV)
   271     271       --         3.820 au  O             1.00      3 P:y            11
                        (     103.939 eV)
   272     272      1.333      -0.331 au  O             1.00      1 P:z            11
                        (      -9.020 eV)
   273     273       --         0.347 au  O             1.00      2 P:z            11
                        (       9.437 eV)
   274     274       --         3.820 au  O             1.00      3 P:z            11
                        (     103.939 eV)
   275     275       --         1.071 au  O             1.00      1 D:z2           11
                        (      29.134 eV)
   276     276       --         1.071 au  O             1.00      1 D:x2-y2        11
                        (      29.134 eV)
   277     277       --         1.071 au  O             1.00      1 D:xy           11
                        (      29.134 eV)
   278     278       --         1.071 au  O             1.00      1 D:xz           11
                        (      29.134 eV)
   279     279       --         1.071 au  O             1.00      1 D:yz           11
                        (      29.134 eV)
   280     280       --         3.359 au  O             1.00      1 F:z3           11
                        (      91.410 eV)
   281     281       --         3.359 au  O             1.00      1 F:z            11
                        (      91.410 eV)
   282     282       --         3.359 au  O             1.00      1 F:xyz          11
                        (      91.410 eV)
   283     283       --         3.359 au  O             1.00      1 F:z2x          11
                        (      91.410 eV)
   284     284       --         3.359 au  O             1.00      1 F:z2y          11
                        (      91.410 eV)
   285     285       --         3.359 au  O             1.00      1 F:x            11
                        (      91.410 eV)
   286     286       --         3.359 au  O             1.00      1 F:y            11
                        (      91.410 eV)
   287     287      2.000     -18.941 au  O             1.00      1 S              12
                        (    -515.403 eV)
   288     288      2.000      -0.876 au  O             1.00      2 S              12
                        (     -23.838 eV)
   289     289       --         0.791 au  O             1.00      3 S              12
                        (      21.524 eV)
   290     290       --        13.422 au  O             1.00      4 S              12
                        (     365.226 eV)
   291     291       --       121.561 au  O             1.00      5 S              12
                        (    3307.838 eV)
   292     292      1.333      -0.331 au  O             1.00      1 P:x            12
                        (      -9.020 eV)
   293     293       --         0.347 au  O             1.00      2 P:x            12
                        (       9.437 eV)
   294     294       --         3.820 au  O             1.00      3 P:x            12
                        (     103.939 eV)
   295     295      1.333      -0.331 au  O             1.00      1 P:y            12
                        (      -9.020 eV)
   296     296       --         0.347 au  O             1.00      2 P:y            12
                        (       9.437 eV)
   297     297       --         3.820 au  O             1.00      3 P:y            12
                        (     103.939 eV)
   298     298      1.333      -0.331 au  O             1.00      1 P:z            12
                        (      -9.020 eV)
   299     299       --         0.347 au  O             1.00      2 P:z            12
                        (       9.437 eV)
   300     300       --         3.820 au  O             1.00      3 P:z            12
                        (     103.939 eV)
   301     301       --         1.071 au  O             1.00      1 D:z2           12
                        (      29.134 eV)
   302     302       --         1.071 au  O             1.00      1 D:x2-y2        12
                        (      29.134 eV)
   303     303       --         1.071 au  O             1.00      1 D:xy           12
                        (      29.134 eV)
   304     304       --         1.071 au  O             1.00      1 D:xz           12
                        (      29.134 eV)
   305     305       --         1.071 au  O             1.00      1 D:yz           12
                        (      29.134 eV)
   306     306       --         3.359 au  O             1.00      1 F:z3           12
                        (      91.410 eV)
   307     307       --         3.359 au  O             1.00      1 F:z            12
                        (      91.410 eV)
   308     308       --         3.359 au  O             1.00      1 F:xyz          12
                        (      91.410 eV)
   309     309       --         3.359 au  O             1.00      1 F:z2x          12
                        (      91.410 eV)
   310     310       --         3.359 au  O             1.00      1 F:z2y          12
                        (      91.410 eV)
   311     311       --         3.359 au  O             1.00      1 F:x            12
                        (      91.410 eV)
   312     312       --         3.359 au  O             1.00      1 F:y            12
                        (      91.410 eV)
   313     313      2.000     -18.941 au  O             1.00      1 S              13
                        (    -515.403 eV)
   314     314      2.000      -0.876 au  O             1.00      2 S              13
                        (     -23.838 eV)
   315     315       --         0.791 au  O             1.00      3 S              13
                        (      21.524 eV)
   316     316       --        13.422 au  O             1.00      4 S              13
                        (     365.226 eV)
   317     317       --       121.561 au  O             1.00      5 S              13
                        (    3307.838 eV)
   318     318      1.333      -0.331 au  O             1.00      1 P:x            13
                        (      -9.020 eV)
   319     319       --         0.347 au  O             1.00      2 P:x            13
                        (       9.437 eV)
   320     320       --         3.820 au  O             1.00      3 P:x            13
                        (     103.939 eV)
   321     321      1.333      -0.331 au  O             1.00      1 P:y            13
                        (      -9.020 eV)
   322     322       --         0.347 au  O             1.00      2 P:y            13
                        (       9.437 eV)
   323     323       --         3.820 au  O             1.00      3 P:y            13
                        (     103.939 eV)
   324     324      1.333      -0.331 au  O             1.00      1 P:z            13
                        (      -9.020 eV)
   325     325       --         0.347 au  O             1.00      2 P:z            13
                        (       9.437 eV)
   326     326       --         3.820 au  O             1.00      3 P:z            13
                        (     103.939 eV)
   327     327       --         1.071 au  O             1.00      1 D:z2           13
                        (      29.134 eV)
   328     328       --         1.071 au  O             1.00      1 D:x2-y2        13
                        (      29.134 eV)
   329     329       --         1.071 au  O             1.00      1 D:xy           13
                        (      29.134 eV)
   330     330       --         1.071 au  O             1.00      1 D:xz           13
                        (      29.134 eV)
   331     331       --         1.071 au  O             1.00      1 D:yz           13
                        (      29.134 eV)
   332     332       --         3.359 au  O             1.00      1 F:z3           13
                        (      91.410 eV)
   333     333       --         3.359 au  O             1.00      1 F:z            13
                        (      91.410 eV)
   334     334       --         3.359 au  O             1.00      1 F:xyz          13
                        (      91.410 eV)
   335     335       --         3.359 au  O             1.00      1 F:z2x          13
                        (      91.410 eV)
   336     336       --         3.359 au  O             1.00      1 F:z2y          13
                        (      91.410 eV)
   337     337       --         3.359 au  O             1.00      1 F:x            13
                        (      91.410 eV)
   338     338       --         3.359 au  O             1.00      1 F:y            13
                        (      91.410 eV)
   339     339      2.000     -18.941 au  O             1.00      1 S              14
                        (    -515.403 eV)
   340     340      2.000      -0.876 au  O             1.00      2 S              14
                        (     -23.838 eV)
   341     341       --         0.791 au  O             1.00      3 S              14
                        (      21.524 eV)
   342     342       --        13.422 au  O             1.00      4 S              14
                        (     365.226 eV)
   343     343       --       121.561 au  O             1.00      5 S              14
                        (    3307.838 eV)
   344     344      1.333      -0.331 au  O             1.00      1 P:x            14
                        (      -9.020 eV)
   345     345       --         0.347 au  O             1.00      2 P:x            14
                        (       9.437 eV)
   346     346       --         3.820 au  O             1.00      3 P:x            14
                        (     103.939 eV)
   347     347      1.333      -0.331 au  O             1.00      1 P:y            14
                        (      -9.020 eV)
   348     348       --         0.347 au  O             1.00      2 P:y            14
                        (       9.437 eV)
   349     349       --         3.820 au  O             1.00      3 P:y            14
                        (     103.939 eV)
   350     350      1.333      -0.331 au  O             1.00      1 P:z            14
                        (      -9.020 eV)
   351     351       --         0.347 au  O             1.00      2 P:z            14
                        (       9.437 eV)
   352     352       --         3.820 au  O             1.00      3 P:z            14
                        (     103.939 eV)
   353     353       --         1.071 au  O             1.00      1 D:z2           14
                        (      29.134 eV)
   354     354       --         1.071 au  O             1.00      1 D:x2-y2        14
                        (      29.134 eV)
   355     355       --         1.071 au  O             1.00      1 D:xy           14
                        (      29.134 eV)
   356     356       --         1.071 au  O             1.00      1 D:xz           14
                        (      29.134 eV)
   357     357       --         1.071 au  O             1.00      1 D:yz           14
                        (      29.134 eV)
   358     358       --         3.359 au  O             1.00      1 F:z3           14
                        (      91.410 eV)
   359     359       --         3.359 au  O             1.00      1 F:z            14
                        (      91.410 eV)
   360     360       --         3.359 au  O             1.00      1 F:xyz          14
                        (      91.410 eV)
   361     361       --         3.359 au  O             1.00      1 F:z2x          14
                        (      91.410 eV)
   362     362       --         3.359 au  O             1.00      1 F:z2y          14
                        (      91.410 eV)
   363     363       --         3.359 au  O             1.00      1 F:x            14
                        (      91.410 eV)
   364     364       --         3.359 au  O             1.00      1 F:y            14
                        (      91.410 eV)
   365     365      1.000      -0.240 au  H             1.00      1 S              15
                        (      -6.532 eV)
   366     366       --         0.088 au  H             1.00      2 S              15
                        (       2.394 eV)
   367     367       --         1.502 au  H             1.00      3 S              15
                        (      40.869 eV)
   368     368       --         0.406 au  H             1.00      1 P:x            15
                        (      11.051 eV)
   369     369       --         0.406 au  H             1.00      1 P:y            15
                        (      11.051 eV)
   370     370       --         0.406 au  H             1.00      1 P:z            15
                        (      11.051 eV)
   371     371       --         2.569 au  H             1.00      1 D:z2           15
                        (      69.917 eV)
   372     372       --         2.569 au  H             1.00      1 D:x2-y2        15
                        (      69.917 eV)
   373     373       --         2.569 au  H             1.00      1 D:xy           15
                        (      69.917 eV)
   374     374       --         2.569 au  H             1.00      1 D:xz           15
                        (      69.917 eV)
   375     375       --         2.569 au  H             1.00      1 D:yz           15
                        (      69.917 eV)
   376     376      1.000      -0.240 au  H             1.00      1 S              16
                        (      -6.532 eV)
   377     377       --         0.088 au  H             1.00      2 S              16
                        (       2.394 eV)
   378     378       --         1.502 au  H             1.00      3 S              16
                        (      40.869 eV)
   379     379       --         0.406 au  H             1.00      1 P:x            16
                        (      11.051 eV)
   380     380       --         0.406 au  H             1.00      1 P:y            16
                        (      11.051 eV)
   381     381       --         0.406 au  H             1.00      1 P:z            16
                        (      11.051 eV)
   382     382       --         2.569 au  H             1.00      1 D:z2           16
                        (      69.917 eV)
   383     383       --         2.569 au  H             1.00      1 D:x2-y2        16
                        (      69.917 eV)
   384     384       --         2.569 au  H             1.00      1 D:xy           16
                        (      69.917 eV)
   385     385       --         2.569 au  H             1.00      1 D:xz           16
                        (      69.917 eV)
   386     386       --         2.569 au  H             1.00      1 D:yz           16
                        (      69.917 eV)
   387     387      1.000      -0.240 au  H             1.00      1 S              17
                        (      -6.532 eV)
   388     388       --         0.088 au  H             1.00      2 S              17
                        (       2.394 eV)
   389     389       --         1.502 au  H             1.00      3 S              17
                        (      40.869 eV)
   390     390       --         0.406 au  H             1.00      1 P:x            17
                        (      11.051 eV)
   391     391       --         0.406 au  H             1.00      1 P:y            17
                        (      11.051 eV)
   392     392       --         0.406 au  H             1.00      1 P:z            17
                        (      11.051 eV)
   393     393       --         2.569 au  H             1.00      1 D:z2           17
                        (      69.917 eV)
   394     394       --         2.569 au  H             1.00      1 D:x2-y2        17
                        (      69.917 eV)
   395     395       --         2.569 au  H             1.00      1 D:xy           17
                        (      69.917 eV)
   396     396       --         2.569 au  H             1.00      1 D:xz           17
                        (      69.917 eV)
   397     397       --         2.569 au  H             1.00      1 D:yz           17
                        (      69.917 eV)
   398     398      1.000      -0.240 au  H             1.00      1 S              18
                        (      -6.532 eV)
   399     399       --         0.088 au  H             1.00      2 S              18
                        (       2.394 eV)
   400     400       --         1.502 au  H             1.00      3 S              18
                        (      40.869 eV)
   401     401       --         0.406 au  H             1.00      1 P:x            18
                        (      11.051 eV)
   402     402       --         0.406 au  H             1.00      1 P:y            18
                        (      11.051 eV)
   403     403       --         0.406 au  H             1.00      1 P:z            18
                        (      11.051 eV)
   404     404       --         2.569 au  H             1.00      1 D:z2           18
                        (      69.917 eV)
   405     405       --         2.569 au  H             1.00      1 D:x2-y2        18
                        (      69.917 eV)
   406     406       --         2.569 au  H             1.00      1 D:xy           18
                        (      69.917 eV)
   407     407       --         2.569 au  H             1.00      1 D:xz           18
                        (      69.917 eV)
   408     408       --         2.569 au  H             1.00      1 D:yz           18
                        (      69.917 eV)
   409     409      1.000      -0.240 au  H             1.00      1 S              19
                        (      -6.532 eV)
   410     410       --         0.088 au  H             1.00      2 S              19
                        (       2.394 eV)
   411     411       --         1.502 au  H             1.00      3 S              19
                        (      40.869 eV)
   412     412       --         0.406 au  H             1.00      1 P:x            19
                        (      11.051 eV)
   413     413       --         0.406 au  H             1.00      1 P:y            19
                        (      11.051 eV)
   414     414       --         0.406 au  H             1.00      1 P:z            19
                        (      11.051 eV)
   415     415       --         2.569 au  H             1.00      1 D:z2           19
                        (      69.917 eV)
   416     416       --         2.569 au  H             1.00      1 D:x2-y2        19
                        (      69.917 eV)
   417     417       --         2.569 au  H             1.00      1 D:xy           19
                        (      69.917 eV)
   418     418       --         2.569 au  H             1.00      1 D:xz           19
                        (      69.917 eV)
   419     419       --         2.569 au  H             1.00      1 D:yz           19
                        (      69.917 eV)
   420     420      1.000      -0.240 au  H             1.00      1 S              20
                        (      -6.532 eV)
   421     421       --         0.088 au  H             1.00      2 S              20
                        (       2.394 eV)
   422     422       --         1.502 au  H             1.00      3 S              20
                        (      40.869 eV)
   423     423       --         0.406 au  H             1.00      1 P:x            20
                        (      11.051 eV)
   424     424       --         0.406 au  H             1.00      1 P:y            20
                        (      11.051 eV)
   425     425       --         0.406 au  H             1.00      1 P:z            20
                        (      11.051 eV)
   426     426       --         2.569 au  H             1.00      1 D:z2           20
                        (      69.917 eV)
   427     427       --         2.569 au  H             1.00      1 D:x2-y2        20
                        (      69.917 eV)
   428     428       --         2.569 au  H             1.00      1 D:xy           20
                        (      69.917 eV)
   429     429       --         2.569 au  H             1.00      1 D:xz           20
                        (      69.917 eV)
   430     430       --         2.569 au  H             1.00      1 D:yz           20
                        (      69.917 eV)
   431     431      1.000      -0.240 au  H             1.00      1 S              21
                        (      -6.532 eV)
   432     432       --         0.088 au  H             1.00      2 S              21
                        (       2.394 eV)
   433     433       --         1.502 au  H             1.00      3 S              21
                        (      40.869 eV)
   434     434       --         0.406 au  H             1.00      1 P:x            21
                        (      11.051 eV)
   435     435       --         0.406 au  H             1.00      1 P:y            21
                        (      11.051 eV)
   436     436       --         0.406 au  H             1.00      1 P:z            21
                        (      11.051 eV)
   437     437       --         2.569 au  H             1.00      1 D:z2           21
                        (      69.917 eV)
   438     438       --         2.569 au  H             1.00      1 D:x2-y2        21
                        (      69.917 eV)
   439     439       --         2.569 au  H             1.00      1 D:xy           21
                        (      69.917 eV)
   440     440       --         2.569 au  H             1.00      1 D:xz           21
                        (      69.917 eV)
   441     441       --         2.569 au  H             1.00      1 D:yz           21
                        (      69.917 eV)
   442     442      1.000      -0.240 au  H             1.00      1 S              22
                        (      -6.532 eV)
   443     443       --         0.088 au  H             1.00      2 S              22
                        (       2.394 eV)
   444     444       --         1.502 au  H             1.00      3 S              22
                        (      40.869 eV)
   445     445       --         0.406 au  H             1.00      1 P:x            22
                        (      11.051 eV)
   446     446       --         0.406 au  H             1.00      1 P:y            22
                        (      11.051 eV)
   447     447       --         0.406 au  H             1.00      1 P:z            22
                        (      11.051 eV)
   448     448       --         2.569 au  H             1.00      1 D:z2           22
                        (      69.917 eV)
   449     449       --         2.569 au  H             1.00      1 D:x2-y2        22
                        (      69.917 eV)
   450     450       --         2.569 au  H             1.00      1 D:xy           22
                        (      69.917 eV)
   451     451       --         2.569 au  H             1.00      1 D:xz           22
                        (      69.917 eV)
   452     452       --         2.569 au  H             1.00      1 D:yz           22
                        (      69.917 eV)
   453     453      1.000      -0.240 au  H             1.00      1 S              23
                        (      -6.532 eV)
   454     454       --         0.088 au  H             1.00      2 S              23
                        (       2.394 eV)
   455     455       --         1.502 au  H             1.00      3 S              23
                        (      40.869 eV)
   456     456       --         0.406 au  H             1.00      1 P:x            23
                        (      11.051 eV)
   457     457       --         0.406 au  H             1.00      1 P:y            23
                        (      11.051 eV)
   458     458       --         0.406 au  H             1.00      1 P:z            23
                        (      11.051 eV)
   459     459       --         2.569 au  H             1.00      1 D:z2           23
                        (      69.917 eV)
   460     460       --         2.569 au  H             1.00      1 D:x2-y2        23
                        (      69.917 eV)
   461     461       --         2.569 au  H             1.00      1 D:xy           23
                        (      69.917 eV)
   462     462       --         2.569 au  H             1.00      1 D:xz           23
                        (      69.917 eV)
   463     463       --         2.569 au  H             1.00      1 D:yz           23
                        (      69.917 eV)



 ================================
 (Slater-type)  F U N C T I O N S  ***  (Basis and Fit)  ***
 ================================
  

 Atom Type    1  (C)
 ==============

 Valence Basis Sets:  10
 -----------------------
   1 S    7.680000
   1 S    5.000000
   2 S    1.280000
   2 S    2.100000
   2 S    4.600000
   2 P    0.820000
   2 P    1.480000
   2 P    2.940000
   3 D    2.200000
   4 F    3.300000

 Atom Type    2  (N)
 ==============

 Valence Basis Sets:  10
 -----------------------
   1 S    8.740000
   1 S    5.900000
   2 S    5.150000
   2 S    2.500000
   2 S    1.500000
   2 P    3.680000
   2 P    1.880000
   2 P    1.000000
   3 D    2.200000
   4 F    3.300000

 Atom Type    3  (O)
 ==============

 Valence Basis Sets:  10
 -----------------------
   1 S    9.800000
   1 S    6.800000
   2 S    7.580000
   2 S    2.880000
   2 S    1.720000
   2 P    4.080000
   2 P    2.080000
   2 P    1.120000
   3 D    2.000000
   4 F    3.000000

 Atom Type    4  (H)
 ==============

 Valence Basis Sets:   5
 -----------------------
   1 S    0.690000
   1 S    0.920000
   1 S    1.580000
   2 P    1.250000
   3 D    2.500000


 BAS: List of all Elementary Cartesian Basis Functions
 =====================================================

 The numbering in the list below (to the right of the function characteristics) is referred
 to in print-outs of MO eigenvectors and Mulliken populations in the BAS representation
 (as contrasted to the SFO representation).

 Notes:
 1. The functions are characterized by a polynomial prefactor (powers of x,y,z and r) and
    an exponential decay factor alpha.
 2. Since the basis sets are specific for an atom TYPE, the individual functions occur on
    all atoms of that type.
 3. The word 'Core' in the left margin signals that it is a Core Function (CF) : not a
    degree of freedom in the valence set, but only used to ensure orthogonalization of
    the other valence basis functions on the frozen Core Orbitals.


 (power of) X  Y  Z  R     Alpha  on Atom
            ==========     =====     ==========

 C                                    1    2    3    4    5    6    7
                                  ---------------------------------------------------------------------------
            0  0  0  0     7.680      1   31   61   91  121  151  181
            0  0  0  0     5.000      2   32   62   92  122  152  182
            0  0  0  1     1.280      3   33   63   93  123  153  183
            0  0  0  1     2.100      4   34   64   94  124  154  184
            0  0  0  1     4.600      5   35   65   95  125  155  185
            1  0  0  0     0.820      6   36   66   96  126  156  186
            0  1  0  0     0.820      7   37   67   97  127  157  187
            0  0  1  0     0.820      8   38   68   98  128  158  188
            1  0  0  0     1.480      9   39   69   99  129  159  189
            0  1  0  0     1.480     10   40   70  100  130  160  190
[...]
                                    1.13%     1 P:y            -5.239  0.67     1 C
                                   -1.12%     2 P:y             4.589  0.00     4 C
                                    1.01%     1 P:y            -7.062  1.00     8 N
       1.423  0.00    64 A         28.81%     1 S              -6.532  1.00    21 H
                                   24.40%     1 S              -6.532  1.00    23 H
                                  -19.78%     2 P:z             4.589  0.00     6 C
                                   15.55%     2 S               2.394  0.00    23 H
                                   11.62%     2 S               2.394  0.00    21 H
                                    9.44%     1 P:z            -5.239  0.67     6 C
                                   -8.06%     2 P:y             4.589  0.00     6 C
                                    5.13%     2 S               2.394  0.00    20 H
                                    4.58%     1 P:y            -5.239  0.67     6 C
                                    3.05%     2 P:x             4.589  0.00     6 C
                                    2.81%     3 S              40.869  0.00    21 H
                                    2.64%     2 P:x             4.589  0.00     3 C
                                    2.15%     1 S              -6.532  1.00    20 H
                                    2.09%     2 P:z             4.589  0.00     4 C
                                    1.96%     2 P:x             4.589  0.00     4 C
                                    1.92%     1 P:z            -5.239  0.67     4 C
                                   -1.89%     3 S              10.158  0.00     4 C
                                    1.80%     1 P:x            -5.239  0.67     4 C
                                    1.77%     2 P:x             7.649  0.00    10 N
                                   -1.40%     2 S             -13.620  2.00     5 C
                                   -1.39%     3 S              14.073  0.00    10 N
                                    1.33%     1 P:z            -5.239  0.67     3 C
                                    1.22%     2 S             -13.620  2.00     4 C
                                    1.22%     1 P:z            -5.239  0.67     2 C
                                    1.14%     2 P:z             4.589  0.00     2 C
                                    1.13%     1 P:x            -7.062  1.00    10 N
                                   -1.06%     3 S              10.158  0.00     5 C
                                    1.05%     1 P:x            -5.239  0.67     3 C
       1.727  0.00    65 A         25.28%     2 S               2.394  0.00    22 H
                                   21.87%     1 S              -6.532  1.00    22 H
                                   13.31%     2 S               2.394  0.00    23 H
                                    7.42%     1 S              -6.532  1.00    23 H
                                    6.88%     1 P:y            -5.239  0.67     5 C
                                    5.83%     1 P:y            -5.239  0.67     4 C
                                   -5.04%     2 P:z             4.589  0.00     6 C
                                   -4.95%     2 P:y             4.589  0.00     6 C
                                    2.87%     1 P:y            -7.062  1.00    10 N
                                    2.80%     1 P:y            -5.239  0.67     7 C
                                    2.45%     1 P:x            -5.239  0.67     4 C
                                    1.93%     1 P:y            -9.020  1.33    12 O
                                    1.86%     1 P:z            -5.239  0.67     6 C
                                    1.81%     1 S              -6.532  1.00    21 H
                                    1.71%     3 S              40.869  0.00    22 H
                                    1.59%     1 P:x            -5.239  0.67     6 C
                                   -1.23%     2 P:x             4.589  0.00     6 C
                                    1.13%     2 P:x             4.589  0.00     4 C
                                    1.13%     2 P:y             7.649  0.00    10 N
                                    1.07%     3 S              40.869  0.00    23 H
                                    1.07%     1 P:y            -9.020  1.33    13 O
                                    1.03%     2 P:y             4.589  0.00     7 C



 =======================================================================
 Electrostatic potential at the Nuclei due to electrons and other nuclei
 =======================================================================
  
         Atom                  Potential
         ----                  ---------
     1)   C                  14.73044577
     2)   N                  18.35513595
     3)   C                  14.66192582
     4)   O                  22.41271647
     5)   C                  14.65664961
     6)   N                  18.30223599
     7)   C                  14.72506592
     8)   C                  14.68397166
     9)   O                  22.43488208
    10)   N                  18.38073507
    11)   C                  14.74836387
    12)   C                  14.65662168
    13)   O                  22.40917878
    14)   O                  22.30027695
    15)   H                   1.08818516
    16)   H                   1.07902757
    17)   H                   1.08944750
    18)   H                   0.98460331
    19)   H                   0.94664613
    20)   H                   1.01227428
    21)   H                   1.09714130
    22)   H                   1.10668066
    23)   H                   1.10658099
 Mulliken charges used for AMS results%charges...


    =====================
     CALCULATION RESULTS
    =====================

Energy (hartree)            -5.19971472


--------------
Atomic charges
--------------
  Index   Atom    Charge
      1      C    0.7806
      2      N   -0.1164
      3      C    0.5604
      4      O   -0.5911
      5      C    0.3537
      6      N    0.0419
      7      C   -0.0284
      8      C    0.5679
      9      O   -0.6184
     10      N   -0.1245
     11      C    0.7843
     12      C    0.6398
     13      O   -0.5779
     14      O   -0.4998
     15      H   -0.1673
     16      H   -0.2222
     17      H   -0.1701
     18      H   -0.0223
     19      H    0.0029
     20      H   -0.0092
     21      H   -0.2291
     22      H   -0.1757
     23      H   -0.1793


Dipole moment vector    (Debye):    -2.22699395    0.89499918    2.15788575
              magnitude (Debye):     3.22753722


-----------------------
Molecular orbitals info
-----------------------
n orbitals:              463
n spin:                    1

Note: only printing virtual orbitals with
      energy smaller than HOMO + 100. eV

HOMO (eV):              -5.5129
LUMO (eV):              -3.6284
HOMO-LUMO gap (eV):      1.8844

   Index   Energy (eV)    Occupation
     290       94.1041         0.000       
     289       94.0266         0.000       
     288       93.7910         0.000       
     287       93.4810         0.000       
     286       93.4195         0.000       
     285       93.0648         0.000       
     284       92.8747         0.000       
     283       92.5782         0.000       
     282       92.0534         0.000       
     281       91.7924         0.000       
     280       91.6047         0.000       
     279       90.8880         0.000       
     278       90.5328         0.000       
     277       90.3887         0.000       
     276       89.5596         0.000       
     275       88.9156         0.000       
     274       88.6159         0.000       
     273       87.5113         0.000       
     272       86.9472         0.000       
     271       85.7768         0.000       
     270       84.9918         0.000       
     269       84.7279         0.000       
     268       83.8544         0.000       
     267       83.2361         0.000       
     266       82.9598         0.000       
     265       82.4677         0.000       
     264       82.3368         0.000       
     263       81.6621         0.000       
     262       80.5543         0.000       
     261       80.0922         0.000       
     260       79.6301         0.000       
     259       78.8790         0.000       
     258       78.3617         0.000       
     257       78.1764         0.000       
     256       77.9166         0.000       
     255       77.6435         0.000       
     254       77.0911         0.000       
     253       76.9055         0.000       
     252       76.4517         0.000       
     251       76.2135         0.000       
     250       75.7232         0.000       
     249       75.6225         0.000       
     248       75.2759         0.000       
     247       75.2437         0.000       
     246       74.2734         0.000       
     245       73.8736         0.000       
     244       73.5992         0.000       
     243       72.8466         0.000       
     242       71.4749         0.000       
     241       70.4385         0.000       
     240       69.3164         0.000       
     239       68.5774         0.000       
     238       68.0724         0.000       
     237       66.9541         0.000       
     236       66.5071         0.000       
     235       66.3309         0.000       
     234       65.7324         0.000       
     233       64.8546         0.000       
     232       64.6258         0.000       
     231       63.5695         0.000       
     230       63.1966         0.000       
     229       62.5079         0.000       
     228       62.3167         0.000       
     227       61.4899         0.000       
     226       61.3638         0.000       
     225       60.9600         0.000       
     224       60.1540         0.000       
     223       59.8279         0.000       
     222       58.4400         0.000       
     221       58.3666         0.000       
     220       57.8204         0.000       
     219       57.1869         0.000       
     218       56.8642         0.000       
     217       56.3606         0.000       
     216       55.7907         0.000       
     215       55.4584         0.000       
     214       54.9856         0.000       
     213       54.9197         0.000       
     212       54.3858         0.000       
     211       54.0866         0.000       
     210       53.6020         0.000       
     209       52.7454         0.000       
     208       52.3006         0.000       
     207       51.6927         0.000       
     206       51.2185         0.000       
     205       50.9221         0.000       
     204       50.2427         0.000       
     203       49.6272         0.000       
     202       48.9339         0.000       
     201       48.5487         0.000       
     200       47.6493         0.000       
     199       47.4625         0.000       
     198       46.9062         0.000       
     197       46.7216         0.000       
     196       46.5416         0.000       
     195       46.2342         0.000       
     194       45.3727         0.000       
     193       45.2518         0.000       
     192       45.0243         0.000       
     191       44.2310         0.000       
     190       44.0668         0.000       
     189       43.1622         0.000       
     188       42.8105         0.000       
     187       42.0718         0.000       
     186       41.6335         0.000       
     185       41.0232         0.000       
     184       40.5758         0.000       
     183       40.3069         0.000       
     182       39.6351         0.000       
     181       39.3612         0.000       
     180       39.2203         0.000       
     179       38.8734         0.000       
     178       38.5435         0.000       
     177       38.4735         0.000       
     176       37.5706         0.000       
     175       37.4785         0.000       
     174       37.1979         0.000       
     173       36.5792         0.000       
     172       36.0647         0.000       
     171       35.7822         0.000       
     170       35.5296         0.000       
     169       35.4349         0.000       
     168       35.0896         0.000       
     167       34.9009         0.000       
     166       33.7725         0.000       
     165       33.6326         0.000       
     164       33.1347         0.000       
     163       32.7206         0.000       
     162       32.6275         0.000       
     161       32.1680         0.000       
     160       31.9286         0.000       
     159       31.3899         0.000       
     158       30.6066         0.000       
     157       30.1178         0.000       
     156       29.4786         0.000       
     155       29.3206         0.000       
     154       28.7208         0.000       
     153       28.3939         0.000       
     152       28.1994         0.000       
     151       28.0497         0.000       
     150       27.7371         0.000       
     149       27.2729         0.000       
     148       26.7636         0.000       
     147       26.6866         0.000       
     146       26.5011         0.000       
     145       26.2316         0.000       
     144       25.7178         0.000       
     143       25.5176         0.000       
     142       25.3788         0.000       
     141       25.1650         0.000       
     140       24.9967         0.000       
     139       24.7300         0.000       
     138       23.7732         0.000       
     137       23.5590         0.000       
     136       23.4374         0.000       
     135       22.6176         0.000       
     134       22.4175         0.000       
     133       22.1951         0.000       
     132       21.8287         0.000       
     131       21.6517         0.000       
     130       21.2532         0.000       
     129       20.1901         0.000       
     128       19.9220         0.000       
     127       18.7941         0.000       
     126       18.2197         0.000       
     125       17.8925         0.000       
     124       17.5322         0.000       
     123       17.1252         0.000       
     122       16.8666         0.000       
     121       16.2161         0.000       
     120       16.0014         0.000       
     119       15.8950         0.000       
     118       15.7484         0.000       
     117       14.9096         0.000       
     116       14.5817         0.000       
     115       14.2386         0.000       
     114       13.9390         0.000       
     113       13.6832         0.000       
     112       13.2823         0.000       
     111       13.0249         0.000       
     110       12.6292         0.000       
     109       12.2706         0.000       
     108       11.8453         0.000       
     107       11.6137         0.000       
     106       11.3861         0.000       
     105       11.2146         0.000       
     104       10.7334         0.000       
     103       10.4692         0.000       
     102       10.0992         0.000       
     101        9.9547         0.000       
     100        9.8480         0.000       
      99        9.7013         0.000       
      98        9.4389         0.000       
      97        9.3054         0.000       
      96        9.0137         0.000       
      95        8.8712         0.000       
      94        8.5690         0.000       
      93        8.3038         0.000       
      92        8.0544         0.000       
      91        7.8223         0.000       
      90        7.7599         0.000       
      89        7.5891         0.000       
      88        7.1640         0.000       
      87        6.9150         0.000       
      86        6.8332         0.000       
      85        6.6751         0.000       
      84        6.1976         0.000       
      83        5.8687         0.000       
      82        5.7587         0.000       
      81        5.4531         0.000       
      80        5.3245         0.000       
      79        5.1525         0.000       
      78        4.9642         0.000       
      77        4.8389         0.000       
      76        4.3852         0.000       
      75        4.2680         0.000       
      74        4.0246         0.000       
      73        3.8038         0.000       
      72        3.6102         0.000       
      71        3.3840         0.000       
      70        2.9341         0.000       
      69        2.8177         0.000       
      68        2.7955         0.000       
      67        2.2798         0.000       
      66        2.0690         0.000       
      65        1.7268         0.000       
      64        1.4228         0.000       
      63        1.2907         0.000       
      62        1.2370         0.000       
      61        1.0779         0.000       
      60        0.7174         0.000       
      59        0.1797         0.000       
      58        0.0974         0.000       
      57       -0.1277         0.000       
      56       -0.3635         0.000       
      55       -0.8222         0.000       
      54       -1.0815         0.000       
      53       -3.6284         0.000 < LUMO
      52       -5.5129         2.000 < HOMO
      51       -6.0757         2.000       
      50       -6.2408         2.000       
      49       -6.6342         2.000       
      48       -6.8330         2.000       
      47       -7.0543         2.000       
      46       -8.6817         2.000       
      45       -9.2955         2.000       
      44       -9.6209         2.000       
      43       -9.8566         2.000       
      42      -10.0134         2.000       
      41      -10.1333         2.000       
      40      -10.1886         2.000       
      39      -10.6003         2.000       
      38      -10.6257         2.000       
      37      -11.0193         2.000       
      36      -11.1581         2.000       
      35      -11.3884         2.000       
      34      -11.6503         2.000       
      33      -12.0270         2.000       
      32      -12.8603         2.000       
      31      -13.2174         2.000       
      30      -13.5323         2.000       
      29      -14.4765         2.000       
      28      -15.0254         2.000       
      27      -15.4771         2.000       
      26      -16.2245         2.000       
      25      -17.0970         2.000       
      24      -17.7456         2.000       
      23      -18.6263         2.000       
      22      -19.9584         2.000       
      21      -23.0918         2.000       
      20      -23.7484         2.000       
      19      -24.9533         2.000       
      18      -25.8777         2.000       
      17      -26.0061         2.000       
      16      -26.4635         2.000       
      15      -29.2294         2.000       
      14     -270.9743         2.000       
      13     -271.4646         2.000       
      12     -271.7317         2.000       
      11     -272.8283         2.000       
      10     -273.4375         2.000       
       9     -273.6163         2.000       
       8     -273.6190         2.000       
       7     -382.4271         2.000       
       6     -383.1214         2.000       
       5     -384.6800         2.000       
       4     -510.5272         2.000       
       3     -511.1409         2.000       
       2     -511.2278         2.000       
       1     -514.1851         2.000       

AMS application finished. Exiting.
NORMAL TERMINATION
     Total cpu time:     122.61
  Total system time:       0.92
 Total elapsed time:     124.28
NORMAL TERMINATION
