
 *******************************************************************************
 *                                                                             *
 *  --------------------------------                                           *
 *   Amsterdam Modeling Suite (AMS)              2026.103                      *
 *  --------------------------------                                           *
 *                                               r260501 2026-05-01 873454b5   *
 *                                                                             *
 *                                                                             *
 *                              =================                              *
 *                              |               |                              *
 *                              |     A M S     |                              *
 *                              |               |                              *
 *                              =================                              *
 *                                                                             *
 *                                                                             *
 *   Online information and documentation:  https://www.scm.com/support/       *
 *   E-mail:  support@scm.com   info@scm.com                                   *
 *                                                                             *
 *   Scientific publications using AMS results must be properly referenced     *
 *   See the User Manuals (or the web site) for recommended citations          *
 *   The terms and conditions of the End User License Agreement apply to       *
 *   the use of AMS, https://www.scm.com/license-terms/                        *
 *                                                                             *
 **********************  x86_64_linux_intel / intelmpi  ************************
 
 Licensed to: Jong-June Jeon / University of Seoul 2026-05-13 16:10:32
 SCM User ID: u30731
  
 AMS 2026.103  RunTime: May30-2026 07:44:32  ShM Nodes: 1  Procs: 1

 AMS jobname: c4_fragA_opt
 AMS jobid  : 2135860085

 Start   directory: /gpfs/home1/yeseo1ee/projects/eda-asm-prediction/adf_outputs/batch_000/dipolar_000696/
 Results directory: /gpfs/home1/yeseo1ee/projects/eda-asm-prediction/adf_outputs/batch_000/dipolar_000696/c4_fragA_opt.results/
 Scratch directory: /tmp/amstmp_c4_fragA_opt_kid0.2135860085/

 RNG seed: -1681793984 -1194034321 124397040 1356497737 363453934 -149020481 -1731161305 -1113780232



                      ************************************************************************
                      *  ADF 2026.103  RunTime: May30-2026 07:44:33  ShM Nodes: 1  Procs: 1  *
                      ************************************************************************
  

       ***************************
       *  GEOMETRY OPTIMIZATION  *
       ***************************

Optimization Method                    Quasi Newton
Optimization Coordinates               Delocalized Coordinates
Optimize lattice                       F
 
 ------------------------------------------------------
 Convergence criteria (Hartree,Angstrom)
 ------------------------------------------------------
 Maximum gradient               0.000100000000
 Maximum rms gradient           0.000066666667
 Maximum step allowed           0.010000000000
 Maximum rms step allowed       0.006666666667
 Maximum energy change allowe   0.000160000000
 Maximum stress energy allowe   0.000500000000
 
Initial model Hessian                  Automatic Hessian
 
------------------------------------
Quasi-Newton Optimizer Parameters
------------------------------------
Hessian Update Method                  BFGS
Maximum number of steps                  200
First GDIIS cycle                          0
Maximum GDIIS vectors                      0
Trust radius (bohr)                        0.200000
Trust radius varies                        T
Constraints converged at all steps         T
Use projector                              T
 
 Rigid motions settings for: old optimizer
 Atomic rotations (x,y,z):     T T T
 Atomic translations (x,y,z):  T T T
 Tolerance:                  1.000000000000000E-006

--------
Geometry
--------
Formula: C7H8O
Atoms
  Index Symbol   x (angstrom)   y (angstrom)   z (angstrom)
      1      C     0.21165000    -1.29134000     0.72209000
      2      C     0.53822000    -2.09192000    -0.55488000
      3      C    -0.33052000    -3.36146000    -0.49414000
      4      C    -1.59037000    -2.93962000    -0.68133000
      5      C    -2.89426000    -3.65048000    -0.64731000
      6      C    -1.46325000    -1.40748000    -0.86183000
      7      O    -0.19251000    -1.32126000    -1.53373000
      8      C    -1.08060000    -0.81508000     0.51442000
      9      H     0.70182000    -1.46380000     1.67901000
     10      H     1.59072000    -2.20521000    -0.83374000
     11      H     0.03124000    -4.36330000    -0.26388000
     12      H    -3.45188000    -3.50148000    -1.58806000
     13      H    -2.76817000    -4.72977000    -0.47849000
     14      H    -3.53012000    -3.24292000     0.15914000
     15      H    -2.25503000    -0.90207000    -1.42481000
     16      H    -1.81284000    -0.64149000     1.30314000

Total System Charge              0.00000


----------------
ADF Engine Input
----------------
 
   Basis
     Type TZ2P
     Core None
   End
   XC
     GGA BLYP
     Dispersion GRIMME3 BJDAMP
   End
   Symmetry NOSYM
   NumericalQuality Normal
   Unrestricted No
   SCF
     Iterations 200
     Converge 1.0e-6
   End
   Save TAPE21
 

 Title: *** (NO TITLE) ***

 Using automatic Hessian for delocalized coordinates.
 *** GO1_GOStep1 ***

 Energy gradients wrt nuclear displacements
 ==========================================

     Atom      Cartesian (a.u./angstrom)
                 X         Y         Z
 ----------------------------------------
     1 C     0.081117 -0.016370 -0.001892
     2 C    -0.022460 -0.008639 -0.004632
     3 C     0.014316  0.019515  0.000807
     4 C    -0.009142  0.019425 -0.002963
     5 C     0.006718  0.003608  0.000233
     6 C     0.010184 -0.028073  0.000988
     7 O    -0.009198 -0.010620  0.029074
     8 C    -0.063991  0.059965 -0.032320
     9 H    -0.003365 -0.014680  0.003831
    10 H     0.004102 -0.000190  0.000499
    11 H     0.002327 -0.006010  0.002005
    12 H    -0.001474  0.001675 -0.003218
    13 H     0.001320 -0.004687  0.001022
    14 H    -0.001017  0.002249  0.001879
    15 H    -0.002854  0.002742  0.000556
    16 H    -0.006583 -0.019908  0.004130
 ----------------------------------------
 
----------------------------------------------------------------------
Geometry Convergence after Step   1       (Hartree/Angstrom,Angstrom)
----------------------------------------------------------------------
current energy                               -3.38292752 Hartree
energy change                      -3.38292752     0.00016000    F
constrained gradient max            0.08110581     0.00010000    F
constrained gradient rms            0.02044494     0.00006667    F
gradient max                        0.08110581
gradient rms                        0.02044494
cart. step max                      0.05026154     0.01000000    F
cart. step rms                      0.01336394     0.00666667    F
 

--------
Geometry
--------
Formula: C7H8O
Atoms
  Index Symbol   x (angstrom)   y (angstrom)   z (angstrom)
      1      C     0.19633193    -1.28958877     0.72758891
      2      C     0.53568945    -2.09325290    -0.55117856
      3      C    -0.33589648    -3.37331949    -0.50017235
      4      C    -1.59355104    -2.95054406    -0.68526723
      5      C    -2.90116140    -3.66111397    -0.65419737
      6      C    -1.45850783    -1.40756321    -0.85705901
      7      O    -0.18811596    -1.32256805    -1.54465672
      8      C    -1.06601239    -0.83499836     0.52975889
      9      H     0.70003859    -1.41353846     1.68258205
     10      H     1.58709108    -2.19942167    -0.82935854
     11      H     0.02449083    -4.37289055    -0.27396551
     12      H    -3.45941311    -3.50940365    -1.59189775
     13      H    -2.77709717    -4.73914642    -0.49226718
     14      H    -3.53717638    -3.26098852     0.15392009
     15      H    -2.24445545    -0.89421728    -1.41802624
     16      H    -1.77815467    -0.60612462     1.31979650

Total System Charge              0.00000

 *** GO1_GOStep2 ***

 Energy gradients wrt nuclear displacements
 ==========================================

     Atom      Cartesian (a.u./angstrom)
                 X         Y         Z
 ----------------------------------------
     1 C     0.033778 -0.000325 -0.004878
     2 C    -0.020971 -0.003635 -0.000461
     3 C     0.008743  0.008592  0.000554
     4 C    -0.005861  0.010711 -0.001312
     5 C     0.003981  0.000704  0.000285
     6 C     0.012368 -0.020704  0.004531
     7 O    -0.003337 -0.005885  0.010421
     8 C    -0.020714  0.036870 -0.018433
     9 H    -0.006119 -0.010270  0.003713
    10 H     0.001708  0.001279 -0.000922
    11 H     0.000376 -0.002352  0.001259
    12 H    -0.000895  0.000830 -0.001303
    13 H     0.000226 -0.001817  0.000418
    14 H    -0.000786  0.001157  0.000825
    15 H    -0.000300  0.002225 -0.000682
    16 H    -0.002199 -0.017380  0.005986
 ----------------------------------------

 dE(predicted):    -0.42441E-02, dE(actual):    -0.47877E-02, Trust radius:    0.400000, all in a.u.
 
----------------------------------------------------------------------
Geometry Convergence after Step   2       (Hartree/Angstrom,Angstrom)
----------------------------------------------------------------------
current energy                               -3.38771522 Hartree
energy change                      -0.00478770     0.00016000    F
constrained gradient max            0.03686167     0.00010000    F
constrained gradient rms            0.01055500     0.00006667    F
gradient max                        0.03686167
gradient rms                        0.01055500
cart. step max                      0.09747745     0.01000000    F
cart. step rms                      0.02401949     0.00666667    F
 

--------
Geometry
--------
Formula: C7H8O
Atoms
  Index Symbol   x (angstrom)   y (angstrom)   z (angstrom)
      1      C     0.18675841    -1.30091155     0.74243287
      2      C     0.54047154    -2.10593277    -0.53882418
      3      C    -0.34408712    -3.38990865    -0.50577102
      4      C    -1.60107302    -2.96464856    -0.68781557
      5      C    -2.90984641    -3.67891795    -0.67040710
      6      C    -1.47141651    -1.40808789    -0.84169220
      7      O    -0.19213430    -1.32470598    -1.52932830
      8      C    -1.05843304    -0.86170955     0.55452690
      9      H     0.73703877    -1.33321540     1.67717689
     10      H     1.58972235    -2.20567700    -0.82062567
     11      H     0.01448823    -4.39126822    -0.29757234
     12      H    -3.46516983    -3.51834570    -1.60638246
     13      H    -2.78235267    -4.75687045    -0.52430237
     14      H    -3.54909313    -3.29570085     0.14136535
     15      H    -2.25041329    -0.88413232    -1.39942159
     16      H    -1.74035998    -0.50864717     1.32224080

Total System Charge              0.00000

 *** GO1_GOStep3 ***

 Energy gradients wrt nuclear displacements
 ==========================================

     Atom      Cartesian (a.u./angstrom)
                 X         Y         Z
 ----------------------------------------
     1 C    -0.003693  0.008367 -0.007223
     2 C     0.000823 -0.002475  0.000176
     3 C     0.004070 -0.000737  0.001429
     4 C    -0.002966  0.002598  0.000386
     5 C     0.000819 -0.000384 -0.000222
     6 C    -0.003402 -0.003904 -0.001234
     7 O    -0.002722 -0.004936  0.008970
     8 C     0.012058  0.012225 -0.008037
     9 H    -0.005451 -0.005012  0.002957
    10 H     0.000524  0.001532 -0.001509
    11 H    -0.000341  0.000750  0.000144
    12 H    -0.000270  0.000052  0.000302
    13 H    -0.000167  0.000614 -0.000010
    14 H    -0.000280  0.000195 -0.000104
    15 H     0.000843  0.001740 -0.001604
    16 H     0.000155 -0.010625  0.005579
 ----------------------------------------

 dE(predicted):    -0.35937E-02, dE(actual):    -0.36176E-02, Trust radius:    0.800000, all in a.u.
 
----------------------------------------------------------------------
Geometry Convergence after Step   3       (Hartree/Angstrom,Angstrom)
----------------------------------------------------------------------
current energy                               -3.39133279 Hartree
energy change                      -0.00361757     0.00016000    F
constrained gradient max            0.01222530     0.00010000    F
constrained gradient rms            0.00432676     0.00006667    F
gradient max                        0.01222530
gradient rms                        0.00432676
cart. step max                      0.12824321     0.01000000    F
cart. step rms                      0.02982906     0.00666667    F
 

--------
Geometry
--------
Formula: C7H8O
Atoms
  Index Symbol   x (angstrom)   y (angstrom)   z (angstrom)
      1      C     0.18294460    -1.32341585     0.77138410
      2      C     0.53060981    -2.11742923    -0.52334987
      3      C    -0.35406509    -3.40702645    -0.51530269
      4      C    -1.60766502    -2.98078041    -0.69039895
      5      C    -2.91645150    -3.69782635    -0.68917841
      6      C    -1.47527822    -1.41608312    -0.81638678
      7      O    -0.19639183    -1.32057648    -1.51397997
      8      C    -1.06436219    -0.88529559     0.58969730
      9      H     0.80136389    -1.25106919     1.65952274
     10      H     1.57907477    -2.21752409    -0.80272922
     11      H     0.00648591    -4.41149549    -0.32755045
     12      H    -3.46909067    -3.51995140    -1.62301812
     13      H    -2.78581195    -4.77815262    -0.56612017
     14      H    -3.55687449    -3.33478948     0.13000404
     15      H    -2.25615882    -0.88686027    -1.36330564
     16      H    -1.71422920    -0.38040397     1.29631210

Total System Charge              0.00000

 *** GO1_GOStep4 ***

 Energy gradients wrt nuclear displacements
 ==========================================

     Atom      Cartesian (a.u./angstrom)
                 X         Y         Z
 ----------------------------------------
     1 C    -0.001881  0.001076 -0.001058
     2 C     0.001862  0.002928  0.000669
     3 C    -0.003227 -0.004293  0.000265
     4 C     0.001837 -0.004346  0.001362
     5 C    -0.000498 -0.001116 -0.000121
     6 C    -0.000727  0.002512 -0.000719
     7 O    -0.000011 -0.000495 -0.001928
     8 C     0.004142  0.002958  0.000358
     9 H    -0.002256  0.000009  0.001818
    10 H    -0.001292  0.001117 -0.001768
    11 H    -0.000825  0.000928 -0.000219
    12 H     0.000211 -0.000183  0.000542
    13 H    -0.000379  0.000843 -0.000173
    14 H     0.000070 -0.000191 -0.000313
    15 H     0.002287  0.000288 -0.001373
    16 H     0.000687 -0.002036  0.002657
 ----------------------------------------

 dE(predicted):    -0.17060E-02, dE(actual):    -0.19996E-02, Trust radius:    0.800000, all in a.u.
 
----------------------------------------------------------------------
Geometry Convergence after Step   4       (Hartree/Angstrom,Angstrom)
----------------------------------------------------------------------
current energy                               -3.39333240 Hartree
energy change                      -0.00199961     0.00016000    F
constrained gradient max            0.00435263     0.00010000    F
constrained gradient rms            0.00174692     0.00006667    F
gradient max                        0.00435263
gradient rms                        0.00174692
cart. step max                      0.02891308     0.01000000    F
cart. step rms                      0.00901912     0.00666667    F
 

--------
Geometry
--------
Formula: C7H8O
Atoms
  Index Symbol   x (angstrom)   y (angstrom)   z (angstrom)
      1      C     0.18309679    -1.32926415     0.77762593
      2      C     0.52907723    -2.12246168    -0.51749235
      3      C    -0.35490411    -3.40957080    -0.51860104
      4      C    -1.60883385    -2.98348924    -0.69443219
      5      C    -2.91763688    -3.69980588    -0.69504772
      6      C    -1.47869172    -1.42017181    -0.80893241
      7      O    -0.19761937    -1.31783810    -1.50366442
      8      C    -1.06904909    -0.89602441     0.59873971
      9      H     0.82542658    -1.22874408     1.64552411
     10      H     1.57959610    -2.22557134    -0.78963053
     11      H     0.00706213    -4.41499570    -0.33456205
     12      H    -3.47103695    -3.51767246    -1.62800118
     13      H    -2.78610157    -4.78107197    -0.57641702
     14      H    -3.55665628    -3.33998040     0.12684090
     15      H    -2.26636429    -0.89052707    -1.34630303
     16      H    -1.71326472    -0.35149089     1.27995330

Total System Charge              0.00000

 *** GO1_GOStep5 ***

 Energy gradients wrt nuclear displacements
 ==========================================

     Atom      Cartesian (a.u./angstrom)
                 X         Y         Z
 ----------------------------------------
     1 C     0.002232 -0.001047 -0.000923
     2 C     0.003175  0.002528  0.000156
     3 C    -0.002927 -0.002661  0.000098
     4 C     0.001262 -0.003919  0.000440
     5 C    -0.000514 -0.000157  0.000071
     6 C    -0.001468  0.004431 -0.001777
     7 O    -0.000221 -0.000374  0.001593
     8 C    -0.001356  0.000309  0.000633
     9 H    -0.000405  0.000558  0.000480
    10 H    -0.000505  0.000142 -0.000637
    11 H    -0.000259  0.000263 -0.000080
    12 H     0.000145 -0.000028  0.000169
    13 H    -0.000019  0.000273 -0.000048
    14 H     0.000041 -0.000101 -0.000137
    15 H     0.000744 -0.000162 -0.000446
    16 H     0.000075 -0.000055  0.000408
 ----------------------------------------

 dE(predicted):    -0.17618E-03, dE(actual):    -0.18917E-03, Trust radius:    0.800000, all in a.u.
 
----------------------------------------------------------------------
Geometry Convergence after Step   5       (Hartree/Angstrom,Angstrom)
----------------------------------------------------------------------
current energy                               -3.39352156 Hartree
energy change                      -0.00018917     0.00016000    F
constrained gradient max            0.00442339     0.00010000    F
constrained gradient rms            0.00136294     0.00006667    F
gradient max                        0.00442339
gradient rms                        0.00136294
cart. step max                      0.00931294     0.01000000    T
cart. step rms                      0.00278837     0.00666667    T
 

--------
Geometry
--------
Formula: C7H8O
Atoms
  Index Symbol   x (angstrom)   y (angstrom)   z (angstrom)
      1      C     0.17972942    -1.33272207     0.77994361
      2      C     0.52735740    -2.12270730    -0.51683944
      3      C    -0.35325187    -3.40897253    -0.52221552
      4      C    -1.60816884    -2.98303070    -0.69527549
      5      C    -2.91680364    -3.69915711    -0.69440519
      6      C    -1.47818126    -1.42227492    -0.80809894
      7      O    -0.19781364    -1.31808910    -1.50492679
      8      C    -1.06978504    -0.89553315     0.59802329
      9      H     0.82554023    -1.23366281     1.64524869
     10      H     1.57962730    -2.22609485    -0.78317307
     11      H     0.01028034    -4.41435946    -0.33919052
     12      H    -3.47239245    -3.51540110    -1.62596988
     13      H    -2.78521428    -4.78084332    -0.57746681
     14      H    -3.55378603    -3.34010810     0.12957490
     15      H    -2.26938376    -0.89354551    -1.34178006
     16      H    -1.71365388    -0.34217795     1.27215121

Total System Charge              0.00000

 *** GO1_GOStep6 ***

 Energy gradients wrt nuclear displacements
 ==========================================

     Atom      Cartesian (a.u./angstrom)
                 X         Y         Z
 ----------------------------------------
     1 C     0.000608 -0.001539 -0.000128
     2 C     0.001135  0.003160  0.000353
     3 C    -0.001525 -0.001349 -0.000653
     4 C     0.000450 -0.002326  0.000339
     5 C    -0.000307  0.000122  0.000143
     6 C     0.000529  0.002353 -0.000382
     7 O    -0.000388 -0.000813  0.000217
     8 C    -0.000665  0.000369  0.000203
     9 H    -0.000105  0.000169  0.000161
    10 H    -0.000157 -0.000251 -0.000131
    11 H     0.000027 -0.000013  0.000018
    12 H     0.000067  0.000039 -0.000005
    13 H     0.000042 -0.000022 -0.000008
    14 H     0.000032 -0.000016 -0.000049
    15 H     0.000152 -0.000187  0.000065
    16 H     0.000105  0.000305 -0.000141
 ----------------------------------------

 dE(predicted):    -0.24128E-04, dE(actual):    -0.29792E-04, Trust radius:    0.800000, all in a.u.
 
----------------------------------------------------------------------
Geometry Convergence after Step   6       (Hartree/Angstrom,Angstrom)
----------------------------------------------------------------------
current energy                               -3.39355136 Hartree
energy change                      -0.00002979     0.00016000    T
constrained gradient max            0.00317117     0.00010000    F
constrained gradient rms            0.00082135     0.00006667    F
gradient max                        0.00317117
gradient rms                        0.00082135
cart. step max                      0.00575651     0.01000000    T
cart. step rms                      0.00227445     0.00666667    T
 

--------
Geometry
--------
Formula: C7H8O
Atoms
  Index Symbol   x (angstrom)   y (angstrom)   z (angstrom)
      1      C     0.18174507    -1.32943648     0.77790434
      2      C     0.52622655    -2.12381128    -0.51717044
      3      C    -0.35354679    -3.40792496    -0.51814565
      4      C    -1.60851050    -2.98218571    -0.69505265
      5      C    -2.91686032    -3.69846694    -0.69676423
      6      C    -1.47851564    -1.42391809    -0.80666178
      7      O    -0.19871795    -1.31830658    -1.50525145
      8      C    -1.06941535    -0.89728918     0.59889749
      9      H     0.83129674    -1.22986960     1.64024895
     10      H     1.57883749    -2.22823019    -0.78255825
     11      H     0.00997900    -4.41321486    -0.33378022
     12      H    -3.47114714    -3.51464854    -1.62923419
     13      H    -2.78567126    -4.78025006    -0.57947908
     14      H    -3.55523085    -3.33921146     0.12619991
     15      H    -2.27177470    -0.89501360    -1.33768825
     16      H    -1.71459433    -0.34690246     1.27413550

Total System Charge              0.00000

 *** GO1_GOStep7 ***

 Energy gradients wrt nuclear displacements
 ==========================================

     Atom      Cartesian (a.u./angstrom)
                 X         Y         Z
 ----------------------------------------
     1 C     0.000250 -0.000173 -0.000684
     2 C    -0.000646  0.001578  0.000042
     3 C    -0.000566 -0.000388  0.000370
     4 C    -0.000261 -0.000851 -0.000393
     5 C     0.000009  0.000231 -0.000088
     6 C     0.001464  0.001043  0.000424
     7 O    -0.000029 -0.000151  0.000265
     8 C    -0.000362 -0.000644 -0.000134
     9 H     0.000175 -0.000065 -0.000129
    10 H     0.000094 -0.000244  0.000195
    11 H     0.000116 -0.000166  0.000098
    12 H    -0.000079  0.000044 -0.000095
    13 H     0.000028 -0.000144  0.000015
    14 H     0.000045  0.000073  0.000040
    15 H    -0.000261 -0.000184  0.000184
    16 H     0.000021  0.000041 -0.000108
 ----------------------------------------

 dE(predicted):    -0.10370E-04, dE(actual):    -0.11543E-04, Trust radius:    0.800000, all in a.u.
 
----------------------------------------------------------------------
Geometry Convergence after Step   7       (Hartree/Angstrom,Angstrom)
----------------------------------------------------------------------
current energy                               -3.39356290 Hartree
energy change                      -0.00001154     0.00016000    T
constrained gradient max            0.00158885     0.00010000    F
constrained gradient rms            0.00044613     0.00006667    F
gradient max                        0.00158885
gradient rms                        0.00044613
cart. step max                      0.00356157     0.01000000    T
cart. step rms                      0.00118866     0.00666667    T
 

--------
Geometry
--------
Formula: C7H8O
Atoms
  Index Symbol   x (angstrom)   y (angstrom)   z (angstrom)
      1      C     0.18060086    -1.32998019     0.77828333
      2      C     0.52668625    -2.12453301    -0.51687286
      3      C    -0.35299680    -3.40777120    -0.51987443
      4      C    -1.60826295    -2.98139822    -0.69446922
      5      C    -2.91641075    -3.69808469    -0.69516987
      6      C    -1.47865585    -1.42394656    -0.80775430
      7      O    -0.19788826    -1.31839261    -1.50502037
      8      C    -1.06965694    -0.89604114     0.59750418
      9      H     0.82827604    -1.23213938     1.64223858
     10      H     1.57946522    -2.22785718    -0.78203383
     11      H     0.01016179    -4.41343031    -0.33734179
     12      H    -3.47156217    -3.51409418    -1.62704911
     13      H    -2.78494854    -4.77981867    -0.57846324
     14      H    -3.55435297    -3.33939476     0.12839084
     15      H    -2.27089873    -0.89475580    -1.34011168
     16      H    -1.71545620    -0.34704211     1.27334377

Total System Charge              0.00000

 *** GO1_GOStep8 ***

 Energy gradients wrt nuclear displacements
 ==========================================

     Atom      Cartesian (a.u./angstrom)
                 X         Y         Z
 ----------------------------------------
     1 C     0.000025 -0.000146 -0.000552
     2 C    -0.000260  0.000860  0.000230
     3 C    -0.000172 -0.000301 -0.000110
     4 C    -0.000239 -0.000264  0.000184
     5 C     0.000070  0.000166 -0.000038
     6 C     0.000675  0.000473  0.000133
     7 O    -0.000024 -0.000189  0.000638
     8 C    -0.000119 -0.000185 -0.000509
     9 H     0.000105 -0.000127 -0.000077
    10 H     0.000101 -0.000169  0.000091
    11 H     0.000125 -0.000061 -0.000033
    12 H    -0.000042  0.000033 -0.000045
    13 H    -0.000013 -0.000070 -0.000014
    14 H    -0.000000  0.000053  0.000026
    15 H    -0.000220 -0.000020  0.000092
    16 H    -0.000012 -0.000052 -0.000018
 ----------------------------------------

 dE(predicted):    -0.33286E-05, dE(actual):    -0.67554E-05, Trust radius:    0.800000, all in a.u.
 
----------------------------------------------------------------------
Geometry Convergence after Step   8       (Hartree/Angstrom,Angstrom)
----------------------------------------------------------------------
current energy                               -3.39356965 Hartree
energy change                      -0.00000676     0.00016000    T
constrained gradient max            0.00087069     0.00010000    F
constrained gradient rms            0.00025524     0.00006667    F
gradient max                        0.00087069
gradient rms                        0.00025524
cart. step max                      0.00089289     0.01000000    T
cart. step rms                      0.00039260     0.00666667    T
 

--------
Geometry
--------
Formula: C7H8O
Atoms
  Index Symbol   x (angstrom)   y (angstrom)   z (angstrom)
      1      C     0.18067085    -1.33016032     0.77867018
      2      C     0.52672673    -2.12496837    -0.51706277
      3      C    -0.35315453    -3.40750924    -0.51967017
      4      C    -1.60837086    -2.98102002    -0.69453859
      5      C    -2.91626086    -3.69832780    -0.69525676
      6      C    -1.47905818    -1.42392494    -0.80763630
      7      O    -0.19825000    -1.31880682    -1.50543592
      8      C    -1.06929894    -0.89559267     0.59773869
      9      H     0.82789731    -1.23226836     1.64296386
     10      H     1.57933123    -2.22767567    -0.78292673
     11      H     0.00935321    -4.41327347    -0.33693360
     12      H    -3.47141335    -3.51454246    -1.62712475
     13      H    -2.78429502    -4.77993483    -0.57867267
     14      H    -3.55454162    -3.34015452     0.12824437
     15      H    -2.27050930    -0.89418545    -1.34051267
     16      H    -1.71472667    -0.34633505     1.27375383

Total System Charge              0.00000

 *** GO1_GOStep9 ***

 Energy gradients wrt nuclear displacements
 ==========================================

     Atom      Cartesian (a.u./angstrom)
                 X         Y         Z
 ----------------------------------------
     1 C    -0.000011 -0.000169 -0.000146
     2 C     0.000053  0.000404  0.000168
     3 C    -0.000122 -0.000154 -0.000024
     4 C     0.000009 -0.000062  0.000001
     5 C     0.000058  0.000073 -0.000049
     6 C     0.000154  0.000263  0.000231
     7 O    -0.000164 -0.000290  0.000170
     8 C     0.000023  0.000002 -0.000300
     9 H     0.000024 -0.000086 -0.000008
    10 H     0.000043 -0.000061  0.000002
    11 H     0.000061  0.000036 -0.000048
    12 H    -0.000018  0.000024  0.000000
    13 H    -0.000037  0.000017 -0.000018
    14 H    -0.000016  0.000022  0.000007
    15 H    -0.000059  0.000025 -0.000006
    16 H     0.000003 -0.000044  0.000022
 ----------------------------------------
 
----------------------------------------------------------------------
Geometry Convergence after Step   9       (Hartree/Angstrom,Angstrom)
----------------------------------------------------------------------
current energy                               -3.39357013 Hartree
energy change                      -0.00000048     0.00016000    T
constrained gradient max            0.00041487     0.00010000    F
constrained gradient rms            0.00012058     0.00006667    F
gradient max                        0.00041487
gradient rms                        0.00012058
cart. step max                      0.00077042     0.01000000    T
cart. step rms                      0.00026689     0.00666667    T
 

--------
Geometry
--------
Formula: C7H8O
Atoms
  Index Symbol   x (angstrom)   y (angstrom)   z (angstrom)
      1      C     0.18059020    -1.33029573     0.77896982
      2      C     0.52668202    -2.12540267    -0.51712682
      3      C    -0.35329173    -3.40743358    -0.52003864
      4      C    -1.60846861    -2.98080482    -0.69486488
      5      C    -2.91622873    -3.69848728    -0.69518408
      6      C    -1.47905319    -1.42402417    -0.80780334
      7      O    -0.19787462    -1.31821051    -1.50536786
      8      C    -1.06935221    -0.89583119     0.59803937
      9      H     0.82789360    -1.23176215     1.64313167
     10      H     1.57926371    -2.22778946    -0.78301957
     11      H     0.00858279    -4.41334659    -0.33697865
     12      H    -3.47163689    -3.51485654    -1.62691210
     13      H    -2.78384950    -4.78002496    -0.57867579
     14      H    -3.55444699    -3.34059539     0.12846813
     15      H    -2.27008210    -0.89383798    -1.34075403
     16      H    -1.71462774    -0.34597697     1.27371678

Total System Charge              0.00000

 *** GO1_GOStep10 ***

 Energy gradients wrt nuclear displacements
 ==========================================

     Atom      Cartesian (a.u./angstrom)
                 X         Y         Z
 ----------------------------------------
     1 C    -0.000030 -0.000029 -0.000020
     2 C     0.000021 -0.000048  0.000112
     3 C    -0.000108 -0.000093 -0.000019
     4 C     0.000043 -0.000014  0.000059
     5 C     0.000031 -0.000005 -0.000011
     6 C    -0.000016 -0.000017  0.000163
     7 O     0.000033  0.000131 -0.000083
     8 C     0.000070 -0.000013 -0.000110
     9 H    -0.000001 -0.000040  0.000005
    10 H    -0.000013  0.000003 -0.000033
    11 H    -0.000004  0.000047 -0.000041
    12 H    -0.000002  0.000026  0.000010
    13 H    -0.000045  0.000043 -0.000021
    14 H    -0.000023  0.000004 -0.000005
    15 H     0.000033  0.000027 -0.000023
    16 H     0.000011 -0.000023  0.000018
 ----------------------------------------
 
----------------------------------------------------------------------
Geometry Convergence after Step  10       (Hartree/Angstrom,Angstrom)
----------------------------------------------------------------------
current energy                               -3.39357024 Hartree
energy change                      -0.00000011     0.00016000    T
constrained gradient max            0.00015394     0.00010000    F
constrained gradient rms            0.00005048     0.00006667    T
gradient max                        0.00015394
gradient rms                        0.00005048
cart. step max                      0.00027275     0.01000000    T
cart. step rms                      0.00009869     0.00666667    T
 

--------
Geometry
--------
Formula: C7H8O
Atoms
  Index Symbol   x (angstrom)   y (angstrom)   z (angstrom)
      1      C     0.18063005    -1.33028150     0.77899940
      2      C     0.52668968    -2.12544982    -0.51713898
      3      C    -0.35329040    -3.40738750    -0.52007930
      4      C    -1.60849089    -2.98076625    -0.69508134
      5      C    -2.91624034    -3.69848297    -0.69529287
      6      C    -1.47909182    -1.42403686    -0.80782221
      7      O    -0.19789794    -1.31832076    -1.50538721
      8      C    -1.06942531    -0.89600606     0.59819718
      9      H     0.82811361    -1.23148941     1.64300257
     10      H     1.57929322    -2.22788209    -0.78293543
     11      H     0.00843245    -4.41333954    -0.33675830
     12      H    -3.47173298    -3.51493417    -1.62699881
     13      H    -2.78373275    -4.78001543    -0.57871789
     14      H    -3.55436744    -3.34054976     0.12840836
     15      H    -2.27017454    -0.89377116    -1.34060278
     16      H    -1.71461461    -0.34596672     1.27380760

Total System Charge              0.00000

 *** GO1_GOStep11 ***

 Energy gradients wrt nuclear displacements
 ==========================================

     Atom      Cartesian (a.u./angstrom)
                 X         Y         Z
 ----------------------------------------
     1 C     0.000037 -0.000018  0.000009
     2 C     0.000048 -0.000062  0.000077
     3 C    -0.000035 -0.000013 -0.000026
     4 C     0.000001  0.000023 -0.000007
     5 C     0.000005  0.000014 -0.000005
     6 C    -0.000038  0.000031  0.000111
     7 O     0.000019  0.000015 -0.000089
     8 C    -0.000025 -0.000037 -0.000034
     9 H     0.000011 -0.000029  0.000003
    10 H    -0.000005 -0.000007 -0.000014
    11 H    -0.000003  0.000013 -0.000024
    12 H    -0.000008  0.000030 -0.000002
    13 H    -0.000026  0.000025 -0.000017
    14 H    -0.000015  0.000009 -0.000005
    15 H     0.000016  0.000017  0.000002
    16 H     0.000017 -0.000010  0.000021
 ----------------------------------------
 
----------------------------------------------------------------------
Geometry Convergence after Step  11       (Hartree/Angstrom,Angstrom)
----------------------------------------------------------------------
current energy                               -3.39357009 Hartree
energy change                       0.00000015     0.00016000    T
constrained gradient max            0.00010172     0.00010000    F
constrained gradient rms            0.00002938     0.00006667    T
gradient max                        0.00010172
gradient rms                        0.00002938
cart. step max                      0.00010708     0.01000000    T
cart. step rms                      0.00004004     0.00666667    T
 

--------
Geometry
--------
Formula: C7H8O
Atoms
  Index Symbol   x (angstrom)   y (angstrom)   z (angstrom)
      1      C     0.18061109    -1.33032732     0.77900257
      2      C     0.52667108    -2.12541959    -0.51718755
      3      C    -0.35328403    -3.40737727    -0.52008941
      4      C    -1.60848570    -2.98077314    -0.69517251
      5      C    -2.91623434    -3.69849932    -0.69531921
      6      C    -1.47909124    -1.42403045    -0.80786629
      7      O    -0.19789892    -1.31824341    -1.50534455
      8      C    -1.06942250    -0.89600120     0.59820491
      9      H     0.82809845    -1.23157996     1.64301145
     10      H     1.57928830    -2.22788512    -0.78292768
     11      H     0.00837570    -4.41334751    -0.33665122
     12      H    -3.47178780    -3.51499870    -1.62700371
     13      H    -2.78367498    -4.78003073    -0.57869910
     14      H    -3.55428704    -3.34052076     0.12841750
     15      H    -2.27020877    -0.89374996    -1.34057623
     16      H    -1.71456931    -0.34589555     1.27380104

Total System Charge              0.00000

 *** GO1_GOStep12 ***

 Energy gradients wrt nuclear displacements
 ==========================================

     Atom      Cartesian (a.u./angstrom)
                 X         Y         Z
 ----------------------------------------
     1 C     0.000030 -0.000030  0.000000
     2 C     0.000031 -0.000033  0.000028
     3 C    -0.000016 -0.000003 -0.000002
     4 C    -0.000010  0.000007 -0.000020
     5 C    -0.000008  0.000019 -0.000006
     6 C    -0.000023  0.000022  0.000070
     7 O     0.000011  0.000029 -0.000035
     8 C    -0.000013 -0.000023 -0.000027
     9 H     0.000012 -0.000030  0.000007
    10 H    -0.000001 -0.000016 -0.000005
    11 H    -0.000008 -0.000008 -0.000017
    12 H    -0.000012  0.000030 -0.000008
    13 H    -0.000017  0.000014 -0.000016
    14 H    -0.000007  0.000014 -0.000004
    15 H     0.000010  0.000014  0.000014
    16 H     0.000022 -0.000005  0.000020
 ----------------------------------------
 
---------------------------------------------------------
Geometry Convergence after Step  12       ** CONVERGED **
---------------------------------------------------------
current energy                               -3.39357015 Hartree
energy change                      -0.00000006     0.00016000    T
constrained gradient max            0.00006078     0.00010000    T
constrained gradient rms            0.00001645     0.00006667    T
gradient max                        0.00006078
gradient rms                        0.00001645
cart. step max                      0.00009068     0.01000000    T
cart. step rms                      0.00004245     0.00666667    T
 
Geometry optimization converged

Optimized geometry:

--------
Geometry
--------
Formula: C7H8O
Atoms
  Index Symbol   x (angstrom)   y (angstrom)   z (angstrom)
      1      C     0.18061109    -1.33032732     0.77900257
      2      C     0.52667108    -2.12541959    -0.51718755
      3      C    -0.35328403    -3.40737727    -0.52008941
      4      C    -1.60848570    -2.98077314    -0.69517251
      5      C    -2.91623434    -3.69849932    -0.69531921
      6      C    -1.47909124    -1.42403045    -0.80786629
      7      O    -0.19789892    -1.31824341    -1.50534455
      8      C    -1.06942250    -0.89600120     0.59820491
      9      H     0.82809845    -1.23157996     1.64301145
     10      H     1.57928830    -2.22788512    -0.78292768
     11      H     0.00837570    -4.41334751    -0.33665122
     12      H    -3.47178780    -3.51499870    -1.62700371
     13      H    -2.78367498    -4.78003073    -0.57869910
     14      H    -3.55428704    -3.34052076     0.12841750
     15      H    -2.27020877    -0.89374996    -1.34057623
     16      H    -1.71456931    -0.34589555     1.27380104

Total System Charge              0.00000

Performing a single point calculation on the final geometry ...

 *** adf ***



 ===========================
 A T T A C H E D   F I L E S
 ===========================
  
 Restart/tmp/amstmp_c4_fragA_opt_kid0.2135860085/GO1_GOStep12.rkf*** GO1_GOStep12 ***



 ===============================
 M O D E L   P A R A M E T E R S
 ===============================
  
 DENSITY FUNCTIONAL POTENTIAL (scf)
    LDA:                               Exchange only                           == Not Default ==
    Gradient Corrections:              Becke88 LYP                             == Not Default ==

 SPIN  (restricted / unrestr.)
    Molecule:                          Restricted                               
    Fragments:                         Restricted                               

 OTHER ASPECTS
    Relativistic Corrections:          scalar (ZORA,MAPA)                       

    Nuclear Charge Density Model:      Point Charge Nuclei                      
    Core Treatment:                    Frozen Orbital(s)                        

    Hyperfine or Zeeman Interaction:   ---                                      

 Settings for Grimme D3 dispersion correction

      damping                        BJ
      s6                          1.000
      s8                          2.700
      a1                          0.430
      a2                          4.236

 Other (technical) parameters

      alpha                      14.000
      version                         4
 



 ===============
 G E O M E T R Y  ***  3D  Molecule  ***
 ===============
  

 ATOMS
 =====                            X Y Z                    CHARGE
                                (Angstrom)             Nucl     +Core       At.Mass
                       --------------------------    ----------------       -------
    1  C               0.1806   -1.3303    0.7790      6.00      6.00       12.0000
    2  C               0.5267   -2.1254   -0.5172      6.00      6.00       12.0000
    3  C              -0.3533   -3.4074   -0.5201      6.00      6.00       12.0000
    4  C              -1.6085   -2.9808   -0.6952      6.00      6.00       12.0000
    5  C              -2.9162   -3.6985   -0.6953      6.00      6.00       12.0000
    6  C              -1.4791   -1.4240   -0.8079      6.00      6.00       12.0000
    7  O              -0.1979   -1.3182   -1.5053      8.00      8.00       15.9949
    8  C              -1.0694   -0.8960    0.5982      6.00      6.00       12.0000
    9  H               0.8281   -1.2316    1.6430      1.00      1.00        1.0078
   10  H               1.5793   -2.2279   -0.7829      1.00      1.00        1.0078
   11  H               0.0084   -4.4133   -0.3367      1.00      1.00        1.0078
   12  H              -3.4718   -3.5150   -1.6270      1.00      1.00        1.0078
   13  H              -2.7837   -4.7800   -0.5787      1.00      1.00        1.0078
   14  H              -3.5543   -3.3405    0.1284      1.00      1.00        1.0078
   15  H              -2.2702   -0.8937   -1.3406      1.00      1.00        1.0078
   16  H              -1.7146   -0.3459    1.2738      1.00      1.00        1.0078


 FRAGMENTS
 =========                                     Atoms in this Fragment     Cart. coord.s (Angstrom)
                                               -------------------------------------------------------
    1  C                                                 1  C            0.1806   -1.3303    0.7790
    2  C                                                 2  C            0.5267   -2.1254   -0.5172
    3  C                                                 3  C           -0.3533   -3.4074   -0.5201
    4  C                                                 4  C           -1.6085   -2.9808   -0.6952
    5  C                                                 5  C           -2.9162   -3.6985   -0.6953
    6  C                                                 6  C           -1.4791   -1.4240   -0.8079
    7  C                                                 8  C           -1.0694   -0.8960    0.5982
    8  O                                                 7  O           -0.1979   -1.3182   -1.5053
    9  H                                                 9  H            0.8281   -1.2316    1.6430
   10  H                                                10  H            1.5793   -2.2279   -0.7829
   11  H                                                11  H            0.0084   -4.4133   -0.3367
   12  H                                                12  H           -3.4718   -3.5150   -1.6270
   13  H                                                13  H           -2.7837   -4.7800   -0.5787
   14  H                                                14  H           -3.5543   -3.3405    0.1284
   15  H                                                15  H           -2.2702   -0.8937   -1.3406
   16  H                                                16  H           -1.7146   -0.3459    1.2738


 Interatomic Distance Matrix (Angstrom)
 --------------------------------------

   1)     0.000
   2)     1.559   0.000
   3)     2.507   1.555   0.000
   4)     2.846   2.307   1.337   0.000
   5)     4.168   3.789   2.585   1.492   0.000
   6)     2.298   2.145   2.299   1.566   2.693   0.000
   7)     2.316   1.467   2.315   2.326   3.703   1.463   0.000
   8)     1.336   2.303   2.841   2.512   3.597   1.557   2.316   0.000
   9)     1.084   2.357   3.288   3.803   5.057   3.371   3.312   2.192   0.000
  10)     2.281   1.090   2.279   3.277   4.731   3.162   2.123   3.271   2.728   0.000
  11)     3.283   2.353   1.085   2.190   3.032   3.372   3.315   3.796   3.836   2.728
          0.000
  12)     4.889   4.376   3.311   2.151   1.100   3.002   3.944   4.193   5.865   5.280
          3.819   0.000
  13)     4.747   4.244   2.792   2.152   1.096   3.608   4.419   4.406   5.529   5.059
          2.826   1.781   0.000
  14)     4.291   4.307   3.267   2.143   1.102   2.976   4.245   3.517   5.094   5.331
          3.750   1.766   1.779   0.000
  15)     3.270   3.165   3.266   2.283   2.950   1.091   2.122   2.281   4.315   4.112
          4.311   2.898   3.993   3.129   0.000
  16)     2.192   3.376   3.801   3.291   4.070   2.356   3.312   1.084   2.718   4.315
          4.702   4.642   4.923   3.697   2.728   0.000

 Min. Distance =    1.0841
 Max. Distance =    5.8648



 =====================================
 S Y M M E T R Y ,   E L E C T R O N S
 =====================================
  
 Symmetry: NOSYM

 Irreducible Representations, including subspecies
 -------------------------------------------------
 A


 Configuration of Valence Electrons
 ==================================
 ( determined in the SCF procedure )

 Total:   58

 Net Charge: 0 (Nuclei minus Electrons)

 Aufbau principle for MO occupations will be applied through SCF cycle no.     100
 Thereafter, the program will assign electrons to MOs that are spatially
 similar to the occupied MOs in a "reference" cycle ("KeepOrbitals").
 The reference cycle is always the PREVIOUS cycle: it will evolve with
 the SCF procedure.
 ***************************************************************************************************



                                      ****************************************
                                      *  B U I L D : (Fragments, Functions)  *
                                      ****************************************
  



 =======
 S F O s  ***  (Symmetrized Fragment Orbitals)  ***
 =======
  
 SFOs are linear combinations of (valence) Fragment Orbitals (FOs), such that the SFOs transform as the
 irreducible representations of the (molecular) symmetry group. Each SFO is therefore characterized by
 an irrep of the molecule and by a few (or only one) generating FOs.
 The SFOs constitute a symmetry-adapted basis for the Fock matrix. The MO eigenvector coefficients in
 this basis provide a direct interpretation of the MOs in terms of Frontier Orbital Theory.

 The SFOs are combined with auxiliary Core Functions (CFs) to ensure orthogonalization on the (frozen)
 Core Orbitals (COs). The Core-orthogonalized SFOs (CSFOs) constitute the true Fock basis.

 The FOs, and hence also the (C)SFOs are combinations of the elementary basis functions (BAS). The basis
 functions that participate in the description of the SFOs depend on the irrep. The indices of the
 involved functions are printed below for each irrep.
 (The complete list of primitive basis functions is printed in another section)

 Total nr. of (C)SFOs (summation over all irreps) :   296

 NOTE: a (C)SFO that is defined as a combination of more than one FO is usually NOT normalized.



                                       === A ===
 Nr. of SFOs :  296
 Cartesian basis functions that participate in this irrep (total number =   336) :
      1     2     3     4     5     6     9    12     7    10
     13     8    11    14    15    16    17    18    19    20
     21    22    23    24    25    26    27    28    29    30
     31    32    33    34    35    36    39    42    37    40
     43    38    41    44    45    46    47    48    49    50
     51    52    53    54    55    56    57    58    59    60
     61    62    63    64    65    66    69    72    67    70
     73    68    71    74    75    76    77    78    79    80
     81    82    83    84    85    86    87    88    89    90
     91    92    93    94    95    96    99   102    97   100
    103    98   101   104   105   106   107   108   109   110
    111   112   113   114   115   116   117   118   119   120
    121   122   123   124   125   126   129   132   127   130
    133   128   131   134   135   136   137   138   139   140
    141   142   143   144   145   146   147   148   149   150
    151   152   153   154   155   156   159   162   157   160
    163   158   161   164   165   166   167   168   169   170
    171   172   173   174   175   176   177   178   179   180
    181   182   183   184   185   186   189   192   187   190
    193   188   191   194   195   196   197   198   199   200
    201   202   203   204   205   206   207   208   209   210
    211   212   213   214   215   216   219   222   217   220
    223   218   221   224   225   226   227   228   229   230
    231   232   233   234   235   236   237   238   239   240
    241   242   243   244   245   246   247   248   249   250
    251   252   253   254   255   256   257   258   259   260
    261   262   263   264   265   266   267   268   269   270
    271   272   273   274   275   276   277   278   279   280
    281   282   283   284   285   286   287   288   289   290
    291   292   293   294   295   296   297   298   299   300
    301   302   303   304   305   306   307   308   309   310
    311   312   313   314   315   316   317   318   319   320
    321   322   323   324   325   326   327   328   329   330
    331   332   333   334   335   336

    SFO  (index         Fragment          Generating    Expansion in Fragment Orbitals
  indx  incl.CFs)   Occup   Orb.Energy   FragmentType  Coeff.   Orbital     on Fragment
 --------------------------------------------------------------------------------------
     1       1      2.000     -10.066 au  C             1.00      1 S               1
                        (    -273.921 eV)
     2       2      2.000      -0.501 au  C             1.00      2 S               1
                        (     -13.620 eV)
     3       3       --         0.373 au  C             1.00      3 S               1
                        (      10.158 eV)
     4       4       --         5.405 au  C             1.00      4 S               1
                        (     147.073 eV)
     5       5       --        49.848 au  C             1.00      5 S               1
                        (    1356.422 eV)
     6       6      0.667      -0.193 au  C             1.00      1 P:x             1
                        (      -5.239 eV)
     7       7       --         0.169 au  C             1.00      2 P:x             1
                        (       4.589 eV)
     8       8       --         2.013 au  C             1.00      3 P:x             1
                        (      54.789 eV)
     9       9      0.667      -0.193 au  C             1.00      1 P:y             1
                        (      -5.239 eV)
    10      10       --         0.169 au  C             1.00      2 P:y             1
                        (       4.589 eV)
    11      11       --         2.013 au  C             1.00      3 P:y             1
                        (      54.789 eV)
    12      12      0.667      -0.193 au  C             1.00      1 P:z             1
                        (      -5.239 eV)
    13      13       --         0.169 au  C             1.00      2 P:z             1
                        (       4.589 eV)
    14      14       --         2.013 au  C             1.00      3 P:z             1
                        (      54.789 eV)
    15      15       --         1.243 au  C             1.00      1 D:z2            1
                        (      33.824 eV)
    16      16       --         1.243 au  C             1.00      1 D:x2-y2         1
                        (      33.824 eV)
    17      17       --         1.243 au  C             1.00      1 D:xy            1
                        (      33.824 eV)
    18      18       --         1.243 au  C             1.00      1 D:xz            1
                        (      33.824 eV)
    19      19       --         1.243 au  C             1.00      1 D:yz            1
                        (      33.824 eV)
    20      20       --         4.016 au  C             1.00      1 F:z3            1
                        (     109.271 eV)
    21      21       --         4.016 au  C             1.00      1 F:z             1
                        (     109.271 eV)
    22      22       --         4.016 au  C             1.00      1 F:xyz           1
                        (     109.271 eV)
    23      23       --         4.016 au  C             1.00      1 F:z2x           1
                        (     109.271 eV)
    24      24       --         4.016 au  C             1.00      1 F:z2y           1
                        (     109.271 eV)
    25      25       --         4.016 au  C             1.00      1 F:x             1
                        (     109.271 eV)
    26      26       --         4.016 au  C             1.00      1 F:y             1
                        (     109.271 eV)
    27      27      2.000     -10.066 au  C             1.00      1 S               2
                        (    -273.921 eV)
    28      28      2.000      -0.501 au  C             1.00      2 S               2
                        (     -13.620 eV)
    29      29       --         0.373 au  C             1.00      3 S               2
                        (      10.158 eV)
    30      30       --         5.405 au  C             1.00      4 S               2
                        (     147.073 eV)
    31      31       --        49.848 au  C             1.00      5 S               2
                        (    1356.422 eV)
    32      32      0.667      -0.193 au  C             1.00      1 P:x             2
                        (      -5.239 eV)
    33      33       --         0.169 au  C             1.00      2 P:x             2
                        (       4.589 eV)
    34      34       --         2.013 au  C             1.00      3 P:x             2
                        (      54.789 eV)
    35      35      0.667      -0.193 au  C             1.00      1 P:y             2
                        (      -5.239 eV)
    36      36       --         0.169 au  C             1.00      2 P:y             2
                        (       4.589 eV)
    37      37       --         2.013 au  C             1.00      3 P:y             2
                        (      54.789 eV)
    38      38      0.667      -0.193 au  C             1.00      1 P:z             2
                        (      -5.239 eV)
    39      39       --         0.169 au  C             1.00      2 P:z             2
                        (       4.589 eV)
    40      40       --         2.013 au  C             1.00      3 P:z             2
                        (      54.789 eV)
    41      41       --         1.243 au  C             1.00      1 D:z2            2
                        (      33.824 eV)
    42      42       --         1.243 au  C             1.00      1 D:x2-y2         2
                        (      33.824 eV)
    43      43       --         1.243 au  C             1.00      1 D:xy            2
                        (      33.824 eV)
    44      44       --         1.243 au  C             1.00      1 D:xz            2
                        (      33.824 eV)
    45      45       --         1.243 au  C             1.00      1 D:yz            2
                        (      33.824 eV)
    46      46       --         4.016 au  C             1.00      1 F:z3            2
                        (     109.271 eV)
    47      47       --         4.016 au  C             1.00      1 F:z             2
                        (     109.271 eV)
    48      48       --         4.016 au  C             1.00      1 F:xyz           2
                        (     109.271 eV)
    49      49       --         4.016 au  C             1.00      1 F:z2x           2
                        (     109.271 eV)
    50      50       --         4.016 au  C             1.00      1 F:z2y           2
                        (     109.271 eV)
    51      51       --         4.016 au  C             1.00      1 F:x             2
                        (     109.271 eV)
    52      52       --         4.016 au  C             1.00      1 F:y             2
                        (     109.271 eV)
    53      53      2.000     -10.066 au  C             1.00      1 S               3
                        (    -273.921 eV)
    54      54      2.000      -0.501 au  C             1.00      2 S               3
                        (     -13.620 eV)
    55      55       --         0.373 au  C             1.00      3 S               3
                        (      10.158 eV)
    56      56       --         5.405 au  C             1.00      4 S               3
                        (     147.073 eV)
    57      57       --        49.848 au  C             1.00      5 S               3
                        (    1356.422 eV)
    58      58      0.667      -0.193 au  C             1.00      1 P:x             3
                        (      -5.239 eV)
    59      59       --         0.169 au  C             1.00      2 P:x             3
                        (       4.589 eV)
    60      60       --         2.013 au  C             1.00      3 P:x             3
                        (      54.789 eV)
    61      61      0.667      -0.193 au  C             1.00      1 P:y             3
                        (      -5.239 eV)
    62      62       --         0.169 au  C             1.00      2 P:y             3
                        (       4.589 eV)
    63      63       --         2.013 au  C             1.00      3 P:y             3
                        (      54.789 eV)
    64      64      0.667      -0.193 au  C             1.00      1 P:z             3
                        (      -5.239 eV)
    65      65       --         0.169 au  C             1.00      2 P:z             3
                        (       4.589 eV)
    66      66       --         2.013 au  C             1.00      3 P:z             3
                        (      54.789 eV)
    67      67       --         1.243 au  C             1.00      1 D:z2            3
                        (      33.824 eV)
    68      68       --         1.243 au  C             1.00      1 D:x2-y2         3
                        (      33.824 eV)
    69      69       --         1.243 au  C             1.00      1 D:xy            3
                        (      33.824 eV)
    70      70       --         1.243 au  C             1.00      1 D:xz            3
                        (      33.824 eV)
    71      71       --         1.243 au  C             1.00      1 D:yz            3
                        (      33.824 eV)
    72      72       --         4.016 au  C             1.00      1 F:z3            3
                        (     109.271 eV)
    73      73       --         4.016 au  C             1.00      1 F:z             3
                        (     109.271 eV)
    74      74       --         4.016 au  C             1.00      1 F:xyz           3
                        (     109.271 eV)
    75      75       --         4.016 au  C             1.00      1 F:z2x           3
                        (     109.271 eV)
    76      76       --         4.016 au  C             1.00      1 F:z2y           3
                        (     109.271 eV)
    77      77       --         4.016 au  C             1.00      1 F:x             3
                        (     109.271 eV)
    78      78       --         4.016 au  C             1.00      1 F:y             3
                        (     109.271 eV)
    79      79      2.000     -10.066 au  C             1.00      1 S               4
                        (    -273.921 eV)
    80      80      2.000      -0.501 au  C             1.00      2 S               4
                        (     -13.620 eV)
    81      81       --         0.373 au  C             1.00      3 S               4
                        (      10.158 eV)
    82      82       --         5.405 au  C             1.00      4 S               4
                        (     147.073 eV)
    83      83       --        49.848 au  C             1.00      5 S               4
                        (    1356.422 eV)
    84      84      0.667      -0.193 au  C             1.00      1 P:x             4
                        (      -5.239 eV)
    85      85       --         0.169 au  C             1.00      2 P:x             4
                        (       4.589 eV)
    86      86       --         2.013 au  C             1.00      3 P:x             4
                        (      54.789 eV)
    87      87      0.667      -0.193 au  C             1.00      1 P:y             4
                        (      -5.239 eV)
    88      88       --         0.169 au  C             1.00      2 P:y             4
                        (       4.589 eV)
    89      89       --         2.013 au  C             1.00      3 P:y             4
                        (      54.789 eV)
    90      90      0.667      -0.193 au  C             1.00      1 P:z             4
                        (      -5.239 eV)
    91      91       --         0.169 au  C             1.00      2 P:z             4
                        (       4.589 eV)
    92      92       --         2.013 au  C             1.00      3 P:z             4
                        (      54.789 eV)
    93      93       --         1.243 au  C             1.00      1 D:z2            4
                        (      33.824 eV)
    94      94       --         1.243 au  C             1.00      1 D:x2-y2         4
                        (      33.824 eV)
    95      95       --         1.243 au  C             1.00      1 D:xy            4
                        (      33.824 eV)
    96      96       --         1.243 au  C             1.00      1 D:xz            4
                        (      33.824 eV)
    97      97       --         1.243 au  C             1.00      1 D:yz            4
                        (      33.824 eV)
    98      98       --         4.016 au  C             1.00      1 F:z3            4
                        (     109.271 eV)
    99      99       --         4.016 au  C             1.00      1 F:z             4
                        (     109.271 eV)
   100     100       --         4.016 au  C             1.00      1 F:xyz           4
                        (     109.271 eV)
   101     101       --         4.016 au  C             1.00      1 F:z2x           4
                        (     109.271 eV)
   102     102       --         4.016 au  C             1.00      1 F:z2y           4
                        (     109.271 eV)
   103     103       --         4.016 au  C             1.00      1 F:x             4
                        (     109.271 eV)
   104     104       --         4.016 au  C             1.00      1 F:y             4
                        (     109.271 eV)
   105     105      2.000     -10.066 au  C             1.00      1 S               5
                        (    -273.921 eV)
   106     106      2.000      -0.501 au  C             1.00      2 S               5
                        (     -13.620 eV)
   107     107       --         0.373 au  C             1.00      3 S               5
                        (      10.158 eV)
   108     108       --         5.405 au  C             1.00      4 S               5
                        (     147.073 eV)
   109     109       --        49.848 au  C             1.00      5 S               5
                        (    1356.422 eV)
   110     110      0.667      -0.193 au  C             1.00      1 P:x             5
                        (      -5.239 eV)
   111     111       --         0.169 au  C             1.00      2 P:x             5
                        (       4.589 eV)
   112     112       --         2.013 au  C             1.00      3 P:x             5
                        (      54.789 eV)
   113     113      0.667      -0.193 au  C             1.00      1 P:y             5
                        (      -5.239 eV)
   114     114       --         0.169 au  C             1.00      2 P:y             5
                        (       4.589 eV)
   115     115       --         2.013 au  C             1.00      3 P:y             5
                        (      54.789 eV)
   116     116      0.667      -0.193 au  C             1.00      1 P:z             5
                        (      -5.239 eV)
   117     117       --         0.169 au  C             1.00      2 P:z             5
                        (       4.589 eV)
   118     118       --         2.013 au  C             1.00      3 P:z             5
                        (      54.789 eV)
   119     119       --         1.243 au  C             1.00      1 D:z2            5
                        (      33.824 eV)
   120     120       --         1.243 au  C             1.00      1 D:x2-y2         5
                        (      33.824 eV)
   121     121       --         1.243 au  C             1.00      1 D:xy            5
                        (      33.824 eV)
   122     122       --         1.243 au  C             1.00      1 D:xz            5
                        (      33.824 eV)
   123     123       --         1.243 au  C             1.00      1 D:yz            5
                        (      33.824 eV)
   124     124       --         4.016 au  C             1.00      1 F:z3            5
                        (     109.271 eV)
   125     125       --         4.016 au  C             1.00      1 F:z             5
                        (     109.271 eV)
   126     126       --         4.016 au  C             1.00      1 F:xyz           5
                        (     109.271 eV)
   127     127       --         4.016 au  C             1.00      1 F:z2x           5
                        (     109.271 eV)
   128     128       --         4.016 au  C             1.00      1 F:z2y           5
                        (     109.271 eV)
   129     129       --         4.016 au  C             1.00      1 F:x             5
                        (     109.271 eV)
   130     130       --         4.016 au  C             1.00      1 F:y             5
                        (     109.271 eV)
   131     131      2.000     -10.066 au  C             1.00      1 S               6
                        (    -273.921 eV)
   132     132      2.000      -0.501 au  C             1.00      2 S               6
                        (     -13.620 eV)
   133     133       --         0.373 au  C             1.00      3 S               6
                        (      10.158 eV)
   134     134       --         5.405 au  C             1.00      4 S               6
                        (     147.073 eV)
   135     135       --        49.848 au  C             1.00      5 S               6
                        (    1356.422 eV)
   136     136      0.667      -0.193 au  C             1.00      1 P:x             6
                        (      -5.239 eV)
   137     137       --         0.169 au  C             1.00      2 P:x             6
                        (       4.589 eV)
   138     138       --         2.013 au  C             1.00      3 P:x             6
                        (      54.789 eV)
   139     139      0.667      -0.193 au  C             1.00      1 P:y             6
                        (      -5.239 eV)
   140     140       --         0.169 au  C             1.00      2 P:y             6
                        (       4.589 eV)
   141     141       --         2.013 au  C             1.00      3 P:y             6
                        (      54.789 eV)
   142     142      0.667      -0.193 au  C             1.00      1 P:z             6
                        (      -5.239 eV)
   143     143       --         0.169 au  C             1.00      2 P:z             6
                        (       4.589 eV)
   144     144       --         2.013 au  C             1.00      3 P:z             6
                        (      54.789 eV)
   145     145       --         1.243 au  C             1.00      1 D:z2            6
                        (      33.824 eV)
   146     146       --         1.243 au  C             1.00      1 D:x2-y2         6
                        (      33.824 eV)
   147     147       --         1.243 au  C             1.00      1 D:xy            6
                        (      33.824 eV)
   148     148       --         1.243 au  C             1.00      1 D:xz            6
                        (      33.824 eV)
   149     149       --         1.243 au  C             1.00      1 D:yz            6
                        (      33.824 eV)
   150     150       --         4.016 au  C             1.00      1 F:z3            6
                        (     109.271 eV)
   151     151       --         4.016 au  C             1.00      1 F:z             6
                        (     109.271 eV)
   152     152       --         4.016 au  C             1.00      1 F:xyz           6
                        (     109.271 eV)
   153     153       --         4.016 au  C             1.00      1 F:z2x           6
                        (     109.271 eV)
   154     154       --         4.016 au  C             1.00      1 F:z2y           6
                        (     109.271 eV)
   155     155       --         4.016 au  C             1.00      1 F:x             6
                        (     109.271 eV)
   156     156       --         4.016 au  C             1.00      1 F:y             6
                        (     109.271 eV)
   157     157      2.000     -10.066 au  C             1.00      1 S               7
                        (    -273.921 eV)
   158     158      2.000      -0.501 au  C             1.00      2 S               7
                        (     -13.620 eV)
   159     159       --         0.373 au  C             1.00      3 S               7
                        (      10.158 eV)
   160     160       --         5.405 au  C             1.00      4 S               7
                        (     147.073 eV)
   161     161       --        49.848 au  C             1.00      5 S               7
                        (    1356.422 eV)
   162     162      0.667      -0.193 au  C             1.00      1 P:x             7
                        (      -5.239 eV)
   163     163       --         0.169 au  C             1.00      2 P:x             7
                        (       4.589 eV)
   164     164       --         2.013 au  C             1.00      3 P:x             7
                        (      54.789 eV)
   165     165      0.667      -0.193 au  C             1.00      1 P:y             7
                        (      -5.239 eV)
   166     166       --         0.169 au  C             1.00      2 P:y             7
                        (       4.589 eV)
   167     167       --         2.013 au  C             1.00      3 P:y             7
                        (      54.789 eV)
   168     168      0.667      -0.193 au  C             1.00      1 P:z             7
                        (      -5.239 eV)
   169     169       --         0.169 au  C             1.00      2 P:z             7
                        (       4.589 eV)
   170     170       --         2.013 au  C             1.00      3 P:z             7
                        (      54.789 eV)
   171     171       --         1.243 au  C             1.00      1 D:z2            7
                        (      33.824 eV)
   172     172       --         1.243 au  C             1.00      1 D:x2-y2         7
                        (      33.824 eV)
   173     173       --         1.243 au  C             1.00      1 D:xy            7
                        (      33.824 eV)
   174     174       --         1.243 au  C             1.00      1 D:xz            7
                        (      33.824 eV)
   175     175       --         1.243 au  C             1.00      1 D:yz            7
                        (      33.824 eV)
   176     176       --         4.016 au  C             1.00      1 F:z3            7
                        (     109.271 eV)
   177     177       --         4.016 au  C             1.00      1 F:z             7
                        (     109.271 eV)
   178     178       --         4.016 au  C             1.00      1 F:xyz           7
                        (     109.271 eV)
   179     179       --         4.016 au  C             1.00      1 F:z2x           7
                        (     109.271 eV)
   180     180       --         4.016 au  C             1.00      1 F:z2y           7
                        (     109.271 eV)
   181     181       --         4.016 au  C             1.00      1 F:x             7
                        (     109.271 eV)
   182     182       --         4.016 au  C             1.00      1 F:y             7
                        (     109.271 eV)
   183     183      2.000     -18.941 au  O             1.00      1 S               8
                        (    -515.403 eV)
   184     184      2.000      -0.876 au  O             1.00      2 S               8
                        (     -23.838 eV)
   185     185       --         0.791 au  O             1.00      3 S               8
                        (      21.524 eV)
   186     186       --        13.422 au  O             1.00      4 S               8
                        (     365.226 eV)
   187     187       --       121.561 au  O             1.00      5 S               8
                        (    3307.838 eV)
   188     188      1.333      -0.331 au  O             1.00      1 P:x             8
                        (      -9.020 eV)
   189     189       --         0.347 au  O             1.00      2 P:x             8
                        (       9.437 eV)
   190     190       --         3.820 au  O             1.00      3 P:x             8
                        (     103.939 eV)
   191     191      1.333      -0.331 au  O             1.00      1 P:y             8
                        (      -9.020 eV)
   192     192       --         0.347 au  O             1.00      2 P:y             8
                        (       9.437 eV)
   193     193       --         3.820 au  O             1.00      3 P:y             8
                        (     103.939 eV)
   194     194      1.333      -0.331 au  O             1.00      1 P:z             8
                        (      -9.020 eV)
   195     195       --         0.347 au  O             1.00      2 P:z             8
                        (       9.437 eV)
   196     196       --         3.820 au  O             1.00      3 P:z             8
                        (     103.939 eV)
   197     197       --         1.071 au  O             1.00      1 D:z2            8
                        (      29.134 eV)
   198     198       --         1.071 au  O             1.00      1 D:x2-y2         8
                        (      29.134 eV)
   199     199       --         1.071 au  O             1.00      1 D:xy            8
                        (      29.134 eV)
   200     200       --         1.071 au  O             1.00      1 D:xz            8
                        (      29.134 eV)
   201     201       --         1.071 au  O             1.00      1 D:yz            8
                        (      29.134 eV)
   202     202       --         3.359 au  O             1.00      1 F:z3            8
                        (      91.410 eV)
   203     203       --         3.359 au  O             1.00      1 F:z             8
                        (      91.410 eV)
   204     204       --         3.359 au  O             1.00      1 F:xyz           8
                        (      91.410 eV)
   205     205       --         3.359 au  O             1.00      1 F:z2x           8
                        (      91.410 eV)
   206     206       --         3.359 au  O             1.00      1 F:z2y           8
                        (      91.410 eV)
   207     207       --         3.359 au  O             1.00      1 F:x             8
                        (      91.410 eV)
   208     208       --         3.359 au  O             1.00      1 F:y             8
                        (      91.410 eV)
   209     209      1.000      -0.240 au  H             1.00      1 S               9
                        (      -6.532 eV)
   210     210       --         0.088 au  H             1.00      2 S               9
                        (       2.394 eV)
   211     211       --         1.502 au  H             1.00      3 S               9
                        (      40.869 eV)
   212     212       --         0.406 au  H             1.00      1 P:x             9
                        (      11.051 eV)
   213     213       --         0.406 au  H             1.00      1 P:y             9
                        (      11.051 eV)
   214     214       --         0.406 au  H             1.00      1 P:z             9
                        (      11.051 eV)
   215     215       --         2.569 au  H             1.00      1 D:z2            9
                        (      69.917 eV)
   216     216       --         2.569 au  H             1.00      1 D:x2-y2         9
                        (      69.917 eV)
   217     217       --         2.569 au  H             1.00      1 D:xy            9
                        (      69.917 eV)
   218     218       --         2.569 au  H             1.00      1 D:xz            9
                        (      69.917 eV)
   219     219       --         2.569 au  H             1.00      1 D:yz            9
                        (      69.917 eV)
   220     220      1.000      -0.240 au  H             1.00      1 S              10
                        (      -6.532 eV)
   221     221       --         0.088 au  H             1.00      2 S              10
                        (       2.394 eV)
   222     222       --         1.502 au  H             1.00      3 S              10
                        (      40.869 eV)
   223     223       --         0.406 au  H             1.00      1 P:x            10
                        (      11.051 eV)
   224     224       --         0.406 au  H             1.00      1 P:y            10
                        (      11.051 eV)
   225     225       --         0.406 au  H             1.00      1 P:z            10
                        (      11.051 eV)
   226     226       --         2.569 au  H             1.00      1 D:z2           10
                        (      69.917 eV)
   227     227       --         2.569 au  H             1.00      1 D:x2-y2        10
                        (      69.917 eV)
[...]
                                    1.22%     2 S               2.394  0.00     9 H
                                    1.22%     1 S              -6.532  1.00    15 H
                                   -1.05%     2 P:x             4.589  0.00     7 C
       3.637  0.00    43 A         22.09%     2 P:x             4.589  0.00     5 C
                                   18.01%     1 P:z            -5.239  0.67     2 C
                                   17.07%     1 P:x            -5.239  0.67     5 C
                                   10.76%     1 P:x            -5.239  0.67     6 C
                                   -8.12%     2 P:y             4.589  0.00     4 C
                                    7.54%     1 P:z            -5.239  0.67     7 C
                                   -7.40%     2 S               2.394  0.00     9 H
                                    6.67%     1 P:x            -9.020  1.33     8 O
                                    6.28%     1 S              -6.532  1.00     9 H
                                    4.49%     1 P:x            -5.239  0.67     2 C
                                    4.26%     2 P:x             4.589  0.00     7 C
                                   -3.54%     3 S              10.158  0.00     1 C
                                    3.21%     1 P:y            -9.020  1.33     8 O
                                    3.10%     1 P:z            -5.239  0.67     1 C
                                    2.97%     1 P:x            -5.239  0.67     7 C
                                    2.87%     1 P:y            -5.239  0.67     6 C
                                   -2.74%     3 S              10.158  0.00     4 C
                                    2.68%     1 P:x            -5.239  0.67     4 C
                                    2.67%     2 P:x             4.589  0.00     6 C
                                   -2.59%     2 P:x             9.437  0.00     8 O
                                   -2.57%     2 P:z             4.589  0.00     2 C
                                    2.50%     1 S              -6.532  1.00    14 H
                                    2.37%     1 S              -6.532  1.00    11 H
                                   -2.12%     2 P:y             9.437  0.00     8 O
                                   -2.04%     2 S               2.394  0.00    14 H
                                    1.96%     2 P:x             4.589  0.00     3 C
                                   -1.91%     2 P:x             4.589  0.00     2 C
                                    1.87%     2 S               2.394  0.00    13 H
                                   -1.85%     2 P:z             4.589  0.00     1 C
                                    1.84%     1 P:z            -5.239  0.67     3 C
                                    1.75%     1 S              -6.532  1.00    16 H
                                   -1.72%     2 P:z             4.589  0.00     7 C
                                    1.58%     2 S             -13.620  2.00     3 C
                                    1.43%     2 S             -13.620  2.00     6 C
                                    1.41%     1 S              -6.532  1.00    15 H
                                   -1.38%     2 S               2.394  0.00    11 H
                                    1.30%     1 P:y            -5.239  0.67     4 C
                                    1.25%     1 P:x            -5.239  0.67     1 C
                                   -1.09%     2 P:z             4.589  0.00     3 C
                                    1.08%     1 P:x            11.051  0.00    16 H
                                    1.07%     1 P:z            11.051  0.00    10 H
       3.749  0.00    44 A         26.57%     1 P:y            -5.239  0.67     2 C
                                   11.16%     1 P:y            -5.239  0.67     6 C
                                    9.25%     1 P:x            -9.020  1.33     8 O
                                    8.91%     1 P:x            -5.239  0.67     6 C
                                    7.21%     1 P:y            -5.239  0.67     3 C
                                    6.70%     2 P:z             4.589  0.00     3 C
                                    6.18%     1 P:z            -5.239  0.67     6 C
                                    6.01%     1 P:y            -5.239  0.67     4 C
                                   -5.31%     2 P:z             4.589  0.00     4 C
                                   -5.16%     2 P:x             9.437  0.00     8 O
                                    5.10%     1 S              -6.532  1.00    15 H
                                    4.85%     2 P:y             4.589  0.00     2 C
                                    4.80%     2 P:z             4.589  0.00     6 C
                                    4.76%     1 P:z            -5.239  0.67     5 C
                                    4.59%     1 S              -6.532  1.00    12 H
                                   -4.42%     2 S               2.394  0.00    15 H
                                    3.91%     1 P:z            -5.239  0.67     1 C
                                   -3.62%     2 S               2.394  0.00    11 H
                                   -3.61%     2 P:x             4.589  0.00     6 C
                                    3.31%     1 S              -6.532  1.00    16 H
                                    2.81%     1 S              -6.532  1.00    14 H
                                   -2.66%     3 S              10.158  0.00     3 C
                                    2.32%     1 S              -6.532  1.00     9 H
                                   -2.26%     2 P:z             4.589  0.00     1 C
                                   -2.10%     2 S               2.394  0.00    16 H
                                   -2.00%     3 S              10.158  0.00     7 C
                                    1.99%     2 S             -13.620  2.00     3 C
                                   -1.86%     2 S               2.394  0.00    14 H
                                    1.85%     2 S               2.394  0.00    13 H
                                    1.84%     2 S             -13.620  2.00     6 C
                                    1.83%     1 P:x            -5.239  0.67     1 C
                                    1.81%     1 P:z            -5.239  0.67     4 C
                                   -1.76%     3 S              10.158  0.00     6 C
                                    1.74%     1 S              -6.532  1.00    11 H
                                   -1.68%     2 P:x             4.589  0.00     5 C
                                    1.53%     2 P:y             4.589  0.00     5 C
                                   -1.31%     2 S             -13.620  2.00     7 C
                                   -1.19%     2 P:x             4.589  0.00     4 C
                                    1.18%     2 P:y             4.589  0.00     4 C
                                   -1.16%     2 P:z             4.589  0.00     5 C
                                    1.11%     2 P:y             4.589  0.00     1 C
                                    1.04%     1 P:z            11.051  0.00    15 H
                                    1.03%     1 P:y            11.051  0.00    10 H

 Energy gradients wrt nuclear displacements
 ==========================================

     Atom      Cartesian (a.u./angstrom)
                 X         Y         Z
 ----------------------------------------
     1 C     0.000030 -0.000030  0.000000
     2 C     0.000031 -0.000033  0.000028
     3 C    -0.000016 -0.000003 -0.000002
     4 C    -0.000010  0.000007 -0.000020
     5 C    -0.000008  0.000019 -0.000006
     6 C    -0.000023  0.000022  0.000070
     7 O     0.000011  0.000029 -0.000035
     8 C    -0.000013 -0.000023 -0.000027
     9 H     0.000012 -0.000030  0.000007
    10 H    -0.000001 -0.000016 -0.000005
    11 H    -0.000008 -0.000008 -0.000017
    12 H    -0.000012  0.000030 -0.000008
    13 H    -0.000017  0.000014 -0.000016
    14 H    -0.000007  0.000014 -0.000004
    15 H     0.000010  0.000014  0.000014
    16 H     0.000022 -0.000005  0.000020
 ----------------------------------------



 =======================================================================
 Electrostatic potential at the Nuclei due to electrons and other nuclei
 =======================================================================
  
         Atom                  Potential
         ----                  ---------
     1)   C                  14.78940198
     2)   C                  14.72715308
     3)   C                  14.79716593
     4)   C                  14.78322618
     5)   C                  14.78141645
     6)   C                  14.72808531
     7)   O                  22.40867609
     8)   C                  14.78961263
     9)   H                   1.09270032
    10)   H                   1.10502382
    11)   H                   1.09643525
    12)   H                   1.10837239
    13)   H                   1.11084049
    14)   H                   1.10579240
    15)   H                   1.10276994
    16)   H                   1.09224813
 Mulliken charges used for AMS results%charges...


    =====================
     CALCULATION RESULTS
    =====================

Energy (hartree)            -3.39357015

Gradients (hartree/bohr)
  Index   Atom            d/dx            d/dy            d/dz
      1      C    0.0000159346   -0.0000159259    0.0000000961
      2      C    0.0000164889   -0.0000176837    0.0000145891
      3      C   -0.0000084280   -0.0000017975   -0.0000012537
      4      C   -0.0000055335    0.0000037191   -0.0000108435
      5      C   -0.0000040792    0.0000103147   -0.0000029847
      6      C   -0.0000120109    0.0000117595    0.0000369034
      7      O    0.0000056427    0.0000153216   -0.0000184083
      8      C   -0.0000067006   -0.0000119484   -0.0000142001
      9      H    0.0000064598   -0.0000160586    0.0000037119
     10      H   -0.0000005050   -0.0000085063   -0.0000025622
     11      H   -0.0000042596   -0.0000044754   -0.0000087482
     12      H   -0.0000065769    0.0000159618   -0.0000040264
     13      H   -0.0000092093    0.0000072904   -0.0000083451
     14      H   -0.0000036778    0.0000072749   -0.0000021841
     15      H    0.0000050498    0.0000072524    0.0000074737
     16      H    0.0000114049   -0.0000024987    0.0000107821


--------------
Atomic charges
--------------
  Index   Atom    Charge
      1      C    0.2214
      2      C    0.4772
      3      C    0.2265
      4      C    0.0232
      5      C    0.6230
      6      C    0.4890
      7      O   -0.5396
      8      C    0.2148
      9      H   -0.2226
     10      H   -0.2174
     11      H   -0.2341
     12      H   -0.1901
     13      H   -0.2229
     14      H   -0.2022
     15      H   -0.2218
     16      H   -0.2243


Dipole moment vector    (Debye):    -0.93553939   -1.05561852    1.55912221
              magnitude (Debye):     2.10248103


-----------------------
Molecular orbitals info
-----------------------
n orbitals:              296
n spin:                    1

Note: only printing virtual orbitals with
      energy smaller than HOMO + 100. eV

HOMO (eV):              -5.0771
LUMO (eV):              -1.6081
HOMO-LUMO gap (eV):      3.4689

   Index   Energy (eV)    Occupation
     190       94.6966         0.000       
     189       94.1623         0.000       
     188       93.6432         0.000       
     187       92.9183         0.000       
     186       92.1527         0.000       
     185       91.6613         0.000       
     184       90.9278         0.000       
     183       90.6394         0.000       
     182       89.2922         0.000       
     181       88.9455         0.000       
     180       87.9269         0.000       
     179       86.8987         0.000       
     178       85.9521         0.000       
     177       84.6573         0.000       
     176       83.4513         0.000       
     175       83.2250         0.000       
     174       83.1525         0.000       
     173       82.0693         0.000       
     172       81.0513         0.000       
     171       80.3685         0.000       
     170       80.1137         0.000       
     169       79.7449         0.000       
     168       78.9248         0.000       
     167       78.2964         0.000       
     166       77.7245         0.000       
     165       77.0969         0.000       
     164       76.4846         0.000       
     163       76.3172         0.000       
     162       75.7300         0.000       
     161       75.7205         0.000       
     160       74.4412         0.000       
     159       73.7516         0.000       
     158       73.4541         0.000       
     157       71.4582         0.000       
     156       70.6217         0.000       
     155       69.8986         0.000       
     154       69.0730         0.000       
     153       67.2225         0.000       
     152       66.1911         0.000       
     151       65.0747         0.000       
     150       64.0607         0.000       
     149       62.6539         0.000       
     148       62.2264         0.000       
     147       61.5841         0.000       
     146       61.1249         0.000       
     145       60.4938         0.000       
     144       59.9932         0.000       
     143       59.0359         0.000       
     142       58.1952         0.000       
     141       58.0006         0.000       
     140       56.9671         0.000       
     139       56.5440         0.000       
     138       55.7428         0.000       
     137       55.5361         0.000       
     136       54.5597         0.000       
     135       54.1811         0.000       
     134       53.8385         0.000       
     133       53.2999         0.000       
     132       52.5800         0.000       
     131       51.7236         0.000       
     130       50.6125         0.000       
     129       49.7449         0.000       
     128       48.4359         0.000       
     127       47.7985         0.000       
     126       47.1240         0.000       
     125       45.8808         0.000       
     124       45.6015         0.000       
     123       45.1148         0.000       
     122       44.9391         0.000       
     121       44.2753         0.000       
     120       43.4014         0.000       
     119       43.0687         0.000       
     118       42.4211         0.000       
     117       41.8647         0.000       
     116       41.3842         0.000       
     115       40.4850         0.000       
     114       40.2009         0.000       
     113       38.7399         0.000       
     112       37.9742         0.000       
     111       37.1450         0.000       
     110       36.8591         0.000       
     109       36.8168         0.000       
     108       35.9843         0.000       
     107       35.4154         0.000       
     106       35.0593         0.000       
     105       34.3526         0.000       
     104       33.2112         0.000       
     103       32.8036         0.000       
     102       32.4175         0.000       
     101       31.1714         0.000       
     100       30.8210         0.000       
      99       30.3038         0.000       
      98       30.0771         0.000       
      97       29.4778         0.000       
      96       28.7851         0.000       
      95       28.4726         0.000       
      94       27.8911         0.000       
      93       27.5116         0.000       
      92       27.2473         0.000       
      91       26.5415         0.000       
      90       26.1910         0.000       
      89       25.5401         0.000       
      88       24.6434         0.000       
      87       23.1743         0.000       
      86       22.5389         0.000       
      85       22.1225         0.000       
      84       21.3402         0.000       
      83       21.1106         0.000       
      82       20.8581         0.000       
      81       19.6747         0.000       
      80       19.0448         0.000       
      79       18.5784         0.000       
      78       18.5072         0.000       
      77       18.1640         0.000       
      76       16.5680         0.000       
      75       16.4011         0.000       
      74       15.4879         0.000       
      73       15.0591         0.000       
      72       14.3224         0.000       
      71       13.6138         0.000       
      70       13.0518         0.000       
      69       12.5890         0.000       
      68       11.9034         0.000       
      67       11.3809         0.000       
      66       10.8092         0.000       
      65       10.6169         0.000       
      64       10.3412         0.000       
      63        9.9914         0.000       
      62        9.4954         0.000       
      61        9.3598         0.000       
      60        9.1420         0.000       
      59        8.9828         0.000       
      58        8.6262         0.000       
      57        8.5899         0.000       
      56        8.1040         0.000       
      55        7.7575         0.000       
      54        7.1399         0.000       
      53        6.6777         0.000       
      52        6.5119         0.000       
      51        6.1359         0.000       
      50        6.0118         0.000       
      49        5.7398         0.000       
      48        5.1348         0.000       
      47        4.6854         0.000       
      46        4.5875         0.000       
      45        4.1163         0.000       
      44        3.7494         0.000       
      43        3.6365         0.000       
      42        3.1929         0.000       
      41        3.0286         0.000       
      40        2.1681         0.000       
      39        1.9182         0.000       
      38        1.7143         0.000       
      37        1.3272         0.000       
      36        1.1829         0.000       
      35        0.9046         0.000       
      34        0.6037         0.000       
      33        0.3217         0.000       
      32       -0.1128         0.000       
      31       -0.1470         0.000       
      30       -1.6081         0.000 < LUMO
      29       -5.0771         2.000 < HOMO
      28       -6.1441         2.000       
      27       -6.3525         2.000       
      26       -8.0798         2.000       
      25       -8.7010         2.000       
      24       -9.0796         2.000       
      23       -9.1571         2.000       
      22       -9.6164         2.000       
      21       -9.7665         2.000       
      20      -10.3006         2.000       
      19      -10.4776         2.000       
      18      -11.5259         2.000       
      17      -12.5977         2.000       
      16      -13.0733         2.000       
      15      -13.5853         2.000       
      14      -14.2616         2.000       
      13      -16.9687         2.000       
      12      -17.9853         2.000       
      11      -18.9778         2.000       
      10      -20.0072         2.000       
       9      -25.8095         2.000       
       8     -269.8271         2.000       
       7     -270.0434         2.000       
       6     -270.0648         2.000       
       5     -270.0951         2.000       
       4     -270.2065         2.000       
       3     -271.5744         2.000       
       2     -271.5909         2.000       
       1     -511.2583         2.000       

AMS application finished. Exiting.
NORMAL TERMINATION
     Total cpu time:     606.10
  Total system time:       4.10
 Total elapsed time:     613.72
NORMAL TERMINATION
