
 *******************************************************************************
 *                                                                             *
 *  --------------------------------                                           *
 *   Amsterdam Modeling Suite (AMS)              2026.103                      *
 *  --------------------------------                                           *
 *                                               r260501 2026-05-01 873454b5   *
 *                                                                             *
 *                                                                             *
 *                              =================                              *
 *                              |               |                              *
 *                              |     A M S     |                              *
 *                              |               |                              *
 *                              =================                              *
 *                                                                             *
 *                                                                             *
 *   Online information and documentation:  https://www.scm.com/support/       *
 *   E-mail:  support@scm.com   info@scm.com                                   *
 *                                                                             *
 *   Scientific publications using AMS results must be properly referenced     *
 *   See the User Manuals (or the web site) for recommended citations          *
 *   The terms and conditions of the End User License Agreement apply to       *
 *   the use of AMS, https://www.scm.com/license-terms/                        *
 *                                                                             *
 **********************  x86_64_linux_intel / intelmpi  ************************
 
 Licensed to: Jong-June Jeon / University of Seoul 2026-05-13 16:10:32
 SCM User ID: u30731
  
 AMS 2026.103  RunTime: May31-2026 10:55:57  ShM Nodes: 1  Procs: 1

 AMS jobname: c1_fragA_ts
 AMS jobid  : 1648972915

 Start   directory: /gpfs/home1/yeseo1ee/projects/eda-asm-prediction/adf_outputs/batch_001/dipolar_001619/
 Results directory: /gpfs/home1/yeseo1ee/projects/eda-asm-prediction/adf_outputs/batch_001/dipolar_001619/c1_fragA_ts.results/
 Scratch directory: /tmp/amstmp_c1_fragA_ts_kid0.1648972915/

 RNG seed: -842944637 416383254 -39737229 -649754251 514362595 -80813627 -2092577445 -2034844701



                      ************************************************************************
                      *  ADF 2026.103  RunTime: May31-2026 10:55:57  ShM Nodes: 1  Procs: 1  *
                      ************************************************************************
  

       ****************************
       * SINGLE POINT CALCULATION *
       ****************************

--------
Geometry
--------
Formula: C8H10N2O3
Atoms
  Index Symbol   x (angstrom)   y (angstrom)   z (angstrom)
      1      C    -5.68871000    -5.94010000     5.61400000
      2      O    -5.18900000    -6.87537000     4.64320000
      3      C    -4.03572000    -6.57984000     4.05914000
      4      O    -3.38380000    -5.57905000     4.30348000
      5      C    -3.58095000    -7.62850000     3.07947000
      6      C    -4.62293000    -8.49223000     2.42256000
      7      N    -2.51077000    -7.15755000     2.40289000
      8      C    -1.53323000    -7.87885000     1.77094000
      9      C    -0.41689000    -7.05557000     1.40969000
     10      N     0.49247000    -6.38288000     1.13233000
     11      C    -1.75946000    -9.08564000     0.89167000
     12      C    -0.99534000    -9.11213000    -0.40797000
     13      O    -2.51417000    -9.99572000     1.19210000
     14      H    -6.61852000    -6.37608000     5.99525000
     15      H    -5.88584000    -4.97166000     5.13334000
     16      H    -4.96233000    -5.81423000     6.42764000
     17      H    -5.53484000    -8.50729000     3.02327000
     18      H    -4.27775000    -9.51359000     2.24338000
     19      H    -4.86021000    -8.05050000     1.44071000
     20      H    -2.16481000    -6.28976000     2.82786000
     21      H    -1.16870000   -10.07322000    -0.90746000
     22      H     0.08275000    -8.96153000    -0.25472000
     23      H    -1.34603000    -8.28706000    -1.05033000

Total System Charge              0.00000


----------------
ADF Engine Input
----------------
 
   Basis
     Type TZ2P
     Core None
   End
   XC
     GGA BLYP
     Dispersion GRIMME3 BJDAMP
   End
   Symmetry NOSYM
   NumericalQuality Normal
   Unrestricted No
   SCF
     Iterations 200
     Converge 1.0e-6
   End
   Save TAPE21
 

 Title: *** (NO TITLE) ***

 *** adf ***



 ===========================
 A T T A C H E D   F I L E S
 ===========================
  



 ===============================
 M O D E L   P A R A M E T E R S
 ===============================
  
 DENSITY FUNCTIONAL POTENTIAL (scf)
    LDA:                               Exchange only                           == Not Default ==
    Gradient Corrections:              Becke88 LYP                             == Not Default ==

 SPIN  (restricted / unrestr.)
    Molecule:                          Restricted                               
    Fragments:                         Restricted                               

 OTHER ASPECTS
    Relativistic Corrections:          scalar (ZORA,MAPA)                       

    Nuclear Charge Density Model:      Point Charge Nuclei                      
    Core Treatment:                    Frozen Orbital(s)                        

    Hyperfine or Zeeman Interaction:   ---                                      

 Settings for Grimme D3 dispersion correction

      damping                        BJ
      s6                          1.000
      s8                          2.700
      a1                          0.430
      a2                          4.236

 Other (technical) parameters

      alpha                      14.000
      version                         4
 


 Fragment File(s)
 ----------------
 C:
         file : /gpfs/home1/yeseo1ee/projects/eda-asm-prediction/adf_outputs/batch_001/dipolar_001619/c1_fragA_ts.results/t21.50BA88D5.C
         jobid: 0
         title: Carbon (TZ2P)
 O:
         file : /gpfs/home1/yeseo1ee/projects/eda-asm-prediction/adf_outputs/batch_001/dipolar_001619/c1_fragA_ts.results/t21.6E90ABAE.O
         jobid: 0
         title: Oxygen (TZ2P)
 N:
         file : /gpfs/home1/yeseo1ee/projects/eda-asm-prediction/adf_outputs/batch_001/dipolar_001619/c1_fragA_ts.results/t21.44EAA48D.N
         jobid: 0
         title: Nitrogen (TZ2P)
 H:
         file : /gpfs/home1/yeseo1ee/projects/eda-asm-prediction/adf_outputs/batch_001/dipolar_001619/c1_fragA_ts.results/t21.6F35CCAB.H
         jobid: 0
         title: Hydrogen (TZ2P)



 ===============
 G E O M E T R Y  ***  3D  Molecule  ***
 ===============
  

 ATOMS
 =====                            X Y Z                    CHARGE
                                (Angstrom)             Nucl     +Core       At.Mass
                       --------------------------    ----------------       -------
    1  C              -5.6887   -5.9401    5.6140      6.00      6.00       12.0000
    2  O              -5.1890   -6.8754    4.6432      8.00      8.00       15.9949
    3  C              -4.0357   -6.5798    4.0591      6.00      6.00       12.0000
    4  O              -3.3838   -5.5790    4.3035      8.00      8.00       15.9949
    5  C              -3.5810   -7.6285    3.0795      6.00      6.00       12.0000
    6  C              -4.6229   -8.4922    2.4226      6.00      6.00       12.0000
    7  N              -2.5108   -7.1575    2.4029      7.00      7.00       14.0031
    8  C              -1.5332   -7.8788    1.7709      6.00      6.00       12.0000
    9  C              -0.4169   -7.0556    1.4097      6.00      6.00       12.0000
   10  N               0.4925   -6.3829    1.1323      7.00      7.00       14.0031
   11  C              -1.7595   -9.0856    0.8917      6.00      6.00       12.0000
   12  C              -0.9953   -9.1121   -0.4080      6.00      6.00       12.0000
   13  O              -2.5142   -9.9957    1.1921      8.00      8.00       15.9949
   14  H              -6.6185   -6.3761    5.9953      1.00      1.00        1.0078
   15  H              -5.8858   -4.9717    5.1333      1.00      1.00        1.0078
   16  H              -4.9623   -5.8142    6.4276      1.00      1.00        1.0078
   17  H              -5.5348   -8.5073    3.0233      1.00      1.00        1.0078
   18  H              -4.2778   -9.5136    2.2434      1.00      1.00        1.0078
   19  H              -4.8602   -8.0505    1.4407      1.00      1.00        1.0078
   20  H              -2.1648   -6.2898    2.8279      1.00      1.00        1.0078
   21  H              -1.1687  -10.0732   -0.9075      1.00      1.00        1.0078
   22  H               0.0828   -8.9615   -0.2547      1.00      1.00        1.0078
   23  H              -1.3460   -8.2871   -1.0503      1.00      1.00        1.0078


 FRAGMENTS
 =========                                     Atoms in this Fragment     Cart. coord.s (Angstrom)
                                               -------------------------------------------------------
    1  C                                                 1  C           -5.6887   -5.9401    5.6140
    2  C                                                 3  C           -4.0357   -6.5798    4.0591
    3  C                                                 5  C           -3.5810   -7.6285    3.0795
    4  C                                                 6  C           -4.6229   -8.4922    2.4226
    5  C                                                 8  C           -1.5332   -7.8788    1.7709
    6  C                                                 9  C           -0.4169   -7.0556    1.4097
    7  C                                                11  C           -1.7595   -9.0856    0.8917
    8  C                                                12  C           -0.9953   -9.1121   -0.4080
    9  O                                                 2  O           -5.1890   -6.8754    4.6432
   10  O                                                 4  O           -3.3838   -5.5790    4.3035
   11  O                                                13  O           -2.5142   -9.9957    1.1921
   12  N                                                 7  N           -2.5108   -7.1575    2.4029
   13  N                                                10  N            0.4925   -6.3829    1.1323
   14  H                                                14  H           -6.6185   -6.3761    5.9953
   15  H                                                15  H           -5.8858   -4.9717    5.1333
   16  H                                                16  H           -4.9623   -5.8142    6.4276
   17  H                                                17  H           -5.5348   -8.5073    3.0233
   18  H                                                18  H           -4.2778   -9.5136    2.2434
   19  H                                                19  H           -4.8602   -8.0505    1.4407
   20  H                                                20  H           -2.1648   -6.2898    2.8279
   21  H                                                21  H           -1.1687  -10.0732   -0.9075
   22  H                                                22  H            0.0828   -8.9615   -0.2547
   23  H                                                23  H           -1.3460   -8.2871   -1.0503



 =====================================
 S Y M M E T R Y ,   E L E C T R O N S
 =====================================
  
 Symmetry: NOSYM

 Irreducible Representations, including subspecies
 -------------------------------------------------
 A


 Configuration of Valence Electrons
 ==================================
 ( determined in the SCF procedure )

 Total:   96

 Net Charge: 0 (Nuclei minus Electrons)

 Aufbau principle for MO occupations will be applied through SCF cycle no.     100
 Thereafter, the program will assign electrons to MOs that are spatially
 similar to the occupied MOs in a "reference" cycle ("KeepOrbitals").
 The reference cycle is always the PREVIOUS cycle: it will evolve with
 the SCF procedure.
 ***************************************************************************************************



                                      ****************************************
                                      *  B U I L D : (Fragments, Functions)  *
                                      ****************************************
  



 =======
 S F O s  ***  (Symmetrized Fragment Orbitals)  ***
 =======
  
 SFOs are linear combinations of (valence) Fragment Orbitals (FOs), such that the SFOs transform as the
 irreducible representations of the (molecular) symmetry group. Each SFO is therefore characterized by
 an irrep of the molecule and by a few (or only one) generating FOs.
 The SFOs constitute a symmetry-adapted basis for the Fock matrix. The MO eigenvector coefficients in
 this basis provide a direct interpretation of the MOs in terms of Frontier Orbital Theory.

 The SFOs are combined with auxiliary Core Functions (CFs) to ensure orthogonalization on the (frozen)
 Core Orbitals (COs). The Core-orthogonalized SFOs (CSFOs) constitute the true Fock basis.

 The FOs, and hence also the (C)SFOs are combinations of the elementary basis functions (BAS). The basis
 functions that participate in the description of the SFOs depend on the irrep. The indices of the
 involved functions are printed below for each irrep.
 (The complete list of primitive basis functions is printed in another section)

 Total nr. of (C)SFOs (summation over all irreps) :   448

 NOTE: a (C)SFO that is defined as a combination of more than one FO is usually NOT normalized.



                                       === A ===
 Nr. of SFOs :  448
 Cartesian basis functions that participate in this irrep (total number =   510) :
      1     2     3     4     5     6     9    12     7    10
     13     8    11    14    15    16    17    18    19    20
     21    22    23    24    25    26    27    28    29    30
     31    32    33    34    35    36    39    42    37    40
     43    38    41    44    45    46    47    48    49    50
     51    52    53    54    55    56    57    58    59    60
     61    62    63    64    65    66    69    72    67    70
     73    68    71    74    75    76    77    78    79    80
     81    82    83    84    85    86    87    88    89    90
     91    92    93    94    95    96    99   102    97   100
    103    98   101   104   105   106   107   108   109   110
    111   112   113   114   115   116   117   118   119   120
    121   122   123   124   125   126   129   132   127   130
    133   128   131   134   135   136   137   138   139   140
    141   142   143   144   145   146   147   148   149   150
    151   152   153   154   155   156   159   162   157   160
    163   158   161   164   165   166   167   168   169   170
    171   172   173   174   175   176   177   178   179   180
    181   182   183   184   185   186   189   192   187   190
    193   188   191   194   195   196   197   198   199   200
    201   202   203   204   205   206   207   208   209   210
    211   212   213   214   215   216   219   222   217   220
    223   218   221   224   225   226   227   228   229   230
    231   232   233   234   235   236   237   238   239   240
    241   242   243   244   245   246   249   252   247   250
    253   248   251   254   255   256   257   258   259   260
    261   262   263   264   265   266   267   268   269   270
    271   272   273   274   275   276   279   282   277   280
    283   278   281   284   285   286   287   288   289   290
    291   292   293   294   295   296   297   298   299   300
    301   302   303   304   305   306   309   312   307   310
    313   308   311   314   315   316   317   318   319   320
    321   322   323   324   325   326   327   328   329   330
    331   332   333   334   335   336   339   342   337   340
    343   338   341   344   345   346   347   348   349   350
    351   352   353   354   355   356   357   358   359   360
    361   362   363   364   365   366   369   372   367   370
    373   368   371   374   375   376   377   378   379   380
    381   382   383   384   385   386   387   388   389   390
    391   392   393   394   395   396   397   398   399   400
    401   402   403   404   405   406   407   408   409   410
    411   412   413   414   415   416   417   418   419   420
    421   422   423   424   425   426   427   428   429   430
    431   432   433   434   435   436   437   438   439   440
    441   442   443   444   445   446   447   448   449   450
    451   452   453   454   455   456   457   458   459   460
    461   462   463   464   465   466   467   468   469   470
    471   472   473   474   475   476   477   478   479   480
    481   482   483   484   485   486   487   488   489   490
    491   492   493   494   495   496   497   498   499   500
    501   502   503   504   505   506   507   508   509   510

    SFO  (index         Fragment          Generating    Expansion in Fragment Orbitals
  indx  incl.CFs)   Occup   Orb.Energy   FragmentType  Coeff.   Orbital     on Fragment
 --------------------------------------------------------------------------------------
     1       1      2.000     -10.066 au  C             1.00      1 S               1
                        (    -273.921 eV)
     2       2      2.000      -0.501 au  C             1.00      2 S               1
                        (     -13.620 eV)
     3       3       --         0.373 au  C             1.00      3 S               1
                        (      10.158 eV)
     4       4       --         5.405 au  C             1.00      4 S               1
                        (     147.073 eV)
     5       5       --        49.848 au  C             1.00      5 S               1
                        (    1356.422 eV)
     6       6      0.667      -0.193 au  C             1.00      1 P:x             1
                        (      -5.239 eV)
     7       7       --         0.169 au  C             1.00      2 P:x             1
                        (       4.589 eV)
     8       8       --         2.013 au  C             1.00      3 P:x             1
                        (      54.789 eV)
     9       9      0.667      -0.193 au  C             1.00      1 P:y             1
                        (      -5.239 eV)
    10      10       --         0.169 au  C             1.00      2 P:y             1
                        (       4.589 eV)
    11      11       --         2.013 au  C             1.00      3 P:y             1
                        (      54.789 eV)
    12      12      0.667      -0.193 au  C             1.00      1 P:z             1
                        (      -5.239 eV)
    13      13       --         0.169 au  C             1.00      2 P:z             1
                        (       4.589 eV)
    14      14       --         2.013 au  C             1.00      3 P:z             1
                        (      54.789 eV)
    15      15       --         1.243 au  C             1.00      1 D:z2            1
                        (      33.824 eV)
    16      16       --         1.243 au  C             1.00      1 D:x2-y2         1
                        (      33.824 eV)
    17      17       --         1.243 au  C             1.00      1 D:xy            1
                        (      33.824 eV)
    18      18       --         1.243 au  C             1.00      1 D:xz            1
                        (      33.824 eV)
    19      19       --         1.243 au  C             1.00      1 D:yz            1
                        (      33.824 eV)
    20      20       --         4.016 au  C             1.00      1 F:z3            1
                        (     109.271 eV)
    21      21       --         4.016 au  C             1.00      1 F:z             1
                        (     109.271 eV)
    22      22       --         4.016 au  C             1.00      1 F:xyz           1
                        (     109.271 eV)
    23      23       --         4.016 au  C             1.00      1 F:z2x           1
                        (     109.271 eV)
    24      24       --         4.016 au  C             1.00      1 F:z2y           1
                        (     109.271 eV)
    25      25       --         4.016 au  C             1.00      1 F:x             1
                        (     109.271 eV)
    26      26       --         4.016 au  C             1.00      1 F:y             1
                        (     109.271 eV)
    27      27      2.000     -10.066 au  C             1.00      1 S               2
                        (    -273.921 eV)
    28      28      2.000      -0.501 au  C             1.00      2 S               2
                        (     -13.620 eV)
    29      29       --         0.373 au  C             1.00      3 S               2
                        (      10.158 eV)
    30      30       --         5.405 au  C             1.00      4 S               2
                        (     147.073 eV)
    31      31       --        49.848 au  C             1.00      5 S               2
                        (    1356.422 eV)
    32      32      0.667      -0.193 au  C             1.00      1 P:x             2
                        (      -5.239 eV)
    33      33       --         0.169 au  C             1.00      2 P:x             2
                        (       4.589 eV)
    34      34       --         2.013 au  C             1.00      3 P:x             2
                        (      54.789 eV)
    35      35      0.667      -0.193 au  C             1.00      1 P:y             2
                        (      -5.239 eV)
    36      36       --         0.169 au  C             1.00      2 P:y             2
                        (       4.589 eV)
    37      37       --         2.013 au  C             1.00      3 P:y             2
                        (      54.789 eV)
    38      38      0.667      -0.193 au  C             1.00      1 P:z             2
                        (      -5.239 eV)
    39      39       --         0.169 au  C             1.00      2 P:z             2
                        (       4.589 eV)
    40      40       --         2.013 au  C             1.00      3 P:z             2
                        (      54.789 eV)
    41      41       --         1.243 au  C             1.00      1 D:z2            2
                        (      33.824 eV)
    42      42       --         1.243 au  C             1.00      1 D:x2-y2         2
                        (      33.824 eV)
    43      43       --         1.243 au  C             1.00      1 D:xy            2
                        (      33.824 eV)
    44      44       --         1.243 au  C             1.00      1 D:xz            2
                        (      33.824 eV)
    45      45       --         1.243 au  C             1.00      1 D:yz            2
                        (      33.824 eV)
    46      46       --         4.016 au  C             1.00      1 F:z3            2
                        (     109.271 eV)
    47      47       --         4.016 au  C             1.00      1 F:z             2
                        (     109.271 eV)
    48      48       --         4.016 au  C             1.00      1 F:xyz           2
                        (     109.271 eV)
    49      49       --         4.016 au  C             1.00      1 F:z2x           2
                        (     109.271 eV)
    50      50       --         4.016 au  C             1.00      1 F:z2y           2
                        (     109.271 eV)
    51      51       --         4.016 au  C             1.00      1 F:x             2
                        (     109.271 eV)
    52      52       --         4.016 au  C             1.00      1 F:y             2
                        (     109.271 eV)
    53      53      2.000     -10.066 au  C             1.00      1 S               3
                        (    -273.921 eV)
    54      54      2.000      -0.501 au  C             1.00      2 S               3
                        (     -13.620 eV)
    55      55       --         0.373 au  C             1.00      3 S               3
                        (      10.158 eV)
    56      56       --         5.405 au  C             1.00      4 S               3
                        (     147.073 eV)
    57      57       --        49.848 au  C             1.00      5 S               3
                        (    1356.422 eV)
    58      58      0.667      -0.193 au  C             1.00      1 P:x             3
                        (      -5.239 eV)
    59      59       --         0.169 au  C             1.00      2 P:x             3
                        (       4.589 eV)
    60      60       --         2.013 au  C             1.00      3 P:x             3
                        (      54.789 eV)
    61      61      0.667      -0.193 au  C             1.00      1 P:y             3
                        (      -5.239 eV)
    62      62       --         0.169 au  C             1.00      2 P:y             3
                        (       4.589 eV)
    63      63       --         2.013 au  C             1.00      3 P:y             3
                        (      54.789 eV)
    64      64      0.667      -0.193 au  C             1.00      1 P:z             3
                        (      -5.239 eV)
    65      65       --         0.169 au  C             1.00      2 P:z             3
                        (       4.589 eV)
    66      66       --         2.013 au  C             1.00      3 P:z             3
                        (      54.789 eV)
    67      67       --         1.243 au  C             1.00      1 D:z2            3
                        (      33.824 eV)
    68      68       --         1.243 au  C             1.00      1 D:x2-y2         3
                        (      33.824 eV)
    69      69       --         1.243 au  C             1.00      1 D:xy            3
                        (      33.824 eV)
    70      70       --         1.243 au  C             1.00      1 D:xz            3
                        (      33.824 eV)
    71      71       --         1.243 au  C             1.00      1 D:yz            3
                        (      33.824 eV)
    72      72       --         4.016 au  C             1.00      1 F:z3            3
                        (     109.271 eV)
    73      73       --         4.016 au  C             1.00      1 F:z             3
                        (     109.271 eV)
    74      74       --         4.016 au  C             1.00      1 F:xyz           3
                        (     109.271 eV)
    75      75       --         4.016 au  C             1.00      1 F:z2x           3
                        (     109.271 eV)
    76      76       --         4.016 au  C             1.00      1 F:z2y           3
                        (     109.271 eV)
    77      77       --         4.016 au  C             1.00      1 F:x             3
                        (     109.271 eV)
    78      78       --         4.016 au  C             1.00      1 F:y             3
                        (     109.271 eV)
    79      79      2.000     -10.066 au  C             1.00      1 S               4
                        (    -273.921 eV)
    80      80      2.000      -0.501 au  C             1.00      2 S               4
                        (     -13.620 eV)
    81      81       --         0.373 au  C             1.00      3 S               4
                        (      10.158 eV)
    82      82       --         5.405 au  C             1.00      4 S               4
                        (     147.073 eV)
    83      83       --        49.848 au  C             1.00      5 S               4
                        (    1356.422 eV)
    84      84      0.667      -0.193 au  C             1.00      1 P:x             4
                        (      -5.239 eV)
    85      85       --         0.169 au  C             1.00      2 P:x             4
                        (       4.589 eV)
    86      86       --         2.013 au  C             1.00      3 P:x             4
                        (      54.789 eV)
    87      87      0.667      -0.193 au  C             1.00      1 P:y             4
                        (      -5.239 eV)
    88      88       --         0.169 au  C             1.00      2 P:y             4
                        (       4.589 eV)
    89      89       --         2.013 au  C             1.00      3 P:y             4
                        (      54.789 eV)
    90      90      0.667      -0.193 au  C             1.00      1 P:z             4
                        (      -5.239 eV)
    91      91       --         0.169 au  C             1.00      2 P:z             4
                        (       4.589 eV)
    92      92       --         2.013 au  C             1.00      3 P:z             4
                        (      54.789 eV)
    93      93       --         1.243 au  C             1.00      1 D:z2            4
                        (      33.824 eV)
    94      94       --         1.243 au  C             1.00      1 D:x2-y2         4
                        (      33.824 eV)
    95      95       --         1.243 au  C             1.00      1 D:xy            4
                        (      33.824 eV)
    96      96       --         1.243 au  C             1.00      1 D:xz            4
                        (      33.824 eV)
    97      97       --         1.243 au  C             1.00      1 D:yz            4
                        (      33.824 eV)
    98      98       --         4.016 au  C             1.00      1 F:z3            4
                        (     109.271 eV)
    99      99       --         4.016 au  C             1.00      1 F:z             4
                        (     109.271 eV)
   100     100       --         4.016 au  C             1.00      1 F:xyz           4
                        (     109.271 eV)
   101     101       --         4.016 au  C             1.00      1 F:z2x           4
                        (     109.271 eV)
   102     102       --         4.016 au  C             1.00      1 F:z2y           4
                        (     109.271 eV)
   103     103       --         4.016 au  C             1.00      1 F:x             4
                        (     109.271 eV)
   104     104       --         4.016 au  C             1.00      1 F:y             4
                        (     109.271 eV)
   105     105      2.000     -10.066 au  C             1.00      1 S               5
                        (    -273.921 eV)
   106     106      2.000      -0.501 au  C             1.00      2 S               5
                        (     -13.620 eV)
   107     107       --         0.373 au  C             1.00      3 S               5
                        (      10.158 eV)
   108     108       --         5.405 au  C             1.00      4 S               5
                        (     147.073 eV)
   109     109       --        49.848 au  C             1.00      5 S               5
                        (    1356.422 eV)
   110     110      0.667      -0.193 au  C             1.00      1 P:x             5
                        (      -5.239 eV)
   111     111       --         0.169 au  C             1.00      2 P:x             5
                        (       4.589 eV)
   112     112       --         2.013 au  C             1.00      3 P:x             5
                        (      54.789 eV)
   113     113      0.667      -0.193 au  C             1.00      1 P:y             5
                        (      -5.239 eV)
   114     114       --         0.169 au  C             1.00      2 P:y             5
                        (       4.589 eV)
   115     115       --         2.013 au  C             1.00      3 P:y             5
                        (      54.789 eV)
   116     116      0.667      -0.193 au  C             1.00      1 P:z             5
                        (      -5.239 eV)
   117     117       --         0.169 au  C             1.00      2 P:z             5
                        (       4.589 eV)
   118     118       --         2.013 au  C             1.00      3 P:z             5
                        (      54.789 eV)
   119     119       --         1.243 au  C             1.00      1 D:z2            5
                        (      33.824 eV)
   120     120       --         1.243 au  C             1.00      1 D:x2-y2         5
                        (      33.824 eV)
   121     121       --         1.243 au  C             1.00      1 D:xy            5
                        (      33.824 eV)
   122     122       --         1.243 au  C             1.00      1 D:xz            5
                        (      33.824 eV)
   123     123       --         1.243 au  C             1.00      1 D:yz            5
                        (      33.824 eV)
   124     124       --         4.016 au  C             1.00      1 F:z3            5
                        (     109.271 eV)
   125     125       --         4.016 au  C             1.00      1 F:z             5
                        (     109.271 eV)
   126     126       --         4.016 au  C             1.00      1 F:xyz           5
                        (     109.271 eV)
   127     127       --         4.016 au  C             1.00      1 F:z2x           5
                        (     109.271 eV)
   128     128       --         4.016 au  C             1.00      1 F:z2y           5
                        (     109.271 eV)
   129     129       --         4.016 au  C             1.00      1 F:x             5
                        (     109.271 eV)
   130     130       --         4.016 au  C             1.00      1 F:y             5
                        (     109.271 eV)
   131     131      2.000     -10.066 au  C             1.00      1 S               6
                        (    -273.921 eV)
   132     132      2.000      -0.501 au  C             1.00      2 S               6
                        (     -13.620 eV)
   133     133       --         0.373 au  C             1.00      3 S               6
                        (      10.158 eV)
   134     134       --         5.405 au  C             1.00      4 S               6
                        (     147.073 eV)
   135     135       --        49.848 au  C             1.00      5 S               6
                        (    1356.422 eV)
   136     136      0.667      -0.193 au  C             1.00      1 P:x             6
                        (      -5.239 eV)
   137     137       --         0.169 au  C             1.00      2 P:x             6
                        (       4.589 eV)
   138     138       --         2.013 au  C             1.00      3 P:x             6
                        (      54.789 eV)
   139     139      0.667      -0.193 au  C             1.00      1 P:y             6
                        (      -5.239 eV)
   140     140       --         0.169 au  C             1.00      2 P:y             6
                        (       4.589 eV)
   141     141       --         2.013 au  C             1.00      3 P:y             6
                        (      54.789 eV)
   142     142      0.667      -0.193 au  C             1.00      1 P:z             6
                        (      -5.239 eV)
   143     143       --         0.169 au  C             1.00      2 P:z             6
                        (       4.589 eV)
   144     144       --         2.013 au  C             1.00      3 P:z             6
                        (      54.789 eV)
   145     145       --         1.243 au  C             1.00      1 D:z2            6
                        (      33.824 eV)
   146     146       --         1.243 au  C             1.00      1 D:x2-y2         6
                        (      33.824 eV)
   147     147       --         1.243 au  C             1.00      1 D:xy            6
                        (      33.824 eV)
   148     148       --         1.243 au  C             1.00      1 D:xz            6
                        (      33.824 eV)
   149     149       --         1.243 au  C             1.00      1 D:yz            6
                        (      33.824 eV)
   150     150       --         4.016 au  C             1.00      1 F:z3            6
                        (     109.271 eV)
   151     151       --         4.016 au  C             1.00      1 F:z             6
                        (     109.271 eV)
   152     152       --         4.016 au  C             1.00      1 F:xyz           6
                        (     109.271 eV)
   153     153       --         4.016 au  C             1.00      1 F:z2x           6
                        (     109.271 eV)
   154     154       --         4.016 au  C             1.00      1 F:z2y           6
                        (     109.271 eV)
   155     155       --         4.016 au  C             1.00      1 F:x             6
                        (     109.271 eV)
   156     156       --         4.016 au  C             1.00      1 F:y             6
                        (     109.271 eV)
   157     157      2.000     -10.066 au  C             1.00      1 S               7
                        (    -273.921 eV)
   158     158      2.000      -0.501 au  C             1.00      2 S               7
                        (     -13.620 eV)
   159     159       --         0.373 au  C             1.00      3 S               7
                        (      10.158 eV)
   160     160       --         5.405 au  C             1.00      4 S               7
                        (     147.073 eV)
   161     161       --        49.848 au  C             1.00      5 S               7
                        (    1356.422 eV)
   162     162      0.667      -0.193 au  C             1.00      1 P:x             7
                        (      -5.239 eV)
   163     163       --         0.169 au  C             1.00      2 P:x             7
                        (       4.589 eV)
   164     164       --         2.013 au  C             1.00      3 P:x             7
                        (      54.789 eV)
   165     165      0.667      -0.193 au  C             1.00      1 P:y             7
                        (      -5.239 eV)
   166     166       --         0.169 au  C             1.00      2 P:y             7
                        (       4.589 eV)
   167     167       --         2.013 au  C             1.00      3 P:y             7
                        (      54.789 eV)
   168     168      0.667      -0.193 au  C             1.00      1 P:z             7
                        (      -5.239 eV)
   169     169       --         0.169 au  C             1.00      2 P:z             7
                        (       4.589 eV)
   170     170       --         2.013 au  C             1.00      3 P:z             7
                        (      54.789 eV)
   171     171       --         1.243 au  C             1.00      1 D:z2            7
                        (      33.824 eV)
   172     172       --         1.243 au  C             1.00      1 D:x2-y2         7
                        (      33.824 eV)
   173     173       --         1.243 au  C             1.00      1 D:xy            7
                        (      33.824 eV)
   174     174       --         1.243 au  C             1.00      1 D:xz            7
                        (      33.824 eV)
   175     175       --         1.243 au  C             1.00      1 D:yz            7
                        (      33.824 eV)
   176     176       --         4.016 au  C             1.00      1 F:z3            7
                        (     109.271 eV)
   177     177       --         4.016 au  C             1.00      1 F:z             7
                        (     109.271 eV)
   178     178       --         4.016 au  C             1.00      1 F:xyz           7
                        (     109.271 eV)
   179     179       --         4.016 au  C             1.00      1 F:z2x           7
                        (     109.271 eV)
   180     180       --         4.016 au  C             1.00      1 F:z2y           7
                        (     109.271 eV)
   181     181       --         4.016 au  C             1.00      1 F:x             7
                        (     109.271 eV)
   182     182       --         4.016 au  C             1.00      1 F:y             7
                        (     109.271 eV)
   183     183      2.000     -10.066 au  C             1.00      1 S               8
                        (    -273.921 eV)
   184     184      2.000      -0.501 au  C             1.00      2 S               8
                        (     -13.620 eV)
   185     185       --         0.373 au  C             1.00      3 S               8
                        (      10.158 eV)
   186     186       --         5.405 au  C             1.00      4 S               8
                        (     147.073 eV)
   187     187       --        49.848 au  C             1.00      5 S               8
                        (    1356.422 eV)
   188     188      0.667      -0.193 au  C             1.00      1 P:x             8
                        (      -5.239 eV)
   189     189       --         0.169 au  C             1.00      2 P:x             8
                        (       4.589 eV)
   190     190       --         2.013 au  C             1.00      3 P:x             8
                        (      54.789 eV)
   191     191      0.667      -0.193 au  C             1.00      1 P:y             8
                        (      -5.239 eV)
   192     192       --         0.169 au  C             1.00      2 P:y             8
                        (       4.589 eV)
   193     193       --         2.013 au  C             1.00      3 P:y             8
                        (      54.789 eV)
   194     194      0.667      -0.193 au  C             1.00      1 P:z             8
                        (      -5.239 eV)
   195     195       --         0.169 au  C             1.00      2 P:z             8
                        (       4.589 eV)
   196     196       --         2.013 au  C             1.00      3 P:z             8
                        (      54.789 eV)
   197     197       --         1.243 au  C             1.00      1 D:z2            8
                        (      33.824 eV)
   198     198       --         1.243 au  C             1.00      1 D:x2-y2         8
                        (      33.824 eV)
   199     199       --         1.243 au  C             1.00      1 D:xy            8
                        (      33.824 eV)
   200     200       --         1.243 au  C             1.00      1 D:xz            8
                        (      33.824 eV)
   201     201       --         1.243 au  C             1.00      1 D:yz            8
                        (      33.824 eV)
   202     202       --         4.016 au  C             1.00      1 F:z3            8
                        (     109.271 eV)
   203     203       --         4.016 au  C             1.00      1 F:z             8
                        (     109.271 eV)
   204     204       --         4.016 au  C             1.00      1 F:xyz           8
                        (     109.271 eV)
   205     205       --         4.016 au  C             1.00      1 F:z2x           8
                        (     109.271 eV)
   206     206       --         4.016 au  C             1.00      1 F:z2y           8
                        (     109.271 eV)
   207     207       --         4.016 au  C             1.00      1 F:x             8
                        (     109.271 eV)
   208     208       --         4.016 au  C             1.00      1 F:y             8
                        (     109.271 eV)
   209     209      2.000     -18.941 au  O             1.00      1 S               9
                        (    -515.403 eV)
   210     210      2.000      -0.876 au  O             1.00      2 S               9
                        (     -23.838 eV)
   211     211       --         0.791 au  O             1.00      3 S               9
                        (      21.524 eV)
   212     212       --        13.422 au  O             1.00      4 S               9
                        (     365.226 eV)
   213     213       --       121.561 au  O             1.00      5 S               9
                        (    3307.838 eV)
   214     214      1.333      -0.331 au  O             1.00      1 P:x             9
                        (      -9.020 eV)
   215     215       --         0.347 au  O             1.00      2 P:x             9
                        (       9.437 eV)
   216     216       --         3.820 au  O             1.00      3 P:x             9
                        (     103.939 eV)
   217     217      1.333      -0.331 au  O             1.00      1 P:y             9
                        (      -9.020 eV)
   218     218       --         0.347 au  O             1.00      2 P:y             9
                        (       9.437 eV)
   219     219       --         3.820 au  O             1.00      3 P:y             9
                        (     103.939 eV)
   220     220      1.333      -0.331 au  O             1.00      1 P:z             9
                        (      -9.020 eV)
   221     221       --         0.347 au  O             1.00      2 P:z             9
                        (       9.437 eV)
   222     222       --         3.820 au  O             1.00      3 P:z             9
                        (     103.939 eV)
   223     223       --         1.071 au  O             1.00      1 D:z2            9
                        (      29.134 eV)
   224     224       --         1.071 au  O             1.00      1 D:x2-y2         9
                        (      29.134 eV)
   225     225       --         1.071 au  O             1.00      1 D:xy            9
                        (      29.134 eV)
   226     226       --         1.071 au  O             1.00      1 D:xz            9
                        (      29.134 eV)
   227     227       --         1.071 au  O             1.00      1 D:yz            9
                        (      29.134 eV)
   228     228       --         3.359 au  O             1.00      1 F:z3            9
                        (      91.410 eV)
   229     229       --         3.359 au  O             1.00      1 F:z             9
                        (      91.410 eV)
   230     230       --         3.359 au  O             1.00      1 F:xyz           9
                        (      91.410 eV)
   231     231       --         3.359 au  O             1.00      1 F:z2x           9
                        (      91.410 eV)
   232     232       --         3.359 au  O             1.00      1 F:z2y           9
                        (      91.410 eV)
   233     233       --         3.359 au  O             1.00      1 F:x             9
                        (      91.410 eV)
   234     234       --         3.359 au  O             1.00      1 F:y             9
                        (      91.410 eV)
   235     235      2.000     -18.941 au  O             1.00      1 S              10
                        (    -515.403 eV)
   236     236      2.000      -0.876 au  O             1.00      2 S              10
                        (     -23.838 eV)
   237     237       --         0.791 au  O             1.00      3 S              10
                        (      21.524 eV)
   238     238       --        13.422 au  O             1.00      4 S              10
                        (     365.226 eV)
   239     239       --       121.561 au  O             1.00      5 S              10
                        (    3307.838 eV)
   240     240      1.333      -0.331 au  O             1.00      1 P:x            10
                        (      -9.020 eV)
   241     241       --         0.347 au  O             1.00      2 P:x            10
                        (       9.437 eV)
   242     242       --         3.820 au  O             1.00      3 P:x            10
                        (     103.939 eV)
   243     243      1.333      -0.331 au  O             1.00      1 P:y            10
                        (      -9.020 eV)
   244     244       --         0.347 au  O             1.00      2 P:y            10
                        (       9.437 eV)
   245     245       --         3.820 au  O             1.00      3 P:y            10
                        (     103.939 eV)
   246     246      1.333      -0.331 au  O             1.00      1 P:z            10
                        (      -9.020 eV)
   247     247       --         0.347 au  O             1.00      2 P:z            10
                        (       9.437 eV)
   248     248       --         3.820 au  O             1.00      3 P:z            10
                        (     103.939 eV)
   249     249       --         1.071 au  O             1.00      1 D:z2           10
                        (      29.134 eV)
   250     250       --         1.071 au  O             1.00      1 D:x2-y2        10
                        (      29.134 eV)
   251     251       --         1.071 au  O             1.00      1 D:xy           10
                        (      29.134 eV)
   252     252       --         1.071 au  O             1.00      1 D:xz           10
                        (      29.134 eV)
   253     253       --         1.071 au  O             1.00      1 D:yz           10
                        (      29.134 eV)
   254     254       --         3.359 au  O             1.00      1 F:z3           10
                        (      91.410 eV)
   255     255       --         3.359 au  O             1.00      1 F:z            10
                        (      91.410 eV)
   256     256       --         3.359 au  O             1.00      1 F:xyz          10
                        (      91.410 eV)
   257     257       --         3.359 au  O             1.00      1 F:z2x          10
                        (      91.410 eV)
   258     258       --         3.359 au  O             1.00      1 F:z2y          10
                        (      91.410 eV)
   259     259       --         3.359 au  O             1.00      1 F:x            10
                        (      91.410 eV)
   260     260       --         3.359 au  O             1.00      1 F:y            10
                        (      91.410 eV)
   261     261      2.000     -18.941 au  O             1.00      1 S              11
                        (    -515.403 eV)
   262     262      2.000      -0.876 au  O             1.00      2 S              11
                        (     -23.838 eV)
   263     263       --         0.791 au  O             1.00      3 S              11
                        (      21.524 eV)
   264     264       --        13.422 au  O             1.00      4 S              11
                        (     365.226 eV)
   265     265       --       121.561 au  O             1.00      5 S              11
                        (    3307.838 eV)
   266     266      1.333      -0.331 au  O             1.00      1 P:x            11
                        (      -9.020 eV)
   267     267       --         0.347 au  O             1.00      2 P:x            11
                        (       9.437 eV)
   268     268       --         3.820 au  O             1.00      3 P:x            11
                        (     103.939 eV)
   269     269      1.333      -0.331 au  O             1.00      1 P:y            11
                        (      -9.020 eV)
   270     270       --         0.347 au  O             1.00      2 P:y            11
                        (       9.437 eV)
   271     271       --         3.820 au  O             1.00      3 P:y            11
                        (     103.939 eV)
   272     272      1.333      -0.331 au  O             1.00      1 P:z            11
                        (      -9.020 eV)
   273     273       --         0.347 au  O             1.00      2 P:z            11
                        (       9.437 eV)
   274     274       --         3.820 au  O             1.00      3 P:z            11
                        (     103.939 eV)
   275     275       --         1.071 au  O             1.00      1 D:z2           11
                        (      29.134 eV)
   276     276       --         1.071 au  O             1.00      1 D:x2-y2        11
                        (      29.134 eV)
   277     277       --         1.071 au  O             1.00      1 D:xy           11
                        (      29.134 eV)
   278     278       --         1.071 au  O             1.00      1 D:xz           11
                        (      29.134 eV)
   279     279       --         1.071 au  O             1.00      1 D:yz           11
                        (      29.134 eV)
   280     280       --         3.359 au  O             1.00      1 F:z3           11
                        (      91.410 eV)
   281     281       --         3.359 au  O             1.00      1 F:z            11
                        (      91.410 eV)
   282     282       --         3.359 au  O             1.00      1 F:xyz          11
                        (      91.410 eV)
   283     283       --         3.359 au  O             1.00      1 F:z2x          11
                        (      91.410 eV)
   284     284       --         3.359 au  O             1.00      1 F:z2y          11
                        (      91.410 eV)
   285     285       --         3.359 au  O             1.00      1 F:x            11
                        (      91.410 eV)
   286     286       --         3.359 au  O             1.00      1 F:y            11
                        (      91.410 eV)
   287     287      2.000     -14.160 au  N             1.00      1 S              12
                        (    -385.319 eV)
   288     288      2.000      -0.678 au  N             1.00      2 S              12
                        (     -18.450 eV)
   289     289       --         0.517 au  N             1.00      3 S              12
                        (      14.073 eV)
   290     290       --         6.872 au  N             1.00      4 S              12
                        (     186.990 eV)
   291     291       --        63.432 au  N             1.00      5 S              12
                        (    1726.082 eV)
   292     292      1.000      -0.260 au  N             1.00      1 P:x            12
                        (      -7.062 eV)
   293     293       --         0.281 au  N             1.00      2 P:x            12
                        (       7.649 eV)
   294     294       --         3.275 au  N             1.00      3 P:x            12
                        (      89.105 eV)
   295     295      1.000      -0.260 au  N             1.00      1 P:y            12
                        (      -7.062 eV)
   296     296       --         0.281 au  N             1.00      2 P:y            12
                        (       7.649 eV)
   297     297       --         3.275 au  N             1.00      3 P:y            12
                        (      89.105 eV)
   298     298      1.000      -0.260 au  N             1.00      1 P:z            12
                        (      -7.062 eV)
   299     299       --         0.281 au  N             1.00      2 P:z            12
                        (       7.649 eV)
   300     300       --         3.275 au  N             1.00      3 P:z            12
                        (      89.105 eV)
   301     301       --         1.250 au  N             1.00      1 D:z2           12
                        (      34.005 eV)
   302     302       --         1.250 au  N             1.00      1 D:x2-y2        12
                        (      34.005 eV)
   303     303       --         1.250 au  N             1.00      1 D:xy           12
                        (      34.005 eV)
   304     304       --         1.250 au  N             1.00      1 D:xz           12
                        (      34.005 eV)
   305     305       --         1.250 au  N             1.00      1 D:yz           12
                        (      34.005 eV)
   306     306       --         4.013 au  N             1.00      1 F:z3           12
                        (     109.190 eV)
   307     307       --         4.013 au  N             1.00      1 F:z            12
                        (     109.190 eV)
   308     308       --         4.013 au  N             1.00      1 F:xyz          12
                        (     109.190 eV)
   309     309       --         4.013 au  N             1.00      1 F:z2x          12
                        (     109.190 eV)
   310     310       --         4.013 au  N             1.00      1 F:z2y          12
                        (     109.190 eV)
   311     311       --         4.013 au  N             1.00      1 F:x            12
                        (     109.190 eV)
   312     312       --         4.013 au  N             1.00      1 F:y            12
                        (     109.190 eV)
   313     313      2.000     -14.160 au  N             1.00      1 S              13
                        (    -385.319 eV)
   314     314      2.000      -0.678 au  N             1.00      2 S              13
                        (     -18.450 eV)
   315     315       --         0.517 au  N             1.00      3 S              13
                        (      14.073 eV)
   316     316       --         6.872 au  N             1.00      4 S              13
                        (     186.990 eV)
   317     317       --        63.432 au  N             1.00      5 S              13
                        (    1726.082 eV)
   318     318      1.000      -0.260 au  N             1.00      1 P:x            13
                        (      -7.062 eV)
   319     319       --         0.281 au  N             1.00      2 P:x            13
                        (       7.649 eV)
   320     320       --         3.275 au  N             1.00      3 P:x            13
                        (      89.105 eV)
   321     321      1.000      -0.260 au  N             1.00      1 P:y            13
                        (      -7.062 eV)
   322     322       --         0.281 au  N             1.00      2 P:y            13
                        (       7.649 eV)
   323     323       --         3.275 au  N             1.00      3 P:y            13
                        (      89.105 eV)
   324     324      1.000      -0.260 au  N             1.00      1 P:z            13
                        (      -7.062 eV)
   325     325       --         0.281 au  N             1.00      2 P:z            13
                        (       7.649 eV)
   326     326       --         3.275 au  N             1.00      3 P:z            13
                        (      89.105 eV)
   327     327       --         1.250 au  N             1.00      1 D:z2           13
                        (      34.005 eV)
   328     328       --         1.250 au  N             1.00      1 D:x2-y2        13
                        (      34.005 eV)
   329     329       --         1.250 au  N             1.00      1 D:xy           13
                        (      34.005 eV)
   330     330       --         1.250 au  N             1.00      1 D:xz           13
                        (      34.005 eV)
   331     331       --         1.250 au  N             1.00      1 D:yz           13
                        (      34.005 eV)
   332     332       --         4.013 au  N             1.00      1 F:z3           13
                        (     109.190 eV)
   333     333       --         4.013 au  N             1.00      1 F:z            13
                        (     109.190 eV)
   334     334       --         4.013 au  N             1.00      1 F:xyz          13
                        (     109.190 eV)
   335     335       --         4.013 au  N             1.00      1 F:z2x          13
                        (     109.190 eV)
   336     336       --         4.013 au  N             1.00      1 F:z2y          13
                        (     109.190 eV)
   337     337       --         4.013 au  N             1.00      1 F:x            13
                        (     109.190 eV)
   338     338       --         4.013 au  N             1.00      1 F:y            13
                        (     109.190 eV)
   339     339      1.000      -0.240 au  H             1.00      1 S              14
                        (      -6.532 eV)
   340     340       --         0.088 au  H             1.00      2 S              14
                        (       2.394 eV)
   341     341       --         1.502 au  H             1.00      3 S              14
                        (      40.869 eV)
   342     342       --         0.406 au  H             1.00      1 P:x            14
                        (      11.051 eV)
   343     343       --         0.406 au  H             1.00      1 P:y            14
                        (      11.051 eV)
   344     344       --         0.406 au  H             1.00      1 P:z            14
                        (      11.051 eV)
   345     345       --         2.569 au  H             1.00      1 D:z2           14
                        (      69.917 eV)
   346     346       --         2.569 au  H             1.00      1 D:x2-y2        14
                        (      69.917 eV)
   347     347       --         2.569 au  H             1.00      1 D:xy           14
                        (      69.917 eV)
   348     348       --         2.569 au  H             1.00      1 D:xz           14
                        (      69.917 eV)
   349     349       --         2.569 au  H             1.00      1 D:yz           14
                        (      69.917 eV)
   350     350      1.000      -0.240 au  H             1.00      1 S              15
                        (      -6.532 eV)
   351     351       --         0.088 au  H             1.00      2 S              15
                        (       2.394 eV)
   352     352       --         1.502 au  H             1.00      3 S              15
                        (      40.869 eV)
   353     353       --         0.406 au  H             1.00      1 P:x            15
                        (      11.051 eV)
   354     354       --         0.406 au  H             1.00      1 P:y            15
                        (      11.051 eV)
   355     355       --         0.406 au  H             1.00      1 P:z            15
                        (      11.051 eV)
   356     356       --         2.569 au  H             1.00      1 D:z2           15
                        (      69.917 eV)
   357     357       --         2.569 au  H             1.00      1 D:x2-y2        15
                        (      69.917 eV)
   358     358       --         2.569 au  H             1.00      1 D:xy           15
                        (      69.917 eV)
   359     359       --         2.569 au  H             1.00      1 D:xz           15
                        (      69.917 eV)
   360     360       --         2.569 au  H             1.00      1 D:yz           15
                        (      69.917 eV)
   361     361      1.000      -0.240 au  H             1.00      1 S              16
                        (      -6.532 eV)
   362     362       --         0.088 au  H             1.00      2 S              16
                        (       2.394 eV)
   363     363       --         1.502 au  H             1.00      3 S              16
                        (      40.869 eV)
   364     364       --         0.406 au  H             1.00      1 P:x            16
                        (      11.051 eV)
   365     365       --         0.406 au  H             1.00      1 P:y            16
                        (      11.051 eV)
   366     366       --         0.406 au  H             1.00      1 P:z            16
                        (      11.051 eV)
   367     367       --         2.569 au  H             1.00      1 D:z2           16
                        (      69.917 eV)
   368     368       --         2.569 au  H             1.00      1 D:x2-y2        16
                        (      69.917 eV)
   369     369       --         2.569 au  H             1.00      1 D:xy           16
                        (      69.917 eV)
   370     370       --         2.569 au  H             1.00      1 D:xz           16
                        (      69.917 eV)
   371     371       --         2.569 au  H             1.00      1 D:yz           16
                        (      69.917 eV)
   372     372      1.000      -0.240 au  H             1.00      1 S              17
                        (      -6.532 eV)
   373     373       --         0.088 au  H             1.00      2 S              17
                        (       2.394 eV)
   374     374       --         1.502 au  H             1.00      3 S              17
                        (      40.869 eV)
   375     375       --         0.406 au  H             1.00      1 P:x            17
                        (      11.051 eV)
   376     376       --         0.406 au  H             1.00      1 P:y            17
                        (      11.051 eV)
   377     377       --         0.406 au  H             1.00      1 P:z            17
                        (      11.051 eV)
   378     378       --         2.569 au  H             1.00      1 D:z2           17
                        (      69.917 eV)
   379     379       --         2.569 au  H             1.00      1 D:x2-y2        17
                        (      69.917 eV)
   380     380       --         2.569 au  H             1.00      1 D:xy           17
                        (      69.917 eV)
   381     381       --         2.569 au  H             1.00      1 D:xz           17
                        (      69.917 eV)
   382     382       --         2.569 au  H             1.00      1 D:yz           17
                        (      69.917 eV)
   383     383      1.000      -0.240 au  H             1.00      1 S              18
                        (      -6.532 eV)
   384     384       --         0.088 au  H             1.00      2 S              18
                        (       2.394 eV)
   385     385       --         1.502 au  H             1.00      3 S              18
                        (      40.869 eV)
   386     386       --         0.406 au  H             1.00      1 P:x            18
                        (      11.051 eV)
   387     387       --         0.406 au  H             1.00      1 P:y            18
                        (      11.051 eV)
   388     388       --         0.406 au  H             1.00      1 P:z            18
                        (      11.051 eV)
   389     389       --         2.569 au  H             1.00      1 D:z2           18
                        (      69.917 eV)
   390     390       --         2.569 au  H             1.00      1 D:x2-y2        18
                        (      69.917 eV)
   391     391       --         2.569 au  H             1.00      1 D:xy           18
                        (      69.917 eV)
   392     392       --         2.569 au  H             1.00      1 D:xz           18
                        (      69.917 eV)
   393     393       --         2.569 au  H             1.00      1 D:yz           18
                        (      69.917 eV)
   394     394      1.000      -0.240 au  H             1.00      1 S              19
                        (      -6.532 eV)
   395     395       --         0.088 au  H             1.00      2 S              19
                        (       2.394 eV)
   396     396       --         1.502 au  H             1.00      3 S              19
                        (      40.869 eV)
   397     397       --         0.406 au  H             1.00      1 P:x            19
                        (      11.051 eV)
   398     398       --         0.406 au  H             1.00      1 P:y            19
                        (      11.051 eV)
   399     399       --         0.406 au  H             1.00      1 P:z            19
                        (      11.051 eV)
   400     400       --         2.569 au  H             1.00      1 D:z2           19
                        (      69.917 eV)
   401     401       --         2.569 au  H             1.00      1 D:x2-y2        19
                        (      69.917 eV)
   402     402       --         2.569 au  H             1.00      1 D:xy           19
                        (      69.917 eV)
   403     403       --         2.569 au  H             1.00      1 D:xz           19
                        (      69.917 eV)
   404     404       --         2.569 au  H             1.00      1 D:yz           19
                        (      69.917 eV)
   405     405      1.000      -0.240 au  H             1.00      1 S              20
                        (      -6.532 eV)
   406     406       --         0.088 au  H             1.00      2 S              20
                        (       2.394 eV)
   407     407       --         1.502 au  H             1.00      3 S              20
                        (      40.869 eV)
   408     408       --         0.406 au  H             1.00      1 P:x            20
                        (      11.051 eV)
   409     409       --         0.406 au  H             1.00      1 P:y            20
                        (      11.051 eV)
   410     410       --         0.406 au  H             1.00      1 P:z            20
                        (      11.051 eV)
   411     411       --         2.569 au  H             1.00      1 D:z2           20
                        (      69.917 eV)
   412     412       --         2.569 au  H             1.00      1 D:x2-y2        20
                        (      69.917 eV)
   413     413       --         2.569 au  H             1.00      1 D:xy           20
                        (      69.917 eV)
   414     414       --         2.569 au  H             1.00      1 D:xz           20
                        (      69.917 eV)
   415     415       --         2.569 au  H             1.00      1 D:yz           20
                        (      69.917 eV)
   416     416      1.000      -0.240 au  H             1.00      1 S              21
                        (      -6.532 eV)
   417     417       --         0.088 au  H             1.00      2 S              21
                        (       2.394 eV)
   418     418       --         1.502 au  H             1.00      3 S              21
                        (      40.869 eV)
   419     419       --         0.406 au  H             1.00      1 P:x            21
                        (      11.051 eV)
   420     420       --         0.406 au  H             1.00      1 P:y            21
                        (      11.051 eV)
   421     421       --         0.406 au  H             1.00      1 P:z            21
                        (      11.051 eV)
   422     422       --         2.569 au  H             1.00      1 D:z2           21
                        (      69.917 eV)
   423     423       --         2.569 au  H             1.00      1 D:x2-y2        21
                        (      69.917 eV)
   424     424       --         2.569 au  H             1.00      1 D:xy           21
                        (      69.917 eV)
   425     425       --         2.569 au  H             1.00      1 D:xz           21
                        (      69.917 eV)
   426     426       --         2.569 au  H             1.00      1 D:yz           21
                        (      69.917 eV)
   427     427      1.000      -0.240 au  H             1.00      1 S              22
                        (      -6.532 eV)
   428     428       --         0.088 au  H             1.00      2 S              22
                        (       2.394 eV)
   429     429       --         1.502 au  H             1.00      3 S              22
                        (      40.869 eV)
   430     430       --         0.406 au  H             1.00      1 P:x            22
                        (      11.051 eV)
   431     431       --         0.406 au  H             1.00      1 P:y            22
                        (      11.051 eV)
   432     432       --         0.406 au  H             1.00      1 P:z            22
                        (      11.051 eV)
   433     433       --         2.569 au  H             1.00      1 D:z2           22
                        (      69.917 eV)
   434     434       --         2.569 au  H             1.00      1 D:x2-y2        22
                        (      69.917 eV)
   435     435       --         2.569 au  H             1.00      1 D:xy           22
                        (      69.917 eV)
   436     436       --         2.569 au  H             1.00      1 D:xz           22
                        (      69.917 eV)
   437     437       --         2.569 au  H             1.00      1 D:yz           22
                        (      69.917 eV)
   438     438      1.000      -0.240 au  H             1.00      1 S              23
                        (      -6.532 eV)
   439     439       --         0.088 au  H             1.00      2 S              23
                        (       2.394 eV)
   440     440       --         1.502 au  H             1.00      3 S              23
                        (      40.869 eV)
   441     441       --         0.406 au  H             1.00      1 P:x            23
                        (      11.051 eV)
   442     442       --         0.406 au  H             1.00      1 P:y            23
                        (      11.051 eV)
   443     443       --         0.406 au  H             1.00      1 P:z            23
                        (      11.051 eV)
   444     444       --         2.569 au  H             1.00      1 D:z2           23
                        (      69.917 eV)
   445     445       --         2.569 au  H             1.00      1 D:x2-y2        23
                        (      69.917 eV)
   446     446       --         2.569 au  H             1.00      1 D:xy           23
                        (      69.917 eV)
   447     447       --         2.569 au  H             1.00      1 D:xz           23
                        (      69.917 eV)
   448     448       --         2.569 au  H             1.00      1 D:yz           23
                        (      69.917 eV)



 ================================
 (Slater-type)  F U N C T I O N S  ***  (Basis and Fit)  ***
 ================================
  

 Atom Type    1  (C)
 ==============

 Valence Basis Sets:  10
 -----------------------
   1 S    7.680000
   1 S    5.000000
   2 S    1.280000
   2 S    2.100000
   2 S    4.600000
   2 P    0.820000
   2 P    1.480000
   2 P    2.940000
   3 D    2.200000
   4 F    3.300000

 Atom Type    2  (O)
 ==============

 Valence Basis Sets:  10
 -----------------------
   1 S    9.800000
   1 S    6.800000
   2 S    7.580000
   2 S    2.880000
   2 S    1.720000
   2 P    4.080000
   2 P    2.080000
   2 P    1.120000
   3 D    2.000000
   4 F    3.000000

 Atom Type    3  (N)
 ==============

 Valence Basis Sets:  10
 -----------------------
   1 S    8.740000
   1 S    5.900000
   2 S    5.150000
   2 S    2.500000
   2 S    1.500000
   2 P    3.680000
   2 P    1.880000
   2 P    1.000000
   3 D    2.200000
   4 F    3.300000

 Atom Type    4  (H)
 ==============

 Valence Basis Sets:   5
 -----------------------
   1 S    0.690000
   1 S    0.920000
   1 S    1.580000
   2 P    1.250000
   3 D    2.500000


 BAS: List of all Elementary Cartesian Basis Functions
 =====================================================

 The numbering in the list below (to the right of the function characteristics) is referred
 to in print-outs of MO eigenvectors and Mulliken populations in the BAS representation
 (as contrasted to the SFO representation).

 Notes:
 1. The functions are characterized by a polynomial prefactor (powers of x,y,z and r) and
    an exponential decay factor alpha.
 2. Since the basis sets are specific for an atom TYPE, the individual functions occur on
    all atoms of that type.
 3. The word 'Core' in the left margin signals that it is a Core Function (CF) : not a
    degree of freedom in the valence set, but only used to ensure orthogonalization of
    the other valence basis functions on the frozen Core Orbitals.


 (power of) X  Y  Z  R     Alpha  on Atom
            ==========     =====     ==========

 C                                    1    2    3    4    5    6    7    8
                                  ---------------------------------------------------------------------------
            0  0  0  0     7.680      1   31   61   91  121  151  181  211
            0  0  0  0     5.000      2   32   62   92  122  152  182  212
            0  0  0  1     1.280      3   33   63   93  123  153  183  213
            0  0  0  1     2.100      4   34   64   94  124  154  184  214
            0  0  0  1     4.600      5   35   65   95  125  155  185  215
            1  0  0  0     0.820      6   36   66   96  126  156  186  216
            0  1  0  0     0.820      7   37   67   97  127  157  187  217
            0  0  1  0     0.820      8   38   68   98  128  158  188  218
            1  0  0  0     1.480      9   39   69   99  129  159  189  219
            0  1  0  0     1.480     10   40   70  100  130  160  190  220
            0  0  1  0     1.480     11   41   71  101  131  161  191  221
            1  0  0  0     2.940     12   42   72  102  132  162  192  222
            0  1  0  0     2.940     13   43   73  103  133  163  193  223
            0  0  1  0     2.940     14   44   74  104  134  164  194  224
            2  0  0  0     2.200     15   45   75  105  135  165  195  225
            1  1  0  0     2.200     16   46   76  106  136  166  196  226
            1  0  1  0     2.200     17   47   77  107  137  167  197  227
            0  2  0  0     2.200     18   48   78  108  138  168  198  228
            0  1  1  0     2.200     19   49   79  109  139  169  199  229
            0  0  2  0     2.200     20   50   80  110  140  170  200  230
            3  0  0  0     3.300     21   51   81  111  141  171  201  231
            2  1  0  0     3.300     22   52   82  112  142  172  202  232
            2  0  1  0     3.300     23   53   83  113  143  173  203  233
            1  2  0  0     3.300     24   54   84  114  144  174  204  234
            1  1  1  0     3.300     25   55   85  115  145  175  205  235
            1  0  2  0     3.300     26   56   86  116  146  176  206  236
            0  3  0  0     3.300     27   57   87  117  147  177  207  237
            0  2  1  0     3.300     28   58   88  118  148  178  208  238
            0  1  2  0     3.300     29   59   89  119  149  179  209  239
            0  0  3  0     3.300     30   60   90  120  150  180  210  240

 O                                    9   10   11
                                  ---------------------------------------------------------------------------
            0  0  0  0     9.800    241  271  301
            0  0  0  0     6.800    242  272  302
            0  0  0  1     7.580    243  273  303
            0  0  0  1     2.880    244  274  304
            0  0  0  1     1.720    245  275  305
            1  0  0  0     4.080    246  276  306
            0  1  0  0     4.080    247  277  307
[...]
                                    2.65%     1 P:x            -5.239  0.67     1 C
                                    2.27%     2 P:z             4.589  0.00     2 C
                                    2.26%     1 P:z            -7.062  1.00    13 N
                                    2.14%     2 S               2.394  0.00    22 H
                                    2.02%     1 P:x            -5.239  0.67     6 C
                                    1.98%     1 S              -6.532  1.00    19 H
                                    1.85%     3 S              40.869  0.00    15 H
                                    1.84%     1 P:z            -5.239  0.67     5 C
                                    1.67%     2 S               2.394  0.00    18 H
                                    1.64%     1 S              -6.532  1.00    20 H
                                    1.57%     3 S              40.869  0.00    16 H
                                    1.53%     2 S               2.394  0.00    21 H
                                    1.51%     2 P:y             4.589  0.00     4 C
                                    1.41%     2 S               2.394  0.00    19 H
                                   -1.32%     1 P:z            -5.239  0.67     1 C
                                   -1.23%     2 P:x             4.589  0.00     8 C
                                    1.20%     1 P:z            -9.020  1.33     9 O
                                   -1.13%     2 P:x             4.589  0.00     2 C
                                    1.05%     1 S              -6.532  1.00    21 H
                                    1.00%     1 P:x            -7.062  1.00    13 N
       1.289  0.00    61 A         18.00%     2 S               2.394  0.00    18 H
                                   17.61%     1 S              -6.532  1.00    23 H
                                  -16.44%     2 P:y             4.589  0.00     8 C
                                   13.02%     1 S              -6.532  1.00    18 H
                                   11.81%     2 S               2.394  0.00    23 H
                                    7.66%     1 P:z            -5.239  0.67     1 C
                                    7.51%     1 S              -6.532  1.00    21 H
                                    6.30%     2 S               2.394  0.00    17 H
                                    5.40%     2 S               2.394  0.00    21 H
                                    4.41%     1 S              -6.532  1.00    14 H
                                   -4.10%     2 S               2.394  0.00    19 H
                                   -3.34%     2 P:z             4.589  0.00     1 C
                                    3.33%     2 P:y             4.589  0.00     1 C
                                   -3.31%     2 P:y             4.589  0.00     4 C
                                    3.10%     2 P:x             4.589  0.00     4 C
                                    2.85%     1 P:y            -5.239  0.67     1 C
                                    2.76%     1 P:y            -5.239  0.67     8 C
                                    2.71%     1 S              -6.532  1.00    20 H
                                    2.66%     1 P:x            -5.239  0.67     1 C
                                   -2.38%     3 S              10.158  0.00     4 C
                                    2.25%     2 P:y             4.589  0.00     7 C
                                    2.09%     1 S              -6.532  1.00    17 H
                                    1.68%     2 S             -13.620  2.00     3 C
                                   -1.67%     2 P:z             4.589  0.00     8 C
                                    1.63%     2 S               2.394  0.00    14 H
                                   -1.58%     1 S              -6.532  1.00    19 H
                                   -1.57%     2 P:z             4.589  0.00     5 C
                                    1.54%     3 S              40.869  0.00    23 H
                                   -1.53%     2 P:z             4.589  0.00     2 C
                                    1.52%     1 P:x            -5.239  0.67     4 C
                                    1.42%     2 P:z             4.589  0.00     6 C
                                    1.41%     1 S              -6.532  1.00    16 H
                                   -1.38%     2 P:z             9.437  0.00     9 O
                                    1.37%     2 S               2.394  0.00    15 H
                                    1.27%     1 P:y            -9.020  1.33     9 O
                                    1.15%     2 S             -13.620  2.00     4 C



 =======================================================================
 Electrostatic potential at the Nuclei due to electrons and other nuclei
 =======================================================================
  
         Atom                  Potential
         ----                  ---------
     1)   C                  14.71249758
     2)   O                  22.32718308
     3)   C                  14.64780319
     4)   O                  22.39533807
     5)   C                  14.70832766
     6)   C                  14.77101346
     7)   N                  18.30398519
     8)   C                  14.70145003
     9)   C                  14.76116751
    10)   N                  18.43562182
    11)   C                  14.68524650
    12)   C                  14.77514846
    13)   O                  22.40211423
    14)   H                   1.08094492
    15)   H                   1.08243481
    16)   H                   1.08301555
    17)   H                   1.09768083
    18)   H                   1.10032985
    19)   H                   1.08869409
    20)   H                   0.96557382
    21)   H                   1.09868297
    22)   H                   1.08708974
    23)   H                   1.08582562
 Mulliken charges used for AMS results%charges...


    =====================
     CALCULATION RESULTS
    =====================

Energy (hartree)            -5.06111237


--------------
Atomic charges
--------------
  Index   Atom    Charge
      1      C    0.9609
      2      O   -0.5282
      3      C    0.7250
      4      O   -0.5888
      5      C    0.0183
      6      C    0.6296
      7      N    0.0418
      8      C    0.0443
      9      C    0.0548
     10      N   -0.2572
     11      C    0.4331
     12      C    0.5772
     13      O   -0.5207
     14      H   -0.2296
     15      H   -0.1798
     16      H   -0.1766
     17      H   -0.1942
     18      H   -0.1162
     19      H   -0.2026
     20      H    0.0119
     21      H   -0.1893
     22      H   -0.1548
     23      H   -0.1589


Dipole moment vector    (Debye):    -4.53313671   -0.20148442    1.07093514
              magnitude (Debye):     4.66227697


-----------------------
Molecular orbitals info
-----------------------
n orbitals:              448
n spin:                    1

Note: only printing virtual orbitals with
      energy smaller than HOMO + 100. eV

HOMO (eV):              -5.5908
LUMO (eV):              -3.8800
HOMO-LUMO gap (eV):      1.7107

   Index   Energy (eV)    Occupation
     285       94.3751         0.000       
     284       94.1137         0.000       
     283       93.9178         0.000       
     282       93.5856         0.000       
     281       93.3670         0.000       
     280       93.2197         0.000       
     279       93.0698         0.000       
     278       92.7362         0.000       
     277       92.2701         0.000       
     276       92.1028         0.000       
     275       91.3433         0.000       
     274       91.2574         0.000       
     273       90.7670         0.000       
     272       89.8838         0.000       
     271       89.0321         0.000       
     270       88.7117         0.000       
     269       87.7132         0.000       
     268       87.0219         0.000       
     267       86.4244         0.000       
     266       85.4692         0.000       
     265       84.7399         0.000       
     264       84.3018         0.000       
     263       84.0540         0.000       
     262       83.6651         0.000       
     261       83.1087         0.000       
     260       82.2412         0.000       
     259       81.5151         0.000       
     258       81.2309         0.000       
     257       80.6814         0.000       
     256       80.2164         0.000       
     255       79.4467         0.000       
     254       79.1127         0.000       
     253       78.4773         0.000       
     252       78.3783         0.000       
     251       78.0595         0.000       
     250       77.4501         0.000       
     249       77.1285         0.000       
     248       76.6749         0.000       
     247       76.5346         0.000       
     246       76.3221         0.000       
     245       76.1773         0.000       
     244       75.9534         0.000       
     243       75.7297         0.000       
     242       75.4507         0.000       
     241       75.0787         0.000       
     240       74.3181         0.000       
     239       73.0857         0.000       
     238       72.8952         0.000       
     237       72.1036         0.000       
     236       71.4298         0.000       
     235       70.3621         0.000       
     234       69.5800         0.000       
     233       68.5816         0.000       
     232       68.1648         0.000       
     231       67.4235         0.000       
     230       67.1970         0.000       
     229       66.3869         0.000       
     228       65.7732         0.000       
     227       65.0224         0.000       
     226       64.5396         0.000       
     225       63.9986         0.000       
     224       63.7599         0.000       
     223       63.1341         0.000       
     222       62.8728         0.000       
     221       62.3890         0.000       
     220       61.2779         0.000       
     219       60.7332         0.000       
     218       60.0871         0.000       
     217       59.7458         0.000       
     216       59.1983         0.000       
     215       58.2741         0.000       
     214       58.0475         0.000       
     213       56.9006         0.000       
     212       56.3332         0.000       
     211       56.0353         0.000       
     210       55.8041         0.000       
     209       55.2198         0.000       
     208       55.1344         0.000       
     207       54.4270         0.000       
     206       53.9180         0.000       
     205       53.2362         0.000       
     204       52.2772         0.000       
     203       52.2399         0.000       
     202       51.9584         0.000       
     201       51.1621         0.000       
     200       50.8387         0.000       
     199       49.6139         0.000       
     198       49.5569         0.000       
     197       49.0802         0.000       
     196       48.9512         0.000       
     195       48.6591         0.000       
     194       48.3501         0.000       
     193       47.8146         0.000       
     192       47.4358         0.000       
     191       46.6148         0.000       
     190       46.1067         0.000       
     189       45.6172         0.000       
     188       45.3310         0.000       
     187       45.0539         0.000       
     186       44.0284         0.000       
     185       43.8151         0.000       
     184       43.6622         0.000       
     183       43.2098         0.000       
     182       42.8153         0.000       
     181       42.3310         0.000       
     180       42.1474         0.000       
     179       41.3807         0.000       
     178       40.9694         0.000       
     177       40.3161         0.000       
     176       39.6778         0.000       
     175       39.1704         0.000       
     174       38.5781         0.000       
     173       38.3928         0.000       
     172       37.9098         0.000       
     171       37.6018         0.000       
     170       36.7843         0.000       
     169       36.5802         0.000       
     168       36.1521         0.000       
     167       35.9503         0.000       
     166       35.0969         0.000       
     165       34.6996         0.000       
     164       34.3853         0.000       
     163       33.8711         0.000       
     162       33.4912         0.000       
     161       33.3359         0.000       
     160       32.9412         0.000       
     159       32.6565         0.000       
     158       32.5768         0.000       
     157       32.2686         0.000       
     156       31.8634         0.000       
     155       31.6250         0.000       
     154       30.8635         0.000       
     153       30.6849         0.000       
     152       30.3804         0.000       
     151       30.1035         0.000       
     150       29.7083         0.000       
     149       29.3631         0.000       
     148       29.1414         0.000       
     147       28.8021         0.000       
     146       28.5442         0.000       
     145       28.1838         0.000       
     144       27.9155         0.000       
     143       27.6999         0.000       
     142       27.2693         0.000       
     141       26.8177         0.000       
     140       26.5081         0.000       
     139       26.3602         0.000       
     138       25.6982         0.000       
     137       25.5715         0.000       
     136       25.2696         0.000       
     135       24.9943         0.000       
     134       24.5693         0.000       
     133       23.9486         0.000       
     132       23.5092         0.000       
     131       22.7935         0.000       
     130       22.1005         0.000       
     129       21.9087         0.000       
     128       21.7388         0.000       
     127       21.4518         0.000       
     126       20.5893         0.000       
     125       20.2546         0.000       
     124       20.0565         0.000       
     123       19.6071         0.000       
     122       18.9693         0.000       
     121       18.4319         0.000       
     120       17.7630         0.000       
     119       17.6513         0.000       
     118       17.4751         0.000       
     117       16.6680         0.000       
     116       15.8473         0.000       
     115       15.5662         0.000       
     114       15.0813         0.000       
     113       14.5148         0.000       
     112       14.3630         0.000       
     111       14.1813         0.000       
     110       13.7071         0.000       
     109       13.0139         0.000       
     108       12.9299         0.000       
     107       12.6085         0.000       
     106       12.4906         0.000       
     105       11.9880         0.000       
     104       11.5754         0.000       
     103       11.5313         0.000       
     102       11.4187         0.000       
     101       11.0740         0.000       
     100       10.8507         0.000       
      99       10.5247         0.000       
      98       10.2743         0.000       
      97        9.9816         0.000       
      96        9.6297         0.000       
      95        9.5413         0.000       
      94        9.3841         0.000       
      93        9.1571         0.000       
      92        8.9265         0.000       
      91        8.7902         0.000       
      90        8.5032         0.000       
      89        8.3731         0.000       
      88        7.8990         0.000       
      87        7.8713         0.000       
      86        7.7511         0.000       
      85        7.4564         0.000       
      84        6.8886         0.000       
      83        6.7052         0.000       
      82        6.6167         0.000       
      81        6.3300         0.000       
      80        5.9390         0.000       
      79        5.8033         0.000       
      78        5.5538         0.000       
      77        5.1725         0.000       
      76        5.1099         0.000       
      75        5.0150         0.000       
      74        4.5717         0.000       
      73        4.4075         0.000       
      72        4.2387         0.000       
      71        4.1435         0.000       
      70        4.0098         0.000       
      69        3.6849         0.000       
      68        3.3933         0.000       
      67        2.9769         0.000       
      66        2.5175         0.000       
      65        2.4729         0.000       
      64        2.0487         0.000       
      63        1.8896         0.000       
      62        1.6011         0.000       
      61        1.2892         0.000       
      60        1.2159         0.000       
      59        1.1086         0.000       
      58        0.9593         0.000       
      57        0.7335         0.000       
      56        0.4007         0.000       
      55        0.2752         0.000       
      54       -0.0822         0.000       
      53       -0.3367         0.000       
      52       -0.5908         0.000       
      51       -0.8464         0.000       
      50       -1.7395         0.000       
      49       -3.8800         0.000 < LUMO
      48       -5.5908         2.000 < HOMO
      47       -6.1671         2.000       
      46       -7.1734         2.000       
      45       -7.8913         2.000       
      44       -8.4520         2.000       
      43       -8.5355         2.000       
      42       -8.6879         2.000       
      41       -8.9338         2.000       
      40       -9.0670         2.000       
      39       -9.6771         2.000       
      38       -9.9004         2.000       
      37      -10.0814         2.000       
      36      -10.1548         2.000       
      35      -10.4423         2.000       
      34      -10.7134         2.000       
      33      -11.0910         2.000       
      32      -11.2294         2.000       
      31      -11.6385         2.000       
      30      -11.9773         2.000       
      29      -12.0486         2.000       
      28      -12.5130         2.000       
      27      -13.2316         2.000       
      26      -13.7019         2.000       
      25      -14.6340         2.000       
      24      -15.6292         2.000       
      23      -16.1754         2.000       
      22      -18.0492         2.000       
      21      -18.5050         2.000       
      20      -19.2512         2.000       
      19      -20.4776         2.000       
      18      -22.5502         2.000       
      17      -25.3095         2.000       
      16      -26.0913         2.000       
      15      -26.3865         2.000       
      14      -28.3971         2.000       
      13     -270.3169         2.000       
      12     -270.3895         2.000       
      11     -271.1114         2.000       
      10     -271.9872         2.000       
       9     -272.1900         2.000       
       8     -272.3109         2.000       
       7     -272.8814         2.000       
       6     -273.8615         2.000       
       5     -381.5991         2.000       
       4     -384.6330         2.000       
       3     -511.4622         2.000       
       2     -511.6149         2.000       
       1     -513.3660         2.000       

AMS application finished. Exiting.
NORMAL TERMINATION
     Total cpu time:     124.15
  Total system time:       0.87
 Total elapsed time:     125.77
NORMAL TERMINATION
