
 *******************************************************************************
 *                                                                             *
 *  --------------------------------                                           *
 *   Amsterdam Modeling Suite (AMS)              2026.103                      *
 *  --------------------------------                                           *
 *                                               r260501 2026-05-01 873454b5   *
 *                                                                             *
 *                                                                             *
 *                              =================                              *
 *                              |               |                              *
 *                              |     A M S     |                              *
 *                              |               |                              *
 *                              =================                              *
 *                                                                             *
 *                                                                             *
 *   Online information and documentation:  https://www.scm.com/support/       *
 *   E-mail:  support@scm.com   info@scm.com                                   *
 *                                                                             *
 *   Scientific publications using AMS results must be properly referenced     *
 *   See the User Manuals (or the web site) for recommended citations          *
 *   The terms and conditions of the End User License Agreement apply to       *
 *   the use of AMS, https://www.scm.com/license-terms/                        *
 *                                                                             *
 **********************  x86_64_linux_intel / intelmpi  ************************
 
 Licensed to: Jong-June Jeon / University of Seoul 2026-06-02 13:44:15
 SCM User ID: u30731
  
 AMS 2026.103  RunTime: Jun03-2026 19:32:27  ShM Nodes: 1  Procs: 1

 AMS jobname: c5_fragB_opt
 AMS jobid  : 2033571324

 Start   directory: /gpfs/home1/yeseo1ee/projects/eda-asm-prediction/ADF_800/adf_outputs/batch_003/qmrxn20_e2_A_C_C_B_B_A/
 Results directory: /gpfs/home1/yeseo1ee/projects/eda-asm-prediction/ADF_800/adf_outputs/batch_003/qmrxn20_e2_A_C_C_B_B_A/c5_fragB_opt.results/
 Scratch directory: /tmp/amstmp_c5_fragB_opt_kid0.2033571324/

 RNG seed: 1038496315 1806373179 -1342434990 -1968596543 -284669453 1914028493 -179815033 -1119649267



                      ************************************************************************
                      *  ADF 2026.103  RunTime: Jun03-2026 19:32:27  ShM Nodes: 1  Procs: 1  *
                      ************************************************************************
  

       ***************************
       *  GEOMETRY OPTIMIZATION  *
       ***************************

Optimization Method                    Quasi Newton
Optimization Coordinates               Delocalized Coordinates
Optimize lattice                       F
 
 ------------------------------------------------------
 Convergence criteria (Hartree,Angstrom)
 ------------------------------------------------------
 Maximum gradient               0.000100000000
 Maximum rms gradient           0.000066666667
 Maximum step allowed           0.010000000000
 Maximum rms step allowed       0.006666666667
 Maximum energy change allowe   0.000120000000
 Maximum stress energy allowe   0.000500000000
 
Initial model Hessian                  Automatic Hessian
 
------------------------------------
Quasi-Newton Optimizer Parameters
------------------------------------
Hessian Update Method                  BFGS
Maximum number of steps                  200
First GDIIS cycle                          0
Maximum GDIIS vectors                      0
Trust radius (bohr)                        0.200000
Trust radius varies                        T
Constraints converged at all steps         T
Use projector                              T
 
 Rigid motions settings for: old optimizer
 Atomic rotations (x,y,z):     T T T
 Atomic translations (x,y,z):  T T T
 Tolerance:                  1.000000000000000E-006

--------
Geometry
--------
Formula: C4H2ClN3O2
Atoms
  Index Symbol   x (angstrom)   y (angstrom)   z (angstrom)
      1      C    -0.61951103     0.09132702    -0.25651523
      2      C    -0.28885585    -0.12198216     1.21477203
      3     Cl    -0.55646463    -1.42780899    -1.18349424
      4      H    -1.33386310    -0.51830791     1.55596564
      5      H    -1.73081118     0.31958353    -0.13696849
      6      C     0.16199202     1.11076902    -0.93011227
      7      N     0.76323393     1.95035268    -1.49398514
      8      C    -0.04472586     1.14397162     1.87885066
      9      N     0.07903352     2.16251298     2.45267745
     10      N     0.83483198    -1.05617201     1.48206906
     11      O     0.54982821    -2.25117355     1.54953153
     12      O     1.96813533    -0.58729030     1.61991836

Total System Charge              0.00000


----------------
ADF Engine Input
----------------
 
   Basis
     Type TZ2P
     Core None
   End
   XC
     GGA BLYP
     Dispersion GRIMME3 BJDAMP
   End
   Symmetry NOSYM
   NumericalQuality Normal
   Unrestricted No
   SCF
     Iterations 200
     Converge 1.0e-6
   End
   Save TAPE21
 

 Title: *** (NO TITLE) ***

Challenging geometry: could not add a dihedral for atom    7
Challenging geometry: could not add a dihedral for atom    9
 Using automatic Hessian for delocalized coordinates.
 *** GO1_GOStep1 ***

 Energy gradients wrt nuclear displacements
 ==========================================

     Atom      Cartesian (a.u./angstrom)
                 X         Y         Z
 ----------------------------------------
     1 C     0.052002 -0.015025  0.014896
     2 C     0.090113 -0.012672 -0.039311
     3 Cl    0.001507  0.026051  0.019416
     4 H    -0.080148  0.002858 -0.012419
     5 H    -0.045778 -0.015682  0.036075
     6 C    -0.027682 -0.056994  0.036749
     7 N     0.030248  0.046051 -0.030582
     8 C    -0.003429 -0.067674 -0.044781
     9 N     0.006747  0.051852  0.031512
    10 N    -0.036303  0.043672 -0.020315
    11 O     0.014948  0.016247  0.000805
    12 O    -0.002223 -0.018683  0.007956
 ----------------------------------------
 
----------------------------------------------------------------------
Geometry Convergence after Step   1       (Hartree/Angstrom,Angstrom)
----------------------------------------------------------------------
current energy                               -2.74158113 Hartree
energy change                      -2.74158113     0.00012000    F
constrained gradient max            0.09010500     0.00010000    F
constrained gradient rms            0.03669254     0.00006667    F
gradient max                        0.09010124
gradient rms                        0.03669254
cart. step max                      0.09620349     0.01000000    F
cart. step rms                      0.02754320     0.00666667    F
 

--------
Geometry
--------
Formula: C4H2ClN3O2
Atoms
  Index Symbol   x (angstrom)   y (angstrom)   z (angstrom)
      1      C    -0.63394926     0.09414230    -0.26556410
      2      C    -0.30284836    -0.11613642     1.23970949
      3     Cl    -0.55985741    -1.43079034    -1.20834371
      4      H    -1.28126396    -0.53587397     1.64428119
      5      H    -1.72599268     0.34599823    -0.23317198
      6      C     0.16081849     1.11363260    -0.93146884
      7      N     0.76979736     1.93136656    -1.47288792
      8      C    -0.05631457     1.15953409     1.90123267
      9      N     0.06488189     2.16497698     2.45475420
     10      N     0.83668430    -1.06719580     1.48523771
     11      O     0.54155876    -2.26637138     1.56365067
     12      O     1.96930877    -0.57750093     1.57527998

Total System Charge              0.00000

 *** GO1_GOStep2 ***

 Energy gradients wrt nuclear displacements
 ==========================================

     Atom      Cartesian (a.u./angstrom)
                 X         Y         Z
 ----------------------------------------
     1 C     0.032172 -0.009023  0.003781
     2 C     0.068894 -0.013355 -0.018981
     3 Cl   -0.000376  0.019098  0.010722
     4 H    -0.051360  0.001475  0.001434
     5 H    -0.030689 -0.009669  0.013350
     6 C     0.013576  0.010197 -0.009647
     7 N    -0.014039 -0.016554  0.011300
     8 C     0.003712  0.016564  0.004803
     9 N    -0.002152 -0.022579 -0.010527
    10 N    -0.027542  0.030622 -0.011920
    11 O     0.003365 -0.004411 -0.000055
    12 O     0.004438 -0.002362  0.005742
 ----------------------------------------

 dE(predicted):    -0.12383E-01, dE(actual):    -0.12346E-01, Trust radius:    0.400000, all in a.u.
 
----------------------------------------------------------------------
Geometry Convergence after Step   2       (Hartree/Angstrom,Angstrom)
----------------------------------------------------------------------
current energy                               -2.75392672 Hartree
energy change                      -0.01234559     0.00012000    F
constrained gradient max            0.06887674     0.00010000    F
constrained gradient rms            0.02013515     0.00006667    F
gradient max                        0.06887379
gradient rms                        0.02013515
cart. step max                      0.15798930     0.01000000    F
cart. step rms                      0.05216798     0.00666667    F
 

--------
Geometry
--------
Formula: C4H2ClN3O2
Atoms
  Index Symbol   x (angstrom)   y (angstrom)   z (angstrom)
      1      C    -0.66606037     0.09600173    -0.26677019
      2      C    -0.34072849    -0.11351462     1.26968159
      3     Cl    -0.61934859    -1.45980149    -1.20024249
      4      H    -1.20374853    -0.59783906     1.73856773
      5      H    -1.70760671     0.42586210    -0.31843137
      6      C     0.19052026     1.08596032    -0.91097367
      7      N     0.87378926     1.87732418    -1.43166638
      8      C    -0.11428178     1.17285569     1.93342993
      9      N    -0.01565721     2.19926044     2.48236753
     10      N     0.84819181    -1.06073590     1.46749054
     11      O     0.56613909    -2.25949764     1.57196545
     12      O     1.97161459    -0.55009383     1.41729068

Total System Charge              0.00000

 *** GO1_GOStep3 ***

 Energy gradients wrt nuclear displacements
 ==========================================

     Atom      Cartesian (a.u./angstrom)
                 X         Y         Z
 ----------------------------------------
     1 C    -0.001947 -0.002041 -0.005848
     2 C     0.023778 -0.018131 -0.000014
     3 Cl    0.001118  0.004926  0.001763
     4 H    -0.002693  0.006351  0.003532
     5 H     0.000142 -0.003691 -0.001831
     6 C    -0.022605 -0.018854  0.012938
     7 N     0.018850  0.019989 -0.013009
     8 C    -0.001627 -0.023656 -0.014370
     9 N     0.002354  0.027693  0.015665
    10 N    -0.019122  0.010207  0.009645
    11 O    -0.000171 -0.005618 -0.006345
    12 O     0.001923  0.002826 -0.002125
 ----------------------------------------

 dE(predicted):    -0.68009E-02, dE(actual):    -0.62732E-02, Trust radius:    0.800000, all in a.u.
 
----------------------------------------------------------------------
Geometry Convergence after Step   3       (Hartree/Angstrom,Angstrom)
----------------------------------------------------------------------
current energy                               -2.76019988 Hartree
energy change                      -0.00627315     0.00012000    F
constrained gradient max            0.02773165     0.00010000    F
constrained gradient rms            0.01228971     0.00006667    F
gradient max                        0.02773215
gradient rms                        0.01228971
cart. step max                      0.14723263     0.01000000    F
cart. step rms                      0.05619679     0.00666667    F
 

--------
Geometry
--------
Formula: C4H2ClN3O2
Atoms
  Index Symbol   x (angstrom)   y (angstrom)   z (angstrom)
      1      C    -0.69159146     0.11848961    -0.27788739
      2      C    -0.36186274    -0.13092621     1.25560459
      3     Cl    -0.76658122    -1.43953722    -1.22421288
      4      H    -1.16732486    -0.68061681     1.72188315
      5      H    -1.69222055     0.53816241    -0.32339934
      6      C     0.23935526     1.05038257    -0.91060836
      7      N     0.95662145     1.80208683    -1.42879484
      8      C    -0.16343724     1.14297405     1.95075425
      9      N    -0.08109675     2.15456466     2.51367262
     10      N     0.88542560    -1.04466609     1.39236771
     11      O     0.64244713    -2.21055863     1.70862191
     12      O     1.98308872    -0.48457325     1.37470794

Total System Charge              0.00000

 *** GO1_GOStep4 ***

 Energy gradients wrt nuclear displacements
 ==========================================

     Atom      Cartesian (a.u./angstrom)
                 X         Y         Z
 ----------------------------------------
     1 C    -0.010470 -0.000482 -0.013152
     2 C     0.003651 -0.020139  0.032644
     3 Cl    0.000250 -0.000490 -0.004282
     4 H     0.011608  0.010685 -0.000753
     5 H     0.009547 -0.003824 -0.001151
     6 C    -0.003365  0.001701  0.002361
     7 N     0.001681  0.001413 -0.000989
     8 C     0.000328  0.006147  0.000624
     9 N     0.000185  0.000296  0.000980
    10 N    -0.010964 -0.009418 -0.052820
    11 O     0.000185  0.009785  0.015783
    12 O    -0.002636  0.004327  0.020756
 ----------------------------------------

 dE(predicted):    -0.20840E-02, dE(actual):     0.21293E-03, Trust radius:    0.141020, all in a.u.
 
----------------------------------------------------------------------
Geometry Convergence after Step   4       (Hartree/Angstrom,Angstrom)
----------------------------------------------------------------------
current energy                               -2.75998695 Hartree
energy change                       0.00021293     0.00012000    F
constrained gradient max            0.05281854     0.00010000    F
constrained gradient rms            0.01291826     0.00006667    F
gradient max                        0.05281761
gradient rms                        0.01291826
cart. step max                      0.03584492     0.01000000    F
cart. step rms                      0.01277826     0.00666667    F
 

--------
Geometry
--------
Formula: C4H2ClN3O2
Atoms
  Index Symbol   x (angstrom)   y (angstrom)   z (angstrom)
      1      C    -0.68702956     0.12383913    -0.26902599
      2      C    -0.36745373    -0.12338526     1.25861957
      3     Cl    -0.76087686    -1.44693680    -1.19217669
      4      H    -1.18302289    -0.68072908     1.71370927
      5      H    -1.69139175     0.54697205    -0.31577646
      6      C     0.25175730     1.04436364    -0.90646704
      7      N     0.96813148     1.78776221    -1.42983786
      8      C    -0.17574371     1.14750818     1.95486440
      9      N    -0.09876214     2.15667233     2.51601276
     10      N     0.88729834    -1.03507204     1.40983853
     11      O     0.65004431    -2.21569047     1.67408585
     12      O     1.98987255    -0.48952197     1.33886302

Total System Charge              0.00000

 *** GO1_GOStep5 ***

 Energy gradients wrt nuclear displacements
 ==========================================

     Atom      Cartesian (a.u./angstrom)
                 X         Y         Z
 ----------------------------------------
     1 C    -0.007588  0.000651 -0.010434
     2 C     0.004687 -0.013574  0.018765
     3 Cl    0.001557 -0.000606 -0.001168
     4 H     0.004543  0.006423  0.000794
     5 H     0.003976 -0.002074 -0.000211
     6 C     0.006896  0.010281 -0.003591
     7 N    -0.007596 -0.007728  0.005317
     8 C     0.002217  0.015415  0.005121
     9 N    -0.001149 -0.011775 -0.005777
    10 N    -0.012338  0.000244 -0.027412
    11 O     0.002082  0.002521  0.006954
    12 O     0.002713  0.000223  0.011643
 ----------------------------------------

 dE(predicted):    -0.22297E-02, dE(actual):    -0.22101E-02, Trust radius:    0.282039, all in a.u.
 
----------------------------------------------------------------------
Geometry Convergence after Step   5       (Hartree/Angstrom,Angstrom)
----------------------------------------------------------------------
current energy                               -2.76219708 Hartree
energy change                      -0.00221014     0.00012000    F
constrained gradient max            0.02735398     0.00010000    F
constrained gradient rms            0.00861461     0.00006667    F
gradient max                        0.02735303
gradient rms                        0.00861461
cart. step max                      0.08139370     0.01000000    F
cart. step rms                      0.03158347     0.00666667    F
 

--------
Geometry
--------
Formula: C4H2ClN3O2
Atoms
  Index Symbol   x (angstrom)   y (angstrom)   z (angstrom)
      1      C    -0.68134662     0.13311421    -0.25864519
      2      C    -0.37817805    -0.12213999     1.25965428
      3     Cl    -0.82496022    -1.43632431    -1.17561546
      4      H    -1.19082757    -0.71202711     1.69335260
      5      H    -1.67465272     0.59314318    -0.30218984
      6      C     0.28752899     1.01263506    -0.90848565
      7      N     1.02675615     1.72782556    -1.44497838
      8      C    -0.21529013     1.13670766     1.97744467
      9      N    -0.14954878     2.14202546     2.55285867
     10      N     0.90481785    -1.01014761     1.42383425
     11      O     0.69019023    -2.19693784     1.67801008
     12      O     1.98833422    -0.45209235     1.25746933

Total System Charge              0.00000

 *** GO1_GOStep6 ***

 Energy gradients wrt nuclear displacements
 ==========================================

     Atom      Cartesian (a.u./angstrom)
                 X         Y         Z
 ----------------------------------------
     1 C    -0.002037 -0.001388 -0.005399
     2 C     0.004959 -0.004202  0.004993
     3 Cl    0.000316  0.000876 -0.001048
     4 H    -0.000902  0.001449  0.002012
     5 H    -0.001073 -0.000901  0.000173
     6 C     0.001065  0.002222  0.000484
     7 N    -0.001068 -0.000728  0.000378
     8 C     0.002247  0.001307 -0.001217
     9 N    -0.000392 -0.001291 -0.000229
    10 N    -0.002158  0.002465  0.000076
    11 O    -0.000837 -0.000244 -0.001592
    12 O    -0.000121  0.000436  0.001368
 ----------------------------------------

 dE(predicted):    -0.13776E-02, dE(actual):    -0.13963E-02, Trust radius:    0.564078, all in a.u.
 
----------------------------------------------------------------------
Geometry Convergence after Step   6       (Hartree/Angstrom,Angstrom)
----------------------------------------------------------------------
current energy                               -2.76359339 Hartree
energy change                      -0.00139631     0.00012000    F
constrained gradient max            0.00544335     0.00010000    F
constrained gradient rms            0.00202353     0.00006667    F
gradient max                        0.00544343
gradient rms                        0.00202353
cart. step max                      0.12372820     0.01000000    F
cart. step rms                      0.05116683     0.00666667    F
 

--------
Geometry
--------
Formula: C4H2ClN3O2
Atoms
  Index Symbol   x (angstrom)   y (angstrom)   z (angstrom)
      1      C    -0.68384868     0.15584200    -0.25000103
      2      C    -0.39622075    -0.12276166     1.25966886
      3     Cl    -0.92643992    -1.41882952    -1.14364252
      4      H    -1.18021312    -0.76472000     1.66405420
      5      H    -1.64252652     0.68195132    -0.29453369
      6      C     0.33990636     0.96470750    -0.90826468
      7      N     1.11479294     1.62839379    -1.45592950
      8      C    -0.27975485     1.11863065     2.01327478
      9      N    -0.23745228     2.11019485     2.60983872
     10      N     0.92911683    -0.97668489     1.40108543
     11      O     0.76043809    -2.15286003     1.72341766
     12      O     1.98502525    -0.40808208     1.13374113

Total System Charge              0.00000

 *** GO1_GOStep7 ***

 Energy gradients wrt nuclear displacements
 ==========================================

     Atom      Cartesian (a.u./angstrom)
                 X         Y         Z
 ----------------------------------------
     1 C    -0.003258  0.000124 -0.004048
     2 C    -0.003582 -0.002291  0.004994
     3 Cl   -0.000163 -0.000632  0.000205
     4 H     0.002023  0.000760 -0.000501
     5 H     0.000878 -0.000179  0.001117
     6 C     0.008263  0.005724 -0.002947
     7 N    -0.006329 -0.005597  0.004475
     8 C     0.000957  0.010516  0.003988
     9 N    -0.000401 -0.009910 -0.005552
    10 N     0.000842  0.002213  0.002584
    11 O     0.000580  0.001013 -0.002882
    12 O     0.000189 -0.001742 -0.001433
 ----------------------------------------

 dE(predicted):    -0.48123E-03, dE(actual):    -0.52939E-03, Trust radius:    0.564078, all in a.u.
 
----------------------------------------------------------------------
Geometry Convergence after Step   7       (Hartree/Angstrom,Angstrom)
----------------------------------------------------------------------
current energy                               -2.76412278 Hartree
energy change                      -0.00052939     0.00012000    F
constrained gradient max            0.01054301     0.00010000    F
constrained gradient rms            0.00395063     0.00006667    F
gradient max                        0.01054307
gradient rms                        0.00395063
cart. step max                      0.03208441     0.01000000    F
cart. step rms                      0.01219668     0.00666667    F
 

--------
Geometry
--------
Formula: C4H2ClN3O2
Atoms
  Index Symbol   x (angstrom)   y (angstrom)   z (angstrom)
      1      C    -0.67609451     0.16008420    -0.25354074
      2      C    -0.38808876    -0.12126302     1.25307905
      3     Cl    -0.91392741    -1.41475784    -1.14564653
      4      H    -1.18108605    -0.76141519     1.65113875
      5      H    -1.64103993     0.67842817    -0.29641802
      6      C     0.33122075     0.97655360    -0.92607738
      7      N     1.09177183     1.64935589    -1.48801390
      8      C    -0.27495013     1.11337374     2.01799618
      9      N    -0.23150652     2.10287723     2.62434113
     10      N     0.92764880    -0.98574536     1.41246274
     11      O     0.74932786    -2.15622419     1.75473670
     12      O     1.98954741    -0.42548529     1.14865138

Total System Charge              0.00000

 *** GO1_GOStep8 ***

 Energy gradients wrt nuclear displacements
 ==========================================

     Atom      Cartesian (a.u./angstrom)
                 X         Y         Z
 ----------------------------------------
     1 C    -0.000757 -0.000859 -0.002216
     2 C     0.001361  0.000860  0.001236
     3 Cl   -0.000163  0.001087  0.000978
     4 H    -0.000328 -0.001094  0.000677
     5 H    -0.000694  0.000418  0.000246
     6 C    -0.000122 -0.000450  0.000233
     7 N     0.000247  0.000528 -0.000800
     8 C    -0.000585 -0.001856 -0.002084
     9 N     0.000304  0.001828  0.001436
    10 N    -0.000354  0.002234  0.002134
    11 O     0.000220 -0.002300 -0.001154
    12 O     0.000871 -0.000396 -0.000686
 ----------------------------------------

 dE(predicted):    -0.13404E-03, dE(actual):    -0.94075E-04, Trust radius:    0.564078, all in a.u.
 
----------------------------------------------------------------------
Geometry Convergence after Step   8       (Hartree/Angstrom,Angstrom)
----------------------------------------------------------------------
current energy                               -2.76421685 Hartree
energy change                      -0.00009408     0.00012000    T
constrained gradient max            0.00229308     0.00010000    F
constrained gradient rms            0.00114422     0.00006667    F
gradient max                        0.00229302
gradient rms                        0.00114422
cart. step max                      0.03091397     0.01000000    F
cart. step rms                      0.00781235     0.00666667    F
 

--------
Geometry
--------
Formula: C4H2ClN3O2
Atoms
  Index Symbol   x (angstrom)   y (angstrom)   z (angstrom)
      1      C    -0.67502258     0.15946948    -0.25520500
      2      C    -0.38881908    -0.12266660     1.25028759
      3     Cl    -0.90215499    -1.41499615    -1.15226065
      4      H    -1.18406707    -0.75933101     1.64846094
      5      H    -1.64250746     0.67238464    -0.29987179
      6      C     0.32704865     0.98394958    -0.92487846
      7      N     1.08560169     1.66265895    -1.48281453
      8      C    -0.27042952     1.11067735     2.01693801
      9      N    -0.22274244     2.09972743     2.62327862
     10      N     0.92466376    -0.98964331     1.41259634
     11      O     0.74584791    -2.14998806     1.78565067
     12      O     1.98540448    -0.43646037     1.13052762

Total System Charge              0.00000

 *** GO1_GOStep9 ***

 Energy gradients wrt nuclear displacements
 ==========================================

     Atom      Cartesian (a.u./angstrom)
                 X         Y         Z
 ----------------------------------------
     1 C    -0.000363 -0.001246 -0.001387
     2 C     0.001188  0.000641  0.001213
     3 Cl   -0.000218  0.000922  0.000489
     4 H    -0.000142 -0.000646  0.000543
     5 H    -0.000255  0.000459  0.000135
     6 C    -0.001500 -0.000812  0.000596
     7 N     0.000961  0.000885 -0.001013
     8 C    -0.000174 -0.001314 -0.001310
     9 N     0.000267  0.001116  0.000897
    10 N    -0.000070  0.000755  0.000556
    11 O    -0.000117 -0.001029 -0.000743
    12 O     0.000420  0.000270  0.000024
 ----------------------------------------

 dE(predicted):    -0.30915E-04, dE(actual):    -0.72888E-04, Trust radius:    0.564078, all in a.u.
 
----------------------------------------------------------------------
Geometry Convergence after Step   9       (Hartree/Angstrom,Angstrom)
----------------------------------------------------------------------
current energy                               -2.76428974 Hartree
energy change                      -0.00007289     0.00012000    T
constrained gradient max            0.00146205     0.00010000    F
constrained gradient rms            0.00079899     0.00006667    F
gradient max                        0.00146189
gradient rms                        0.00079899
cart. step max                      0.21286581     0.01000000    F
cart. step rms                      0.05470848     0.00666667    F
 

--------
Geometry
--------
Formula: C4H2ClN3O2
Atoms
  Index Symbol   x (angstrom)   y (angstrom)   z (angstrom)
      1      C    -0.66298251     0.16267644    -0.26400102
      2      C    -0.39554469    -0.12965480     1.23283253
      3     Cl    -0.82787037    -1.41391664    -1.18099886
      4      H    -1.20273068    -0.75239634     1.62389134
      5      H    -1.64388591     0.64562146    -0.32423268
      6      C     0.31369093     1.02740992    -0.91619739
      7      N     1.04656899     1.74531079    -1.45925255
      8      C    -0.25491242     1.09133590     2.01758650
      9      N    -0.18477108     2.07532687     2.62964496
     10      N     0.90648137    -1.01526843     1.41571884
     11      O     0.73940730    -2.08469106     1.99851648
     12      O     1.94937241    -0.53597218     0.97920120

Total System Charge              0.00000

 *** GO1_GOStep10 ***

 Energy gradients wrt nuclear displacements
 ==========================================

     Atom      Cartesian (a.u./angstrom)
                 X         Y         Z
 ----------------------------------------
     1 C     0.001020 -0.001413  0.003880
     2 C    -0.000294  0.000860 -0.001855
     3 Cl    0.000088 -0.000233 -0.001303
     4 H     0.001172  0.001199 -0.000601
     5 H     0.001511  0.000733 -0.000407
     6 C    -0.004287 -0.001067  0.000687
     7 N     0.001308  0.000642 -0.000609
     8 C     0.001036 -0.001072  0.000418
     9 N     0.000165  0.000688  0.000001
    10 N     0.001443 -0.006400 -0.003160
    11 O    -0.000372  0.003638  0.000267
    12 O    -0.002790  0.002426  0.002681
 ----------------------------------------

 dE(predicted):    -0.19229E-03, dE(actual):    -0.23149E-03, Trust radius:    1.000000, all in a.u.
 
----------------------------------------------------------------------
Geometry Convergence after Step  10       (Hartree/Angstrom,Angstrom)
----------------------------------------------------------------------
current energy                               -2.76452123 Hartree
energy change                      -0.00023149     0.00012000    F
constrained gradient max            0.00638635     0.00010000    F
constrained gradient rms            0.00199267     0.00006667    F
gradient max                        0.00638597
gradient rms                        0.00199267
cart. step max                      0.05789807     0.01000000    F
cart. step rms                      0.01562913     0.00666667    F
 

--------
Geometry
--------
Formula: C4H2ClN3O2
Atoms
  Index Symbol   x (angstrom)   y (angstrom)   z (angstrom)
      1      C    -0.65966961     0.16586008    -0.26515494
      2      C    -0.39958476    -0.13009075     1.23034776
      3     Cl    -0.81775502    -1.41339151    -1.18116582
      4      H    -1.20695052    -0.75489041     1.61826448
      5      H    -1.64209323     0.64526819    -0.33054694
      6      C     0.31912550     1.03295595    -0.91181176
      7      N     1.04871801     1.75679532    -1.45193922
      8      C    -0.26023799     1.08665392     2.02202750
      9      N    -0.18904110     2.06778426     2.63793226
     10      N     0.90462320    -1.01658346     1.41341455
     11      O     0.74874982    -2.05667421     2.05003837
     12      O     1.93693906    -0.56790545     0.92130313

Total System Charge              0.00000

 *** GO1_GOStep11 ***

 Energy gradients wrt nuclear displacements
 ==========================================

     Atom      Cartesian (a.u./angstrom)
                 X         Y         Z
 ----------------------------------------
     1 C     0.001279 -0.000997  0.004481
     2 C    -0.001652  0.000945 -0.002448
     3 Cl    0.000125 -0.000597 -0.001049
     4 H     0.000819  0.001244 -0.000451
     5 H     0.001170  0.000521 -0.000223
     6 C    -0.004038 -0.001571  0.001171
     7 N     0.001850  0.001328 -0.000984
     8 C     0.000926  0.000253  0.001454
     9 N     0.000044 -0.000521 -0.000829
    10 N     0.000742 -0.005906 -0.002351
    11 O    -0.000166  0.002926  0.000091
    12 O    -0.001100  0.002375  0.001137
 ----------------------------------------

 dE(predicted):    -0.51254E-04, dE(actual):    -0.77362E-04, Trust radius:    1.000000, all in a.u.
 
----------------------------------------------------------------------
Geometry Convergence after Step  11       (Hartree/Angstrom,Angstrom)
----------------------------------------------------------------------
current energy                               -2.76459859 Hartree
energy change                      -0.00007736     0.00012000    T
constrained gradient max            0.00588170     0.00010000    F
constrained gradient rms            0.00186897     0.00006667    F
gradient max                        0.00588104
gradient rms                        0.00186897
cart. step max                      0.02019242     0.01000000    F
cart. step rms                      0.00785851     0.00666667    F
 

--------
Geometry
--------
Formula: C4H2ClN3O2
Atoms
  Index Symbol   x (angstrom)   y (angstrom)   z (angstrom)
      1      C    -0.65952127     0.16966121    -0.26617976
      2      C    -0.39928150    -0.12817521     1.23224938
      3     Cl    -0.83703988    -1.41118260    -1.17464702
      4      H    -1.20118714    -0.76253386     1.61862780
      5      H    -1.63961072     0.65527433    -0.32868591
      6      C     0.33137428     1.02553785    -0.91274836
      7      N     1.06029273     1.74513687    -1.45739985
      8      C    -0.27258461     1.08782234     2.02639265
      9      N    -0.20923351     2.06625711     2.64737968
     10      N     0.91117747    -1.00817026     1.41391998
     11      O     0.75585004    -2.05305402     2.04514783
     12      O     1.94258745    -0.57079180     0.90865293

Total System Charge              0.00000

 *** GO1_GOStep12 ***

 Energy gradients wrt nuclear displacements
 ==========================================

     Atom      Cartesian (a.u./angstrom)
                 X         Y         Z
 ----------------------------------------
     1 C     0.000126  0.000037  0.001419
     2 C    -0.002071  0.000304 -0.001295
     3 Cl   -0.000529 -0.000580 -0.000319
     4 H     0.000117  0.000310  0.000259
     5 H    -0.000153 -0.000258  0.000168
     6 C     0.001620  0.001123 -0.000443
     7 N    -0.001076 -0.000847  0.000479
     8 C     0.000236  0.000602  0.001357
     9 N     0.000117 -0.000870 -0.000834
    10 N     0.000006 -0.000043  0.000671
    11 O     0.000054  0.000305 -0.000744
    12 O     0.001553 -0.000083 -0.000720
 ----------------------------------------

 dE(predicted):    -0.62320E-04, dE(actual):    -0.42150E-04, Trust radius:    1.000000, all in a.u.
 
----------------------------------------------------------------------
Geometry Convergence after Step  12       (Hartree/Angstrom,Angstrom)
----------------------------------------------------------------------
current energy                               -2.76464074 Hartree
energy change                      -0.00004215     0.00012000    T
constrained gradient max            0.00211462     0.00010000    F
constrained gradient rms            0.00079634     0.00006667    F
gradient max                        0.00211435
gradient rms                        0.00079634
cart. step max                      0.02740177     0.01000000    F
cart. step rms                      0.00809255     0.00666667    F
 

--------
Geometry
--------
Formula: C4H2ClN3O2
Atoms
  Index Symbol   x (angstrom)   y (angstrom)   z (angstrom)
      1      C    -0.65771554     0.17044222    -0.26825118
      2      C    -0.39805714    -0.12884056     1.22997339
      3     Cl    -0.82274427    -1.41072613    -1.17851251
      4      H    -1.20234329    -0.76095668     1.61537256
      5      H    -1.64086870     0.64976495    -0.33170926
      6      C     0.32710988     1.03396525    -0.91317976
      7      N     1.05139387     1.76023985    -1.45559059
      8      C    -0.26881763     1.08645688     2.02498864
      9      N    -0.20294173     2.06401831     2.64752330
     10      N     0.90794085    -1.01368024     1.41639378
     11      O     0.75390789    -2.04345283     2.07254961
     12      O     1.93595918    -0.59144909     0.89315139

Total System Charge              0.00000

 *** GO1_GOStep13 ***

 Energy gradients wrt nuclear displacements
 ==========================================

     Atom      Cartesian (a.u./angstrom)
                 X         Y         Z
 ----------------------------------------
     1 C    -0.000049  0.000446  0.001437
     2 C    -0.000992  0.000502 -0.001467
     3 Cl   -0.000220 -0.000514 -0.000221
     4 H     0.000224  0.000104  0.000215
     5 H    -0.000083 -0.000108  0.000031
     6 C     0.000559  0.000603 -0.000189
     7 N    -0.000542 -0.000317  0.000145
     8 C     0.000175  0.000041  0.000645
     9 N     0.000148 -0.000104 -0.000242
    10 N     0.000368 -0.000534  0.000215
    11 O     0.000214 -0.000070 -0.000361
    12 O     0.000198 -0.000049 -0.000208
 ----------------------------------------

 dE(predicted):    -0.10177E-04, dE(actual):    -0.45082E-04, Trust radius:    1.000000, all in a.u.
 
----------------------------------------------------------------------
Geometry Convergence after Step  13       (Hartree/Angstrom,Angstrom)
----------------------------------------------------------------------
current energy                               -2.76468582 Hartree
energy change                      -0.00004508     0.00012000    T
constrained gradient max            0.00149030     0.00010000    F
constrained gradient rms            0.00047998     0.00006667    F
gradient max                        0.00149014
gradient rms                        0.00047998
cart. step max                      0.02437330     0.01000000    F
cart. step rms                      0.00635237     0.00666667    T
 

--------
Geometry
--------
Formula: C4H2ClN3O2
Atoms
  Index Symbol   x (angstrom)   y (angstrom)   z (angstrom)
      1      C    -0.65642426     0.17136900    -0.27028851
      2      C    -0.39754891    -0.13001467     1.22814480
      3     Cl    -0.81880923    -1.40849539    -1.18271908
      4      H    -1.20285806    -0.76243328     1.61153817
      5      H    -1.64040814     0.64931398    -0.33295506
      6      C     0.32632410     1.03776532    -0.91393682
      7      N     1.04896125     1.76720564    -1.45472301
      8      C    -0.26881603     1.08398198     2.02509203
      9      N    -0.20230998     2.05962631     2.65076051
     10      N     0.90707595    -1.01530573     1.41790094
     11      O     0.75663036    -2.03082431     2.09692290
     12      O     1.93100630    -0.60640692     0.87697248

Total System Charge              0.00000

 *** GO1_GOStep14 ***

 Energy gradients wrt nuclear displacements
 ==========================================

     Atom      Cartesian (a.u./angstrom)
                 X         Y         Z
 ----------------------------------------
     1 C     0.000049  0.000517  0.000969
     2 C    -0.000388  0.000575 -0.000925
     3 Cl   -0.000145 -0.000351 -0.000197
     4 H     0.000085 -0.000130  0.000184
     5 H    -0.000125 -0.000036  0.000026
     6 C    -0.000260 -0.000008  0.000096
     7 N    -0.000012  0.000191 -0.000190
     8 C     0.000171 -0.000274  0.000149
     9 N     0.000171  0.000191  0.000070
    10 N     0.000495 -0.000470  0.000022
    11 O     0.000159 -0.000177 -0.000129
    12 O    -0.000200 -0.000027 -0.000075
 ----------------------------------------

 dE(predicted):    -0.36835E-05, dE(actual):    -0.35059E-04, Trust radius:    1.000000, all in a.u.
 
----------------------------------------------------------------------
Geometry Convergence after Step  14       (Hartree/Angstrom,Angstrom)
----------------------------------------------------------------------
current energy                               -2.76472088 Hartree
energy change                      -0.00003506     0.00012000    T
constrained gradient max            0.00094810     0.00010000    F
constrained gradient rms            0.00031151     0.00006667    F
gradient max                        0.00094800
gradient rms                        0.00031151
cart. step max                      0.01153254     0.01000000    F
cart. step rms                      0.00326622     0.00666667    T
 

--------
Geometry
--------
Formula: C4H2ClN3O2
Atoms
  Index Symbol   x (angstrom)   y (angstrom)   z (angstrom)
      1      C    -0.65607249     0.17183059    -0.27148316
      2      C    -0.39735566    -0.13090351     1.22738862
      3     Cl    -0.82078945    -1.40672619    -1.18477853
      4      H    -1.20272670    -0.76422840     1.60928198
      5      H    -1.63944729     0.65130229    -0.33277735
      6      C     0.32733201     1.03779286    -0.91441432
      7      N     1.05044407     1.76741655    -1.45427853
      8      C    -0.27032871     1.08236465     2.02558501
      9      N    -0.20454599     2.05646221     2.65380166
     10      N     0.90743533    -1.01467048     1.41802027
     11      O     0.76005790    -2.02299647     2.10845544
     12      O     1.92882033    -0.61186218     0.86790827

Total System Charge              0.00000

 *** GO1_GOStep15 ***

 Energy gradients wrt nuclear displacements
 ==========================================

     Atom      Cartesian (a.u./angstrom)
                 X         Y         Z
 ----------------------------------------
     1 C     0.000073  0.000391  0.000315
     2 C    -0.000112  0.000404 -0.000170
     3 Cl   -0.000151 -0.000175 -0.000139
     4 H     0.000016 -0.000171  0.000107
     5 H    -0.000136  0.000003  0.000098
     6 C    -0.000310 -0.000070  0.000078
     7 N    -0.000040  0.000133 -0.000119
     8 C     0.000134 -0.000362 -0.000140
     9 N     0.000192  0.000245  0.000211
    10 N     0.000434 -0.000267 -0.000150
    11 O     0.000085 -0.000125 -0.000041
    12 O    -0.000185 -0.000005 -0.000050
 ----------------------------------------

 dE(predicted):    -0.15705E-05, dE(actual):    -0.17268E-04, Trust radius:    1.000000, all in a.u.
 
----------------------------------------------------------------------
Geometry Convergence after Step  15       (Hartree/Angstrom,Angstrom)
----------------------------------------------------------------------
current energy                               -2.76473815 Hartree
energy change                      -0.00001727     0.00012000    T
constrained gradient max            0.00041728     0.00010000    F
constrained gradient rms            0.00018067     0.00006667    F
gradient max                        0.00041728
gradient rms                        0.00018067
cart. step max                      0.00658588     0.01000000    T
cart. step rms                      0.00212412     0.00666667    T
 

--------
Geometry
--------
Formula: C4H2ClN3O2
Atoms
  Index Symbol   x (angstrom)   y (angstrom)   z (angstrom)
      1      C    -0.65574173     0.17209661    -0.27213438
      2      C    -0.39723123    -0.13136191     1.22697879
      3     Cl    -0.82245923    -1.40577694    -1.18539466
      4      H    -1.20258163    -0.76513558     1.60799371
      5      H    -1.63848105     0.65295324    -0.33267605
      6      C     0.32852018     1.03737707    -0.91467085
      7      N     1.05176631     1.76707172    -1.45426064
      8      C    -0.27162270     1.08135587     2.02624258
      9      N    -0.20689197     2.05428686     2.65621003
     10      N     0.90769044    -1.01399601     1.41780585
     11      O     0.76249965    -2.01794205     2.11504132
     12      O     1.92735630    -0.61514694     0.86157367

Total System Charge              0.00000

 *** GO1_GOStep16 ***

 Energy gradients wrt nuclear displacements
 ==========================================

     Atom      Cartesian (a.u./angstrom)
                 X         Y         Z
 ----------------------------------------
     1 C     0.000016  0.000221 -0.000103
     2 C    -0.000013  0.000164  0.000241
     3 Cl   -0.000148 -0.000031 -0.000035
     4 H     0.000032 -0.000089  0.000052
     5 H    -0.000110  0.000012  0.000157
     6 C    -0.000267 -0.000121  0.000103
     7 N    -0.000046  0.000135 -0.000113
     8 C     0.000113 -0.000039 -0.000012
     9 N     0.000174 -0.000103  0.000046
    10 N     0.000260 -0.000093 -0.000153
    11 O     0.000063 -0.000039 -0.000087
    12 O    -0.000075 -0.000018 -0.000095
 ----------------------------------------

 dE(predicted):    -0.54663E-06, dE(actual):    -0.10516E-04, Trust radius:    1.000000, all in a.u.
 
----------------------------------------------------------------------
Geometry Convergence after Step  16       (Hartree/Angstrom,Angstrom)
----------------------------------------------------------------------
current energy                               -2.76474866 Hartree
energy change                      -0.00001052     0.00012000    T
constrained gradient max            0.00021794     0.00010000    F
constrained gradient rms            0.00009498     0.00006667    F
gradient max                        0.00021794
gradient rms                        0.00009498
cart. step max                      0.00472858     0.01000000    T
cart. step rms                      0.00141105     0.00666667    T
 

--------
Geometry
--------
Formula: C4H2ClN3O2
Atoms
  Index Symbol   x (angstrom)   y (angstrom)   z (angstrom)
      1      C    -0.65543989     0.17222795    -0.27243128
      2      C    -0.39716860    -0.13166152     1.22659900
      3     Cl    -0.82267014    -1.40529187    -1.18584341
      4      H    -1.20260226    -0.76544731     1.60729589
      5      H    -1.63795081     0.65354330    -0.33285765
      6      C     0.32904796     1.03758426    -0.91461343
      7      N     1.05205180     1.76764321    -1.45387587
      8      C    -0.27211475     1.08074134     2.02652970
      9      N    -0.20803573     2.05325500     2.65728666
     10      N     0.90765848    -1.01397111     1.41770564
     11      O     0.76387979    -2.01473105     2.11976990
     12      O     1.92616749    -0.61811027     0.85714421

Total System Charge              0.00000

 *** GO1_GOStep17 ***

 Energy gradients wrt nuclear displacements
 ==========================================

     Atom      Cartesian (a.u./angstrom)
                 X         Y         Z
 ----------------------------------------
     1 C    -0.000019  0.000100 -0.000159
     2 C     0.000023  0.000029  0.000265
     3 Cl   -0.000140  0.000031  0.000020
     4 H     0.000056 -0.000025  0.000034
     5 H    -0.000080  0.000018  0.000158
     6 C    -0.000059  0.000074 -0.000036
     7 N    -0.000232 -0.000052  0.000027
     8 C     0.000098 -0.000164 -0.000104
     9 N     0.000173  0.000027  0.000149
    10 N     0.000085 -0.000019 -0.000112
    11 O     0.000075 -0.000019 -0.000108
    12 O     0.000018  0.000001 -0.000135
 ----------------------------------------

 dE(predicted):    -0.11821E-06, dE(actual):    -0.69001E-05, Trust radius:    1.000000, all in a.u.
 
----------------------------------------------------------------------
Geometry Convergence after Step  17       (Hartree/Angstrom,Angstrom)
----------------------------------------------------------------------
current energy                               -2.76475556 Hartree
energy change                      -0.00000690     0.00012000    T
constrained gradient max            0.00024288     0.00010000    F
constrained gradient rms            0.00007380     0.00006667    F
gradient max                        0.00024287
gradient rms                        0.00007380
cart. step max                      0.01683173     0.01000000    F
cart. step rms                      0.00490206     0.00666667    T
 

--------
Geometry
--------
Formula: C4H2ClN3O2
Atoms
  Index Symbol   x (angstrom)   y (angstrom)   z (angstrom)
      1      C    -0.65437498     0.17277640    -0.27334770
      2      C    -0.39695462    -0.13266674     1.22526711
      3     Cl    -0.82229900    -1.40363091    -1.18773716
      4      H    -1.20267366    -0.76651106     1.60501368
      5      H    -1.63647527     0.65490453    -0.33361279
      6      C     0.33037773     1.03901284    -0.91424436
      7      N     1.05224707     1.77092256    -1.45245013
      8      C    -0.27342635     1.07876103     2.02726056
      9      N    -0.21115423     2.05006096     2.66001072
     10      N     0.90743394    -1.01448656     1.41767871
     11      O     0.76821840    -2.00380544     2.13660164
     12      O     1.92190431    -0.62955567     0.84226907

Total System Charge              0.00000

 *** GO1_GOStep18 ***

 Energy gradients wrt nuclear displacements
 ==========================================

     Atom      Cartesian (a.u./angstrom)
                 X         Y         Z
 ----------------------------------------
     1 C    -0.000128 -0.000190 -0.000204
     2 C     0.000159 -0.000300  0.000210
     3 Cl   -0.000100  0.000169  0.000157
     4 H     0.000127  0.000106  0.000007
     5 H    -0.000000  0.000025  0.000137
     6 C     0.000099  0.000185 -0.000111
     7 N    -0.000314 -0.000128  0.000083
     8 C     0.000092  0.000033 -0.000022
     9 N     0.000139 -0.000127  0.000092
    10 N    -0.000332  0.000229 -0.000043
    11 O     0.000111 -0.000012 -0.000148
    12 O     0.000148  0.000009 -0.000157
 ----------------------------------------

 dE(predicted):    -0.27518E-06, dE(actual):    -0.21427E-04, Trust radius:    1.000000, all in a.u.
 
----------------------------------------------------------------------
Geometry Convergence after Step  18       (Hartree/Angstrom,Angstrom)
----------------------------------------------------------------------
current energy                               -2.76477699 Hartree
energy change                      -0.00002143     0.00012000    T
constrained gradient max            0.00037909     0.00010000    F
constrained gradient rms            0.00013962     0.00006667    F
gradient max                        0.00037923
gradient rms                        0.00013962
cart. step max                      0.03238933     0.01000000    F
cart. step rms                      0.00945222     0.00666667    F
 

--------
Geometry
--------
Formula: C4H2ClN3O2
Atoms
  Index Symbol   x (angstrom)   y (angstrom)   z (angstrom)
      1      C    -0.65256419     0.17414186    -0.27485239
      2      C    -0.39678611    -0.13465220     1.22283100
      3     Cl    -0.82073304    -1.40015406    -1.19245336
      4      H    -1.20283572    -0.76907478     1.60083962
      5      H    -1.63441332     0.65681058    -0.33499469
      6      C     0.33217936     1.04262907    -0.91305108
      7      N     1.05224789     1.77795377    -1.44868663
      8      C    -0.27566187     1.07511889     2.02818126
      9      N    -0.21619934     2.04517652     2.66338405
     10      N     0.90727803    -1.01639018     1.41791470
     11      O     0.77686422    -1.98265158     2.16899097
     12      O     1.91344743    -0.65312596     0.81460590

Total System Charge              0.00000

 *** GO1_GOStep19 ***

 Energy gradients wrt nuclear displacements
 ==========================================

     Atom      Cartesian (a.u./angstrom)
                 X         Y         Z
 ----------------------------------------
     1 C    -0.000173 -0.000386 -0.000085
     2 C     0.000331 -0.000588  0.000061
     3 Cl   -0.000014  0.000214  0.000241
     4 H     0.000200  0.000169 -0.000002
     5 H     0.000090  0.000027  0.000067
     6 C     0.000542  0.000612 -0.000454
     7 N    -0.000663 -0.000518  0.000372
     8 C     0.000072 -0.000268 -0.000354
     9 N     0.000122  0.000296  0.000418
    10 N    -0.000755  0.000408 -0.000134
    11 O     0.000120 -0.000043 -0.000083
    12 O     0.000128  0.000078 -0.000045
 ----------------------------------------

 dE(predicted):    -0.12140E-05, dE(actual):    -0.22359E-04, Trust radius:    1.000000, all in a.u.
 
----------------------------------------------------------------------
Geometry Convergence after Step  19       (Hartree/Angstrom,Angstrom)
----------------------------------------------------------------------
current energy                               -2.76479935 Hartree
energy change                      -0.00002236     0.00012000    T
constrained gradient max            0.00078777     0.00010000    F
constrained gradient rms            0.00032419     0.00006667    F
gradient max                        0.00078804
gradient rms                        0.00032419
cart. step max                      0.05573463     0.01000000    F
cart. step rms                      0.01705562     0.00666667    F
 

--------
Geometry
--------
Formula: C4H2ClN3O2
Atoms
  Index Symbol   x (angstrom)   y (angstrom)   z (angstrom)
      1      C    -0.64984937     0.17712890    -0.27712807
      2      C    -0.39635087    -0.13839432     1.21881353
      3     Cl    -0.82161427    -1.39259601    -1.20184825
      4      H    -1.20233438    -0.77502492     1.59344623
      5      H    -1.63081334     0.66190165    -0.33613778
      6      C     0.33589869     1.04833761    -0.91044634
      7      N     1.05472087     1.78854367    -1.44140671
      8      C    -0.28113985     1.06854542     2.02981419
      9      N    -0.22840927     2.03700507     2.66783474
     10      N     0.90874467    -1.01963213     1.41859091
     11      O     0.79572872    -1.94251088     2.22472560
     12      O     1.89824175    -0.69752213     0.76645131

Total System Charge              0.00000

 *** GO1_GOStep20 ***

 Energy gradients wrt nuclear displacements
 ==========================================

     Atom      Cartesian (a.u./angstrom)
                 X         Y         Z
 ----------------------------------------
     1 C    -0.000162 -0.000415  0.000110
     2 C     0.000486 -0.000785 -0.000106
     3 Cl    0.000103  0.000207  0.000306
     4 H     0.000225  0.000261  0.000039
     5 H     0.000169  0.000053 -0.000040
     6 C     0.000206  0.000241 -0.000168
     7 N    -0.000132 -0.000041  0.000087
     8 C     0.000092  0.000534 -0.000084
     9 N     0.000024 -0.000231  0.000112
    10 N    -0.001537  0.000017 -0.000312
    11 O     0.000258  0.000051  0.000126
    12 O     0.000267  0.000109 -0.000070
 ----------------------------------------

 dE(predicted):    -0.58119E-05, dE(actual):     0.38626E-04, Trust radius:    0.041431, all in a.u.
 
----------------------------------------------------------------------
Geometry Convergence after Step  20       (Hartree/Angstrom,Angstrom)
----------------------------------------------------------------------
current energy                               -2.76476072 Hartree
energy change                       0.00003863     0.00012000    T
constrained gradient max            0.00152372     0.00010000    F
constrained gradient rms            0.00035432     0.00006667    F
gradient max                        0.00152409
gradient rms                        0.00035432
cart. step max                      0.00840519     0.01000000    T
cart. step rms                      0.00297484     0.00666667    T
 

--------
Geometry
--------
Formula: C4H2ClN3O2
Atoms
  Index Symbol   x (angstrom)   y (angstrom)   z (angstrom)
      1      C    -0.65064614     0.17759419    -0.27651283
      2      C    -0.39643374    -0.13800803     1.21938003
      3     Cl    -0.82671889    -1.39208190    -1.20105648
      4      H    -1.20145605    -0.77646825     1.59333998
      5      H    -1.63080825     0.66422906    -0.33467374
      6      C     0.33640565     1.04594374    -0.91145498
      7      N     1.05750470     1.78297318    -1.44375411
      8      C    -0.28253118     1.06868491     2.03053044
      9      N    -0.23003822     2.03757199     2.66800864
     10      N     0.91048828    -1.01792298     1.41887051
     11      O     0.79526078    -1.94761705     2.21685690
     12      O     1.90179639    -0.68911694     0.77317501

Total System Charge              0.00000

 *** GO1_GOStep21 ***

 Energy gradients wrt nuclear displacements
 ==========================================

     Atom      Cartesian (a.u./angstrom)
                 X         Y         Z
 ----------------------------------------
     1 C    -0.000086 -0.000321  0.000146
     2 C     0.000393 -0.000444 -0.000150
     3 Cl   -0.000032  0.000157  0.000172
     4 H     0.000091  0.000078  0.000001
     5 H     0.000076  0.000053 -0.000047
     6 C     0.000106  0.000170 -0.000198
     7 N    -0.000103 -0.000079  0.000081
     8 C     0.000056  0.000218 -0.000142
     9 N     0.000053 -0.000065  0.000156
    10 N    -0.000690  0.000308 -0.000053
    11 O     0.000106 -0.000099  0.000090
    12 O     0.000030  0.000024 -0.000055
 ----------------------------------------

 dE(predicted):    -0.21613E-05, dE(actual):    -0.10733E-04, Trust radius:    0.041431, all in a.u.
 
----------------------------------------------------------------------
Geometry Convergence after Step  21       (Hartree/Angstrom,Angstrom)
----------------------------------------------------------------------
current energy                               -2.76477146 Hartree
energy change                      -0.00001073     0.00012000    T
constrained gradient max            0.00068782     0.00010000    F
constrained gradient rms            0.00019644     0.00006667    F
gradient max                        0.00068804
gradient rms                        0.00019644
cart. step max                      0.00741153     0.01000000    T
cart. step rms                      0.00226247     0.00666667    T
 

--------
Geometry
--------
Formula: C4H2ClN3O2
Atoms
  Index Symbol   x (angstrom)   y (angstrom)   z (angstrom)
      1      C    -0.65124343     0.17765240    -0.27591769
      2      C    -0.39673085    -0.13750695     1.22016730
      3     Cl    -0.82738698    -1.39255625    -1.20029902
      4      H    -1.20133299    -0.77640828     1.59429203
      5      H    -1.63146269     0.66415989    -0.33403260
      6      C     0.33616654     1.04496017    -0.91144288
      7      N     1.05778906     1.78071797    -1.44464015
      8      C    -0.28249009     1.06940368     2.03062533
      9      N    -0.22925168     2.03935163     2.66652889
     10      N     0.91109080    -1.01756488     1.41878290
     11      O     0.79318770    -1.95306691     2.20944538
     12      O     1.90448792    -0.68336053     0.77919987

Total System Charge              0.00000

 *** GO1_GOStep22 ***

 Energy gradients wrt nuclear displacements
 ==========================================

     Atom      Cartesian (a.u./angstrom)
                 X         Y         Z
 ----------------------------------------
     1 C    -0.000087 -0.000070  0.000095
     2 C     0.000141 -0.000242 -0.000000
     3 Cl   -0.000059  0.000019  0.000019
     4 H     0.000041  0.000035 -0.000019
     5 H     0.000027  0.000016 -0.000001
     6 C     0.000288  0.000232 -0.000272
     7 N    -0.000308 -0.000274  0.000180
     8 C     0.000004 -0.000097 -0.000201
     9 N     0.000076  0.000147  0.000208
    10 N    -0.000133  0.000252  0.000076
    11 O    -0.000027 -0.000007 -0.000014
    12 O     0.000038 -0.000010 -0.000069
 ----------------------------------------

 dE(predicted):    -0.67635E-06, dE(actual):    -0.80872E-05, Trust radius:    0.041431, all in a.u.
 
----------------------------------------------------------------------
Geometry Convergence after Step  22       (Hartree/Angstrom,Angstrom)
----------------------------------------------------------------------
current energy                               -2.76477954 Hartree
energy change                      -0.00000809     0.00012000    T
constrained gradient max            0.00030809     0.00010000    F
constrained gradient rms            0.00014201     0.00006667    F
gradient max                        0.00030835
gradient rms                        0.00014201
cart. step max                      0.00240952     0.01000000    T
cart. step rms                      0.00079802     0.00666667    T
 

--------
Geometry
--------
Formula: C4H2ClN3O2
Atoms
  Index Symbol   x (angstrom)   y (angstrom)   z (angstrom)
      1      C    -0.65142344     0.17759197    -0.27564835
      2      C    -0.39689108    -0.13731813     1.22054495
      3     Cl    -0.82652692    -1.39294473    -1.19995099
      4      H    -1.20150824    -0.77603294     1.59497776
      5      H    -1.63195710     0.66345405    -0.33388458
      6      C     0.33578721     1.04516001    -0.91100439
      7      N     1.05762267     1.78084479    -1.44412999
      8      C    -0.28211103     1.06985171     2.03039916
      9      N    -0.22864200     2.04058265     2.66503513
     10      N     0.91106058    -1.01794226     1.41859915
     11      O     0.79236253    -1.95518642     2.20703586
     12      O     1.90505018    -0.68227879     0.78073565

Total System Charge              0.00000

 *** GO1_GOStep23 ***

 Energy gradients wrt nuclear displacements
 ==========================================

     Atom      Cartesian (a.u./angstrom)
                 X         Y         Z
 ----------------------------------------
     1 C    -0.000042  0.000042  0.000051
     2 C     0.000022 -0.000124  0.000062
     3 Cl   -0.000053 -0.000051 -0.000018
     4 H     0.000015  0.000028 -0.000010
     5 H    -0.000000 -0.000002  0.000026
     6 C     0.000133  0.000084 -0.000138
     7 N    -0.000168 -0.000148  0.000082
     8 C    -0.000001 -0.000047 -0.000119
     9 N     0.000062  0.000066  0.000104
    10 N     0.000004  0.000162  0.000054
    11 O    -0.000023  0.000011 -0.000031
    12 O     0.000052 -0.000021 -0.000064
 ----------------------------------------

 dE(predicted):    -0.19576E-06, dE(actual):    -0.17821E-05, Trust radius:    0.041431, all in a.u.
 
----------------------------------------------------------------------
Geometry Convergence after Step  23       (Hartree/Angstrom,Angstrom)
----------------------------------------------------------------------
current energy                               -2.76478133 Hartree
energy change                      -0.00000178     0.00012000    T
constrained gradient max            0.00015917     0.00010000    F
constrained gradient rms            0.00007407     0.00006667    F
gradient max                        0.00015914
gradient rms                        0.00007407
cart. step max                      0.00166907     0.01000000    T
cart. step rms                      0.00065925     0.00666667    T
 

--------
Geometry
--------
Formula: C4H2ClN3O2
Atoms
  Index Symbol   x (angstrom)   y (angstrom)   z (angstrom)
      1      C    -0.65138885     0.17750922    -0.27549224
      2      C    -0.39692667    -0.13726188     1.22076153
      3     Cl    -0.82507336    -1.39317724    -1.19992415
      4      H    -1.20170040    -0.77559066     1.59553488
      5      H    -1.63234153     0.66250582    -0.33389833
      6      C     0.33531626     1.04588499    -0.91045756
      7      N     1.05689538     1.78206232    -1.44334171
      8      C    -0.28150004     1.07015960     2.03006876
      9      N    -0.22803475     2.04173388     2.66336606
     10      N     0.91082768    -1.01875561     1.41853709
     11      O     0.79178551    -1.95626794     2.20656368
     12      O     1.90496411    -0.68302057     0.78099136

Total System Charge              0.00000

 *** GO1_GOStep24 ***

 Energy gradients wrt nuclear displacements
 ==========================================

     Atom      Cartesian (a.u./angstrom)
                 X         Y         Z
 ----------------------------------------
     1 C     0.000007  0.000110  0.000020
     2 C    -0.000047  0.000003  0.000065
     3 Cl   -0.000040 -0.000087 -0.000028
     4 H     0.000013  0.000022  0.000011
     5 H    -0.000016 -0.000018  0.000035
     6 C     0.000004 -0.000008 -0.000023
     7 N    -0.000060 -0.000040 -0.000001
     8 C     0.000016  0.000014 -0.000034
     9 N     0.000037 -0.000004  0.000007
    10 N     0.000054 -0.000002 -0.000008
    11 O     0.000012  0.000024 -0.000018
    12 O     0.000021 -0.000014 -0.000026
 ----------------------------------------
 
----------------------------------------------------------------------
Geometry Convergence after Step  24       (Hartree/Angstrom,Angstrom)
----------------------------------------------------------------------
current energy                               -2.76478143 Hartree
energy change                      -0.00000011     0.00012000    T
constrained gradient max            0.00011386     0.00010000    F
constrained gradient rms            0.00003217     0.00006667    T
gradient max                        0.00011387
gradient rms                        0.00003217
cart. step max                      0.00064230     0.01000000    T
cart. step rms                      0.00020328     0.00666667    T
 

--------
Geometry
--------
Formula: C4H2ClN3O2
Atoms
  Index Symbol   x (angstrom)   y (angstrom)   z (angstrom)
      1      C    -0.65134597     0.17750734    -0.27550215
      2      C    -0.39688361    -0.13733886     1.22071783
      3     Cl    -0.82502947    -1.39304603    -1.20001170
      4      H    -1.20167926    -0.77566010     1.59550081
      5      H    -1.63229158     0.66254129    -0.33389194
      6      C     0.33532522     1.04600293    -0.91039285
      7      N     1.05690068     1.78227691    -1.44319212
      8      C    -0.28150290     1.07008538     2.03005136
      9      N    -0.22820468     2.04173512     2.66324047
     10      N     0.91080459    -1.01886103     1.41855095
     11      O     0.79200562    -1.95588264     2.20720597
     12      O     1.90472469    -0.68357836     0.78043274

Total System Charge              0.00000

 *** GO1_GOStep25 ***

 Energy gradients wrt nuclear displacements
 ==========================================

     Atom      Cartesian (a.u./angstrom)
                 X         Y         Z
 ----------------------------------------
     1 C     0.000009  0.000067  0.000027
     2 C    -0.000013  0.000011  0.000026
     3 Cl   -0.000035 -0.000054 -0.000005
     4 H     0.000008  0.000012  0.000020
     5 H    -0.000018 -0.000011  0.000025
     6 C    -0.000053 -0.000048  0.000009
     7 N    -0.000004  0.000012 -0.000036
     8 C     0.000023  0.000031 -0.000019
     9 N     0.000032 -0.000013 -0.000004
    10 N     0.000026 -0.000014 -0.000013
    11 O     0.000022  0.000012 -0.000005
    12 O     0.000003 -0.000005 -0.000024
 ----------------------------------------
 
---------------------------------------------------------
Geometry Convergence after Step  25       ** CONVERGED **
---------------------------------------------------------
current energy                               -2.76478079 Hartree
energy change                       0.00000065     0.00012000    T
constrained gradient max            0.00006982     0.00010000    T
constrained gradient rms            0.00002094     0.00006667    T
gradient max                        0.00006982
gradient rms                        0.00002094
cart. step max                      0.00013374     0.01000000    T
cart. step rms                      0.00004360     0.00666667    T
 
Geometry optimization converged

Optimized geometry:

--------
Geometry
--------
Formula: C4H2ClN3O2
Atoms
  Index Symbol   x (angstrom)   y (angstrom)   z (angstrom)
      1      C    -0.65134597     0.17750734    -0.27550215
      2      C    -0.39688361    -0.13733886     1.22071783
      3     Cl    -0.82502947    -1.39304603    -1.20001170
      4      H    -1.20167926    -0.77566010     1.59550081
      5      H    -1.63229158     0.66254129    -0.33389194
      6      C     0.33532522     1.04600293    -0.91039285
      7      N     1.05690068     1.78227691    -1.44319212
      8      C    -0.28150290     1.07008538     2.03005136
      9      N    -0.22820468     2.04173512     2.66324047
     10      N     0.91080459    -1.01886103     1.41855095
     11      O     0.79200562    -1.95588264     2.20720597
     12      O     1.90472469    -0.68357836     0.78043274

Total System Charge              0.00000

Performing a single point calculation on the final geometry ...

 *** adf ***



 ===========================
 A T T A C H E D   F I L E S
 ===========================
  
 Restart/tmp/amstmp_c5_fragB_opt_kid0.2033571324/GO1_GOStep25.rkf*** GO1_GOStep25 ***



 ===============================
 M O D E L   P A R A M E T E R S
 ===============================
  
 DENSITY FUNCTIONAL POTENTIAL (scf)
    LDA:                               Exchange only                           == Not Default ==
    Gradient Corrections:              Becke88 LYP                             == Not Default ==

 SPIN  (restricted / unrestr.)
    Molecule:                          Restricted                               
    Fragments:                         Restricted                               

 OTHER ASPECTS
    Relativistic Corrections:          scalar (ZORA,MAPA)                       

    Nuclear Charge Density Model:      Point Charge Nuclei                      
    Core Treatment:                    Frozen Orbital(s)                        

    Hyperfine or Zeeman Interaction:   ---                                      

 Settings for Grimme D3 dispersion correction

      damping                        BJ
      s6                          1.000
      s8                          2.700
      a1                          0.430
      a2                          4.236

 Other (technical) parameters

      alpha                      14.000
      version                         4
 



 ===============
 G E O M E T R Y  ***  3D  Molecule  ***
 ===============
  

 ATOMS
 =====                            X Y Z                    CHARGE
                                (Angstrom)             Nucl     +Core       At.Mass
                       --------------------------    ----------------       -------
    1  C              -0.6513    0.1775   -0.2755      6.00      6.00       12.0000
    2  C              -0.3969   -0.1373    1.2207      6.00      6.00       12.0000
    3  Cl             -0.8250   -1.3930   -1.2000     17.00     17.00       34.9689
    4  H              -1.2017   -0.7757    1.5955      1.00      1.00        1.0078
    5  H              -1.6323    0.6625   -0.3339      1.00      1.00        1.0078
    6  C               0.3353    1.0460   -0.9104      6.00      6.00       12.0000
    7  N               1.0569    1.7823   -1.4432      7.00      7.00       14.0031
    8  C              -0.2815    1.0701    2.0301      6.00      6.00       12.0000
    9  N              -0.2282    2.0417    2.6632      7.00      7.00       14.0031
   10  N               0.9108   -1.0189    1.4186      7.00      7.00       14.0031
   11  O               0.7920   -1.9559    2.2072      8.00      8.00       15.9949
   12  O               1.9047   -0.6836    0.7804      8.00      8.00       15.9949


 FRAGMENTS
 =========                                     Atoms in this Fragment     Cart. coord.s (Angstrom)
                                               -------------------------------------------------------
    1  C                                                 1  C           -0.6513    0.1775   -0.2755
    2  C                                                 2  C           -0.3969   -0.1373    1.2207
    3  C                                                 6  C            0.3353    1.0460   -0.9104
    4  C                                                 8  C           -0.2815    1.0701    2.0301
    5  Cl                                                3  Cl          -0.8250   -1.3930   -1.2000
    6  H                                                 4  H           -1.2017   -0.7757    1.5955
    7  H                                                 5  H           -1.6323    0.6625   -0.3339
    8  N                                                 7  N            1.0569    1.7823   -1.4432
    9  N                                                 9  N           -0.2282    2.0417    2.6632
   10  N                                                10  N            0.9108   -1.0189    1.4186
   11  O                                                11  O            0.7920   -1.9559    2.2072
   12  O                                                12  O            1.9047   -0.6836    0.7804


 Interatomic Distance Matrix (Angstrom)
 --------------------------------------

   1)     0.000
   2)     1.550   0.000
   3)     1.831   2.760   0.000
   4)     2.171   1.093   2.888   0.000
   5)     1.096   2.141   2.372   2.445   0.000
   6)     1.460   2.545   2.716   3.458   2.086   0.000
   7)     2.619   3.591   3.699   4.569   3.117   1.160   0.000
   8)     2.500   1.458   4.098   2.108   2.753   3.005   3.790   0.000
   9)     3.506   2.619   5.204   3.166   3.586   3.752   4.311   1.161   0.000
  10)     2.596   1.589   3.164   2.134   3.516   3.165   4.007   2.482   3.495   0.000
  11)     3.577   2.386   3.813   2.396   4.381   4.352   5.232   3.216   4.151   1.230
          0.000
  12)     2.897   2.406   3.446   3.213   3.945   2.883   3.427   3.069   3.940   1.228
          2.212   0.000

 Min. Distance =    1.0934
 Max. Distance =    5.2316



 =====================================
 S Y M M E T R Y ,   E L E C T R O N S
 =====================================
  
 Symmetry: NOSYM

 Irreducible Representations, including subspecies
 -------------------------------------------------
 A


 Configuration of Valence Electrons
 ==================================
 ( determined in the SCF procedure )

 Total:   80

 Net Charge: 0 (Nuclei minus Electrons)

 Aufbau principle for MO occupations will be applied through SCF cycle no.     100
 Thereafter, the program will assign electrons to MOs that are spatially
 similar to the occupied MOs in a "reference" cycle ("KeepOrbitals").
 The reference cycle is always the PREVIOUS cycle: it will evolve with
 the SCF procedure.
 ***************************************************************************************************



                                      ****************************************
                                      *  B U I L D : (Fragments, Functions)  *
                                      ****************************************
  



 =======
 S F O s  ***  (Symmetrized Fragment Orbitals)  ***
 =======
  
 SFOs are linear combinations of (valence) Fragment Orbitals (FOs), such that the SFOs transform as the
 irreducible representations of the (molecular) symmetry group. Each SFO is therefore characterized by
 an irrep of the molecule and by a few (or only one) generating FOs.
 The SFOs constitute a symmetry-adapted basis for the Fock matrix. The MO eigenvector coefficients in
 this basis provide a direct interpretation of the MOs in terms of Frontier Orbital Theory.

 The SFOs are combined with auxiliary Core Functions (CFs) to ensure orthogonalization on the (frozen)
 Core Orbitals (COs). The Core-orthogonalized SFOs (CSFOs) constitute the true Fock basis.

 The FOs, and hence also the (C)SFOs are combinations of the elementary basis functions (BAS). The basis
 functions that participate in the description of the SFOs depend on the irrep. The indices of the
 involved functions are printed below for each irrep.
 (The complete list of primitive basis functions is printed in another section)

 Total nr. of (C)SFOs (summation over all irreps) :   290

 NOTE: a (C)SFO that is defined as a combination of more than one FO is usually NOT normalized.



                                       === A ===
 Nr. of SFOs :  290
 Cartesian basis functions that participate in this irrep (total number =   332) :
      1     2     3     4     5     6     9    12     7    10
     13     8    11    14    15    16    17    18    19    20
     21    22    23    24    25    26    27    28    29    30
     31    32    33    34    35    36    39    42    37    40
     43    38    41    44    45    46    47    48    49    50
     51    52    53    54    55    56    57    58    59    60
     61    62    63    64    65    66    69    72    67    70
     73    68    71    74    75    76    77    78    79    80
     81    82    83    84    85    86    87    88    89    90
     91    92    93    94    95    96    99   102    97   100
    103    98   101   104   105   106   107   108   109   110
    111   112   113   114   115   116   117   118   119   120
    121   122   123   124   131   132   133   125   128   134
    137   140   126   129   135   138   141   127   130   136
    139   142   143   144   145   146   147   148   149   150
    151   152   153   154   155   156   157   158   159   160
    161   162   163   164   165   166   167   168   169   170
    171   172   173   174   175   176   177   178   179   180
    181   182   183   184   185   186   187   188   191   194
    189   192   195   190   193   196   197   198   199   200
    201   202   203   204   205   206   207   208   209   210
    211   212   213   214   215   216   217   218   221   224
    219   222   225   220   223   226   227   228   229   230
    231   232   233   234   235   236   237   238   239   240
    241   242   243   244   245   246   247   248   251   254
    249   252   255   250   253   256   257   258   259   260
    261   262   263   264   265   266   267   268   269   270
    271   272   273   274   275   276   277   278   281   284
    279   282   285   280   283   286   287   288   289   290
    291   292   293   294   295   296   297   298   299   300
    301   302   303   304   305   306   307   308   311   314
    309   312   315   310   313   316   317   318   319   320
    321   322   323   324   325   326   327   328   329   330
    331   332

    SFO  (index         Fragment          Generating    Expansion in Fragment Orbitals
  indx  incl.CFs)   Occup   Orb.Energy   FragmentType  Coeff.   Orbital     on Fragment
 --------------------------------------------------------------------------------------
     1       1      2.000     -10.066 au  C             1.00      1 S               1
                        (    -273.921 eV)
     2       2      2.000      -0.501 au  C             1.00      2 S               1
                        (     -13.620 eV)
     3       3       --         0.373 au  C             1.00      3 S               1
                        (      10.158 eV)
     4       4       --         5.405 au  C             1.00      4 S               1
                        (     147.073 eV)
     5       5       --        49.848 au  C             1.00      5 S               1
                        (    1356.422 eV)
     6       6      0.667      -0.193 au  C             1.00      1 P:x             1
                        (      -5.239 eV)
     7       7       --         0.169 au  C             1.00      2 P:x             1
                        (       4.589 eV)
     8       8       --         2.013 au  C             1.00      3 P:x             1
                        (      54.789 eV)
     9       9      0.667      -0.193 au  C             1.00      1 P:y             1
                        (      -5.239 eV)
    10      10       --         0.169 au  C             1.00      2 P:y             1
                        (       4.589 eV)
    11      11       --         2.013 au  C             1.00      3 P:y             1
                        (      54.789 eV)
    12      12      0.667      -0.193 au  C             1.00      1 P:z             1
                        (      -5.239 eV)
    13      13       --         0.169 au  C             1.00      2 P:z             1
                        (       4.589 eV)
    14      14       --         2.013 au  C             1.00      3 P:z             1
                        (      54.789 eV)
    15      15       --         1.243 au  C             1.00      1 D:z2            1
                        (      33.824 eV)
    16      16       --         1.243 au  C             1.00      1 D:x2-y2         1
                        (      33.824 eV)
    17      17       --         1.243 au  C             1.00      1 D:xy            1
                        (      33.824 eV)
    18      18       --         1.243 au  C             1.00      1 D:xz            1
                        (      33.824 eV)
    19      19       --         1.243 au  C             1.00      1 D:yz            1
                        (      33.824 eV)
    20      20       --         4.016 au  C             1.00      1 F:z3            1
                        (     109.271 eV)
    21      21       --         4.016 au  C             1.00      1 F:z             1
                        (     109.271 eV)
    22      22       --         4.016 au  C             1.00      1 F:xyz           1
                        (     109.271 eV)
    23      23       --         4.016 au  C             1.00      1 F:z2x           1
                        (     109.271 eV)
[...]
                                    1.80%     1 P:z            -5.239  0.67     2 C
                                    1.74%     1 P:y            -5.239  0.67     4 C
                                   -1.70%     2 P:x             7.649  0.00     8 N
                                    1.50%     2 S             -13.620  2.00     1 C
                                    1.30%     1 P:y            -5.239  0.67     3 C
                                    1.29%     2 P:y            -8.439  1.67     5 Cl
                                    1.14%     1 D:yz           10.568  0.00     5 Cl
                                    1.06%     2 P:z             4.589  0.00     2 C
                                   -1.03%     2 P:z             7.649  0.00     8 N
      -0.349  0.00    47 A         27.54%     2 S               2.394  0.00     6 H
                                   26.22%     1 S              -6.532  1.00     6 H
                                    9.06%     1 S              -6.532  1.00     7 H
                                    8.06%     1 P:y            -5.239  0.67     3 C
                                    6.34%     1 P:y            -7.062  1.00     8 N
                                    5.91%     2 S             -13.620  2.00     2 C
                                    5.14%     2 S             -13.620  2.00     1 C
                                   -4.13%     3 S              10.158  0.00     2 C
                                    3.83%     2 P:z             4.589  0.00     4 C
                                   -3.62%     2 S               2.394  0.00     7 H
                                    3.46%     1 P:y            -5.239  0.67     1 C
                                    3.04%     1 P:x            -5.239  0.67     3 C
                                    3.03%     2 S             -18.450  2.00    10 N
                                   -2.76%     2 P:x             4.589  0.00     2 C
                                   -2.58%     3 S              10.158  0.00     1 C
                                   -2.52%     2 P:y             4.589  0.00     2 C
                                    2.47%     2 P:z            -8.439  1.67     5 Cl
                                   -2.30%     3 S              14.073  0.00     9 N
                                    2.29%     1 P:x            -7.062  1.00     8 N
                                    2.22%     2 P:y            -8.439  1.67     5 Cl
                                    2.05%     3 P:y             6.147  0.00     5 Cl
                                    1.75%     2 S             -13.620  2.00     4 C
                                    1.66%     1 P:z            -5.239  0.67     3 C
                                    1.52%     1 D:yz           10.568  0.00     5 Cl
                                    1.47%     2 P:z             4.589  0.00     1 C
                                   -1.43%     1 P:x            -5.239  0.67     2 C
                                   -1.37%     2 P:y             4.589  0.00     4 C
                                   -1.12%     3 P:z             6.147  0.00     5 Cl
                                   -1.06%     2 P:x             4.589  0.00     3 C
                                    1.02%     1 P:z            -7.062  1.00     8 N
       0.019  0.00    48 A         15.15%     1 S              -6.532  1.00     7 H
                                   13.76%     1 P:y            -5.239  0.67     3 C
                                   11.94%     2 S               2.394  0.00     7 H
                                    7.60%     1 S              -6.532  1.00     6 H
                                    7.44%     1 P:y            -7.062  1.00     8 N
                                   -6.49%     2 P:x             4.589  0.00     1 C
                                    5.62%     1 P:z            -5.239  0.67     3 C
                                    5.47%     1 P:x            -5.239  0.67     4 C
                                   -5.11%     2 P:y             4.589  0.00     2 C
                                    4.55%     2 S               2.394  0.00     6 H
                                    4.12%     1 P:z            -7.062  1.00     8 N
                                    3.94%     2 S             -18.450  2.00    10 N
                                    3.36%     1 P:x            -7.062  1.00     9 N
                                    3.20%     1 P:y            -5.239  0.67     1 C
                                    3.04%     1 P:y            -5.239  0.67     2 C
                                    2.99%     1 P:z            -5.239  0.67     4 C
                                   -2.99%     2 P:y             4.589  0.00     1 C
                                   -2.53%     2 P:z             4.589  0.00     2 C
                                    2.43%     2 P:y            -8.439  1.67     5 Cl
                                    2.36%     1 P:z            -5.239  0.67     1 C
                                    1.99%     1 P:y            -5.239  0.67     4 C
                                    1.83%     1 P:z            -7.062  1.00     9 N
                                    1.80%     1 P:x            -5.239  0.67     1 C
                                    1.77%     2 P:y             4.589  0.00     4 C
                                   -1.71%     2 P:y             7.649  0.00     8 N
                                    1.58%     1 D:yz           10.568  0.00     5 Cl
                                    1.21%     2 P:z            -8.439  1.67     5 Cl
                                    1.19%     1 P:x            -5.239  0.67     3 C
                                    1.03%     2 P:x             4.589  0.00     3 C
                                    1.02%     1 P:x            -9.020  1.33    12 O
       0.536  0.00    49 A         14.92%     1 S              -6.532  1.00     6 H
                                   12.44%     1 P:x            -5.239  0.67     4 C
                                   11.21%     2 S             -13.620  2.00     3 C
                                   10.77%     1 P:x            -5.239  0.67     2 C
                                    6.07%     2 S             -18.450  2.00    10 N
                                    6.01%     2 P:x             4.589  0.00     1 C
                                    5.97%     2 S               2.394  0.00     7 H
                                    5.86%     2 P:y             4.589  0.00     4 C
                                    5.53%     2 S             -13.620  2.00     4 C
                                    5.18%     1 P:x            -7.062  1.00     9 N
                                   -4.98%     3 S              14.073  0.00     8 N
                                    4.91%     2 P:y             4.589  0.00     3 C
                                    4.10%     2 S               2.394  0.00     6 H
                                   -3.58%     2 P:z             4.589  0.00     1 C
                                    3.29%     2 P:x             4.589  0.00     4 C
                                    2.69%     2 P:x             4.589  0.00     3 C
                                    2.43%     2 P:x             7.649  0.00    10 N
                                   -2.29%     3 S              14.073  0.00     9 N
                                    2.26%     1 P:z            11.051  0.00     6 H
                                   -2.20%     2 P:z             4.589  0.00     2 C
                                   -2.16%     2 P:x             7.649  0.00     9 N
                                   -1.99%     2 P:y             4.589  0.00     2 C
                                   -1.80%     2 P:x             4.589  0.00     2 C
                                    1.64%     1 P:z            -5.239  0.67     1 C
                                   -1.56%     3 S              14.073  0.00    10 N
                                    1.43%     1 P:y            -5.239  0.67     1 C
                                    1.29%     1 P:y            -9.020  1.33    11 O
                                    1.28%     3 S              10.158  0.00     3 C
                                   -1.26%     1 S              -6.532  1.00     7 H
                                   -1.10%     1 P:z            -5.239  0.67     2 C

 Energy gradients wrt nuclear displacements
 ==========================================

     Atom      Cartesian (a.u./angstrom)
                 X         Y         Z
 ----------------------------------------
     1 C     0.000009  0.000067  0.000027
     2 C    -0.000013  0.000011  0.000026
     3 Cl   -0.000035 -0.000054 -0.000005
     4 H     0.000008  0.000012  0.000020
     5 H    -0.000018 -0.000011  0.000025
     6 C    -0.000053 -0.000048  0.000009
     7 N    -0.000004  0.000012 -0.000036
     8 C     0.000023  0.000031 -0.000019
     9 N     0.000032 -0.000013 -0.000004
    10 N     0.000026 -0.000014 -0.000013
    11 O     0.000022  0.000012 -0.000005
    12 O     0.000003 -0.000005 -0.000024
 ----------------------------------------



 =======================================================================
 Electrostatic potential at the Nuclei due to electrons and other nuclei
 =======================================================================
  
         Atom                  Potential
         ----                  ---------
     1)   C                  14.61628813
     2)   C                  14.62622880
     3)   Cl                 64.81075688
     4)   H                   0.99933390
     5)   H                   0.99940904
     6)   C                  14.72273219
     7)   N                  18.39872294
     8)   C                  14.71010058
     9)   N                  18.38451200
    10)   N                  18.14242193
    11)   O                  22.31819502
    12)   O                  22.31805818
 Mulliken charges used for AMS results%charges...


    =====================
     CALCULATION RESULTS
    =====================

Energy (hartree)            -2.76478079

Gradients (hartree/bohr)
  Index   Atom            d/dx            d/dy            d/dz
      1      C    0.0000048517    0.0000352241    0.0000140258
      2      C   -0.0000067758    0.0000056853    0.0000138727
      3     Cl   -0.0000185715   -0.0000283227   -0.0000027789
      4      H    0.0000041208    0.0000063507    0.0000107001
      5      H   -0.0000096706   -0.0000055649    0.0000131378
      6      C   -0.0000281102   -0.0000254115    0.0000049624
      7      N   -0.0000020947    0.0000061052   -0.0000190493
      8      C    0.0000122199    0.0000164476   -0.0000102722
      9      N    0.0000170858   -0.0000068877   -0.0000022226
     10      N    0.0000139695   -0.0000072664   -0.0000070658
     11      O    0.0000116460    0.0000061162   -0.0000026671
     12      O    0.0000013292   -0.0000024760   -0.0000126431


--------------
Atomic charges
--------------
  Index   Atom    Charge
      1      C    0.2234
      2      C    0.2009
      3     Cl   -0.0918
      4      H   -0.0397
      5      H   -0.0484
      6      C    0.1397
      7      N   -0.2012
      8      C    0.1190
      9      N   -0.1950
     10      N    0.5639
     11      O   -0.3402
     12      O   -0.3308


Dipole moment vector    (Debye):    -4.18865083   -1.87898168   -0.21040003
              magnitude (Debye):     4.59561052


-----------------------
Molecular orbitals info
-----------------------
n orbitals:              290
n spin:                    1

Note: only printing virtual orbitals with
      energy smaller than HOMO + 100. eV

HOMO (eV):              -8.1810
LUMO (eV):              -4.3538
HOMO-LUMO gap (eV):      3.8272

   Index   Energy (eV)    Occupation
     183       91.7187         0.000       
     182       90.9639         0.000       
     181       89.9531         0.000       
     180       89.8142         0.000       
     179       88.7483         0.000       
     178       87.4827         0.000       
     177       84.9359         0.000       
     176       84.2274         0.000       
     175       83.7964         0.000       
     174       80.3615         0.000       
     173       79.0780         0.000       
     172       78.2339         0.000       
     171       77.3731         0.000       
     170       75.9180         0.000       
     169       74.9725         0.000       
     168       73.4198         0.000       
     167       72.6038         0.000       
     166       71.7825         0.000       
     165       70.8984         0.000       
     164       69.5371         0.000       
     163       69.3606         0.000       
     162       68.1758         0.000       
     161       67.1925         0.000       
     160       65.4983         0.000       
     159       65.2029         0.000       
     158       63.9433         0.000       
     157       63.6553         0.000       
     156       62.6618         0.000       
     155       62.1506         0.000       
     154       61.3759         0.000       
     153       61.1702         0.000       
     152       60.2617         0.000       
     151       59.6579         0.000       
     150       59.1252         0.000       
     149       57.9496         0.000       
     148       56.0250         0.000       
     147       55.6625         0.000       
     146       55.0672         0.000       
     145       53.6566         0.000       
     144       52.1305         0.000       
     143       51.4545         0.000       
     142       50.8237         0.000       
     141       50.0816         0.000       
     140       48.7876         0.000       
     139       47.7852         0.000       
     138       47.2015         0.000       
     137       45.9938         0.000       
     136       45.7223         0.000       
     135       44.8432         0.000       
     134       44.5489         0.000       
     133       43.8508         0.000       
     132       42.9638         0.000       
     131       42.8442         0.000       
     130       41.2597         0.000       
     129       40.5530         0.000       
     128       39.8228         0.000       
     127       39.5866         0.000       
     126       38.8977         0.000       
     125       37.9385         0.000       
     124       37.5104         0.000       
     123       37.0950         0.000       
     122       36.6999         0.000       
     121       35.7442         0.000       
     120       35.3158         0.000       
     119       34.7128         0.000       
     118       34.2661         0.000       
     117       34.0388         0.000       
     116       33.6137         0.000       
     115       32.7879         0.000       
     114       32.5952         0.000       
     113       32.4559         0.000       
     112       32.0424         0.000       
     111       31.9451         0.000       
     110       31.5595         0.000       
     109       31.1236         0.000       
     108       30.5446         0.000       
     107       29.7658         0.000       
     106       29.2691         0.000       
     105       28.3614         0.000       
     104       27.2265         0.000       
     103       26.9514         0.000       
     102       26.3922         0.000       
     101       25.9896         0.000       
     100       25.8111         0.000       
      99       24.9636         0.000       
      98       23.3688         0.000       
      97       22.7901         0.000       
      96       22.2260         0.000       
      95       21.5353         0.000       
      94       21.3567         0.000       
      93       20.0154         0.000       
      92       18.9327         0.000       
      91       18.4668         0.000       
      90       18.2399         0.000       
      89       17.6767         0.000       
      88       17.3102         0.000       
      87       16.7051         0.000       
      86       16.1574         0.000       
      85       15.8398         0.000       
      84       15.5631         0.000       
      83       14.7389         0.000       
      82       13.3761         0.000       
      81       12.3784         0.000       
      80       12.1964         0.000       
      79       11.9669         0.000       
      78       11.6003         0.000       
      77       11.3782         0.000       
      76       10.6306         0.000       
      75       10.5584         0.000       
      74       10.0390         0.000       
      73        9.8131         0.000       
      72        9.5127         0.000       
      71        9.1472         0.000       
      70        8.5521         0.000       
      69        8.1390         0.000       
      68        7.7020         0.000       
      67        7.1505         0.000       
      66        6.9862         0.000       
      65        6.9396         0.000       
      64        6.6375         0.000       
      63        6.2625         0.000       
      62        5.6912         0.000       
      61        5.5710         0.000       
      60        5.1578         0.000       
      59        4.7237         0.000       
      58        4.5157         0.000       
      57        4.2262         0.000       
      56        3.8621         0.000       
      55        3.7355         0.000       
      54        3.2881         0.000       
      53        2.6396         0.000       
      52        2.3824         0.000       
      51        1.6561         0.000       
      50        1.2939         0.000       
      49        0.5356         0.000       
      48        0.0186         0.000       
      47       -0.3487         0.000       
      46       -0.6682         0.000       
      45       -1.7084         0.000       
      44       -1.8488         0.000       
      43       -2.4443         0.000       
      42       -3.2832         0.000       
      41       -4.3538         0.000 < LUMO
      40       -8.1810         2.000 < HOMO
      39       -8.2398         2.000       
      38       -8.6225         2.000       
      37       -8.7026         2.000       
      36       -8.9995         2.000       
      35       -9.2422         2.000       
      34       -9.3315         2.000       
      33       -9.5490         2.000       
      32       -9.6149         2.000       
      31       -9.8910         2.000       
      30       -9.9330         2.000       
      29      -12.2999         2.000       
      28      -12.9674         2.000       
      27      -13.2110         2.000       
      26      -13.9255         2.000       
      25      -14.1967         2.000       
      24      -15.0332         2.000       
      23      -15.6537         2.000       
      22      -17.3461         2.000       
      21      -19.3024         2.000       
      20      -21.6575         2.000       
      19      -23.0664         2.000       
      18      -23.6915         2.000       
      17      -24.1835         2.000       
      16      -27.8050         2.000       
      15      -31.9776         2.000       
      14     -191.6544         2.000       
      13     -191.6608         2.000       
      12     -191.9930         2.000       
      11     -252.7148         2.000       
      10     -272.1338         2.000       
       9     -272.4751         2.000       
       8     -274.3706         2.000       
       7     -274.5721         2.000       
       6     -382.6483         2.000       
       5     -383.0412         2.000       
       4     -389.0444         2.000       
       3     -513.8827         2.000       
       2     -513.8915         2.000       
       1    -2751.9833         2.000       

AMS application finished. Exiting.
NORMAL TERMINATION
     Total cpu time:     917.95
  Total system time:       4.72
 Total elapsed time:     925.94
NORMAL TERMINATION
