
 *******************************************************************************
 *                                                                             *
 *  --------------------------------                                           *
 *   Amsterdam Modeling Suite (AMS)              2026.103                      *
 *  --------------------------------                                           *
 *                                               r260501 2026-05-01 873454b5   *
 *                                                                             *
 *                                                                             *
 *                              =================                              *
 *                              |               |                              *
 *                              |     A M S     |                              *
 *                              |               |                              *
 *                              =================                              *
 *                                                                             *
 *                                                                             *
 *   Online information and documentation:  https://www.scm.com/support/       *
 *   E-mail:  support@scm.com   info@scm.com                                   *
 *                                                                             *
 *   Scientific publications using AMS results must be properly referenced     *
 *   See the User Manuals (or the web site) for recommended citations          *
 *   The terms and conditions of the End User License Agreement apply to       *
 *   the use of AMS, https://www.scm.com/license-terms/                        *
 *                                                                             *
 **********************  x86_64_linux_intel / intelmpi  ************************
 
 Licensed to: Jong-June Jeon / University of Seoul 2026-05-13 16:10:32
 SCM User ID: u30731
  
 AMS 2026.103  RunTime: May31-2026 15:20:29  ShM Nodes: 1  Procs: 1

 AMS jobname: c2_fragB_ts
 AMS jobid  : 886398725

 Start   directory: /gpfs/home1/yeseo1ee/projects/eda-asm-prediction/adf_outputs/batch_001/dipolar_002542/
 Results directory: /gpfs/home1/yeseo1ee/projects/eda-asm-prediction/adf_outputs/batch_001/dipolar_002542/c2_fragB_ts.results/
 Scratch directory: /tmp/amstmp_c2_fragB_ts_kid0.886398725/

 RNG seed: 167433640 23404934 1130275202 -200922904 845524654 1302867749 1254644677 -588605380



                      ************************************************************************
                      *  ADF 2026.103  RunTime: May31-2026 15:20:29  ShM Nodes: 1  Procs: 1  *
                      ************************************************************************
  

       ****************************
       * SINGLE POINT CALCULATION *
       ****************************

--------
Geometry
--------
Formula: C3H4N4O
Atoms
  Index Symbol   x (angstrom)   y (angstrom)   z (angstrom)
      1      C     1.27248000    -3.17650000    -2.83907000
      2      C     1.29097000    -2.46083000    -1.50830000
      3      O     2.31724000    -2.28388000    -0.87877000
      4      N     0.04584000    -2.18258000    -0.93615000
      5      N    -0.98756000    -1.79902000    -1.60509000
      6      N    -1.05824000    -0.68113000    -2.27999000
      7      C     0.03816000    -0.27983000    -2.92944000
      8      N     0.91292000     0.12820000    -3.58601000
      9      H     0.32286000    -3.09336000    -3.38080000
     10      H     1.47007000    -4.24223000    -2.63953000
     11      H     2.09730000    -2.78389000    -3.44936000
     12      H    -1.89678000    -2.07616000    -1.21495000

Total System Charge              0.00000


----------------
ADF Engine Input
----------------
 
   Basis
     Type TZ2P
     Core None
   End
   XC
     GGA BLYP
     Dispersion GRIMME3 BJDAMP
   End
   Symmetry NOSYM
   NumericalQuality Normal
   Unrestricted No
   SCF
     Iterations 200
     Converge 1.0e-6
   End
   Save TAPE21
 

 Title: *** (NO TITLE) ***

 *** adf ***



 ===========================
 A T T A C H E D   F I L E S
 ===========================
  



 ===============================
 M O D E L   P A R A M E T E R S
 ===============================
  
 DENSITY FUNCTIONAL POTENTIAL (scf)
    LDA:                               Exchange only                           == Not Default ==
    Gradient Corrections:              Becke88 LYP                             == Not Default ==

 SPIN  (restricted / unrestr.)
    Molecule:                          Restricted                               
    Fragments:                         Restricted                               

 OTHER ASPECTS
    Relativistic Corrections:          scalar (ZORA,MAPA)                       

    Nuclear Charge Density Model:      Point Charge Nuclei                      
    Core Treatment:                    Frozen Orbital(s)                        

    Hyperfine or Zeeman Interaction:   ---                                      

 Settings for Grimme D3 dispersion correction

      damping                        BJ
      s6                          1.000
      s8                          2.700
      a1                          0.430
      a2                          4.236

 Other (technical) parameters

      alpha                      14.000
      version                         4
 


 Fragment File(s)
 ----------------
 C:
         file : /gpfs/home1/yeseo1ee/projects/eda-asm-prediction/adf_outputs/batch_001/dipolar_002542/c2_fragB_ts.results/t21.50BA88D5.C
         jobid: 0
         title: Carbon (TZ2P)
 O:
         file : /gpfs/home1/yeseo1ee/projects/eda-asm-prediction/adf_outputs/batch_001/dipolar_002542/c2_fragB_ts.results/t21.6E90ABAE.O
         jobid: 0
         title: Oxygen (TZ2P)
 N:
         file : /gpfs/home1/yeseo1ee/projects/eda-asm-prediction/adf_outputs/batch_001/dipolar_002542/c2_fragB_ts.results/t21.44EAA48D.N
         jobid: 0
         title: Nitrogen (TZ2P)
 H:
         file : /gpfs/home1/yeseo1ee/projects/eda-asm-prediction/adf_outputs/batch_001/dipolar_002542/c2_fragB_ts.results/t21.6F35CCAB.H
         jobid: 0
         title: Hydrogen (TZ2P)



 ===============
 G E O M E T R Y  ***  3D  Molecule  ***
 ===============
  

 ATOMS
 =====                            X Y Z                    CHARGE
                                (Angstrom)             Nucl     +Core       At.Mass
                       --------------------------    ----------------       -------
    1  C               1.2725   -3.1765   -2.8391      6.00      6.00       12.0000
    2  C               1.2910   -2.4608   -1.5083      6.00      6.00       12.0000
    3  O               2.3172   -2.2839   -0.8788      8.00      8.00       15.9949
    4  N               0.0458   -2.1826   -0.9362      7.00      7.00       14.0031
    5  N              -0.9876   -1.7990   -1.6051      7.00      7.00       14.0031
    6  N              -1.0582   -0.6811   -2.2800      7.00      7.00       14.0031
    7  C               0.0382   -0.2798   -2.9294      6.00      6.00       12.0000
    8  N               0.9129    0.1282   -3.5860      7.00      7.00       14.0031
    9  H               0.3229   -3.0934   -3.3808      1.00      1.00        1.0078
   10  H               1.4701   -4.2422   -2.6395      1.00      1.00        1.0078
   11  H               2.0973   -2.7839   -3.4494      1.00      1.00        1.0078
   12  H              -1.8968   -2.0762   -1.2149      1.00      1.00        1.0078


 FRAGMENTS
 =========                                     Atoms in this Fragment     Cart. coord.s (Angstrom)
                                               -------------------------------------------------------
    1  C                                                 1  C            1.2725   -3.1765   -2.8391
    2  C                                                 2  C            1.2910   -2.4608   -1.5083
    3  C                                                 7  C            0.0382   -0.2798   -2.9294
    4  O                                                 3  O            2.3172   -2.2839   -0.8788
    5  N                                                 4  N            0.0458   -2.1826   -0.9362
    6  N                                                 5  N           -0.9876   -1.7990   -1.6051
    7  N                                                 6  N           -1.0582   -0.6811   -2.2800
    8  N                                                 8  N            0.9129    0.1282   -3.5860
    9  H                                                 9  H            0.3229   -3.0934   -3.3808
   10  H                                                10  H            1.4701   -4.2422   -2.6395
   11  H                                                11  H            2.0973   -2.7839   -3.4494
   12  H                                                12  H           -1.8968   -2.0762   -1.2149


 Interatomic Distance Matrix (Angstrom)
 --------------------------------------

   1)     0.000
   2)     1.511   0.000
   3)     2.394   1.217   0.000
   4)     2.473   1.398   2.274   0.000
   5)     2.920   2.375   3.418   1.289   0.000
   6)     3.460   3.047   3.991   2.298   1.308   0.000
   7)     3.150   2.889   3.663   2.756   2.261   1.336   0.000
   8)     3.407   3.341   3.888   3.621   3.354   2.499   1.167   0.000
   9)     1.096   2.201   3.300   2.623   2.558   2.990   2.864   3.282   0.000
  10)     1.102   2.118   2.766   3.029   3.617   4.382   4.223   4.506   1.785   0.000
  11)     1.099   2.127   2.628   3.299   3.727   3.968   3.283   3.147   1.803   1.782
          0.000
  12)     3.727   3.224   4.233   1.965   1.027   1.945   3.148   4.287   3.264   4.249
          4.631   0.000

 Min. Distance =    1.0275
 Max. Distance =    4.6310



 =====================================
 S Y M M E T R Y ,   E L E C T R O N S
 =====================================
  
 Symmetry: NOSYM

 Irreducible Representations, including subspecies
 -------------------------------------------------
 A


 Configuration of Valence Electrons
 ==================================
 ( determined in the SCF procedure )

 Total:   58

 Net Charge: 0 (Nuclei minus Electrons)

 Aufbau principle for MO occupations will be applied through SCF cycle no.     100
 Thereafter, the program will assign electrons to MOs that are spatially
 similar to the occupied MOs in a "reference" cycle ("KeepOrbitals").
 The reference cycle is always the PREVIOUS cycle: it will evolve with
 the SCF procedure.
 ***************************************************************************************************



                                      ****************************************
                                      *  B U I L D : (Fragments, Functions)  *
                                      ****************************************
  



 =======
 S F O s  ***  (Symmetrized Fragment Orbitals)  ***
 =======
  
 SFOs are linear combinations of (valence) Fragment Orbitals (FOs), such that the SFOs transform as the
 irreducible representations of the (molecular) symmetry group. Each SFO is therefore characterized by
 an irrep of the molecule and by a few (or only one) generating FOs.
 The SFOs constitute a symmetry-adapted basis for the Fock matrix. The MO eigenvector coefficients in
 this basis provide a direct interpretation of the MOs in terms of Frontier Orbital Theory.

 The SFOs are combined with auxiliary Core Functions (CFs) to ensure orthogonalization on the (frozen)
 Core Orbitals (COs). The Core-orthogonalized SFOs (CSFOs) constitute the true Fock basis.

 The FOs, and hence also the (C)SFOs are combinations of the elementary basis functions (BAS). The basis
 functions that participate in the description of the SFOs depend on the irrep. The indices of the
 involved functions are printed below for each irrep.
 (The complete list of primitive basis functions is printed in another section)

 Total nr. of (C)SFOs (summation over all irreps) :   252

 NOTE: a (C)SFO that is defined as a combination of more than one FO is usually NOT normalized.



                                       === A ===
 Nr. of SFOs :  252
 Cartesian basis functions that participate in this irrep (total number =   288) :
      1     2     3     4     5     6     9    12     7    10
     13     8    11    14    15    16    17    18    19    20
     21    22    23    24    25    26    27    28    29    30
     31    32    33    34    35    36    39    42    37    40
     43    38    41    44    45    46    47    48    49    50
     51    52    53    54    55    56    57    58    59    60
     61    62    63    64    65    66    69    72    67    70
     73    68    71    74    75    76    77    78    79    80
     81    82    83    84    85    86    87    88    89    90
     91    92    93    94    95    96    99   102    97   100
    103    98   101   104   105   106   107   108   109   110
    111   112   113   114   115   116   117   118   119   120
    121   122   123   124   125   126   129   132   127   130
    133   128   131   134   135   136   137   138   139   140
    141   142   143   144   145   146   147   148   149   150
    151   152   153   154   155   156   159   162   157   160
    163   158   161   164   165   166   167   168   169   170
    171   172   173   174   175   176   177   178   179   180
    181   182   183   184   185   186   189   192   187   190
    193   188   191   194   195   196   197   198   199   200
    201   202   203   204   205   206   207   208   209   210
    211   212   213   214   215   216   219   222   217   220
    223   218   221   224   225   226   227   228   229   230
    231   232   233   234   235   236   237   238   239   240
    241   242   243   244   245   246   247   248   249   250
    251   252   253   254   255   256   257   258   259   260
    261   262   263   264   265   266   267   268   269   270
    271   272   273   274   275   276   277   278   279   280
    281   282   283   284   285   286   287   288

    SFO  (index         Fragment          Generating    Expansion in Fragment Orbitals
  indx  incl.CFs)   Occup   Orb.Energy   FragmentType  Coeff.   Orbital     on Fragment
 --------------------------------------------------------------------------------------
     1       1      2.000     -10.066 au  C             1.00      1 S               1
                        (    -273.921 eV)
     2       2      2.000      -0.501 au  C             1.00      2 S               1
                        (     -13.620 eV)
     3       3       --         0.373 au  C             1.00      3 S               1
                        (      10.158 eV)
     4       4       --         5.405 au  C             1.00      4 S               1
                        (     147.073 eV)
     5       5       --        49.848 au  C             1.00      5 S               1
                        (    1356.422 eV)
     6       6      0.667      -0.193 au  C             1.00      1 P:x             1
                        (      -5.239 eV)
     7       7       --         0.169 au  C             1.00      2 P:x             1
                        (       4.589 eV)
     8       8       --         2.013 au  C             1.00      3 P:x             1
                        (      54.789 eV)
     9       9      0.667      -0.193 au  C             1.00      1 P:y             1
                        (      -5.239 eV)
    10      10       --         0.169 au  C             1.00      2 P:y             1
                        (       4.589 eV)
    11      11       --         2.013 au  C             1.00      3 P:y             1
                        (      54.789 eV)
    12      12      0.667      -0.193 au  C             1.00      1 P:z             1
                        (      -5.239 eV)
    13      13       --         0.169 au  C             1.00      2 P:z             1
                        (       4.589 eV)
    14      14       --         2.013 au  C             1.00      3 P:z             1
                        (      54.789 eV)
    15      15       --         1.243 au  C             1.00      1 D:z2            1
                        (      33.824 eV)
    16      16       --         1.243 au  C             1.00      1 D:x2-y2         1
                        (      33.824 eV)
    17      17       --         1.243 au  C             1.00      1 D:xy            1
                        (      33.824 eV)
    18      18       --         1.243 au  C             1.00      1 D:xz            1
                        (      33.824 eV)
    19      19       --         1.243 au  C             1.00      1 D:yz            1
                        (      33.824 eV)
    20      20       --         4.016 au  C             1.00      1 F:z3            1
                        (     109.271 eV)
    21      21       --         4.016 au  C             1.00      1 F:z             1
                        (     109.271 eV)
    22      22       --         4.016 au  C             1.00      1 F:xyz           1
                        (     109.271 eV)
    23      23       --         4.016 au  C             1.00      1 F:z2x           1
                        (     109.271 eV)
    24      24       --         4.016 au  C             1.00      1 F:z2y           1
                        (     109.271 eV)
    25      25       --         4.016 au  C             1.00      1 F:x             1
                        (     109.271 eV)
    26      26       --         4.016 au  C             1.00      1 F:y             1
                        (     109.271 eV)
    27      27      2.000     -10.066 au  C             1.00      1 S               2
                        (    -273.921 eV)
    28      28      2.000      -0.501 au  C             1.00      2 S               2
                        (     -13.620 eV)
    29      29       --         0.373 au  C             1.00      3 S               2
                        (      10.158 eV)
    30      30       --         5.405 au  C             1.00      4 S               2
                        (     147.073 eV)
    31      31       --        49.848 au  C             1.00      5 S               2
                        (    1356.422 eV)
    32      32      0.667      -0.193 au  C             1.00      1 P:x             2
                        (      -5.239 eV)
    33      33       --         0.169 au  C             1.00      2 P:x             2
                        (       4.589 eV)
    34      34       --         2.013 au  C             1.00      3 P:x             2
                        (      54.789 eV)
    35      35      0.667      -0.193 au  C             1.00      1 P:y             2
                        (      -5.239 eV)
    36      36       --         0.169 au  C             1.00      2 P:y             2
                        (       4.589 eV)
    37      37       --         2.013 au  C             1.00      3 P:y             2
                        (      54.789 eV)
    38      38      0.667      -0.193 au  C             1.00      1 P:z             2
                        (      -5.239 eV)
    39      39       --         0.169 au  C             1.00      2 P:z             2
                        (       4.589 eV)
    40      40       --         2.013 au  C             1.00      3 P:z             2
                        (      54.789 eV)
    41      41       --         1.243 au  C             1.00      1 D:z2            2
                        (      33.824 eV)
    42      42       --         1.243 au  C             1.00      1 D:x2-y2         2
                        (      33.824 eV)
    43      43       --         1.243 au  C             1.00      1 D:xy            2
                        (      33.824 eV)
    44      44       --         1.243 au  C             1.00      1 D:xz            2
                        (      33.824 eV)
    45      45       --         1.243 au  C             1.00      1 D:yz            2
                        (      33.824 eV)
    46      46       --         4.016 au  C             1.00      1 F:z3            2
                        (     109.271 eV)
    47      47       --         4.016 au  C             1.00      1 F:z             2
                        (     109.271 eV)
    48      48       --         4.016 au  C             1.00      1 F:xyz           2
                        (     109.271 eV)
    49      49       --         4.016 au  C             1.00      1 F:z2x           2
                        (     109.271 eV)
    50      50       --         4.016 au  C             1.00      1 F:z2y           2
                        (     109.271 eV)
    51      51       --         4.016 au  C             1.00      1 F:x             2
                        (     109.271 eV)
    52      52       --         4.016 au  C             1.00      1 F:y             2
                        (     109.271 eV)
    53      53      2.000     -10.066 au  C             1.00      1 S               3
                        (    -273.921 eV)
    54      54      2.000      -0.501 au  C             1.00      2 S               3
                        (     -13.620 eV)
    55      55       --         0.373 au  C             1.00      3 S               3
                        (      10.158 eV)
    56      56       --         5.405 au  C             1.00      4 S               3
                        (     147.073 eV)
    57      57       --        49.848 au  C             1.00      5 S               3
                        (    1356.422 eV)
    58      58      0.667      -0.193 au  C             1.00      1 P:x             3
                        (      -5.239 eV)
    59      59       --         0.169 au  C             1.00      2 P:x             3
                        (       4.589 eV)
    60      60       --         2.013 au  C             1.00      3 P:x             3
                        (      54.789 eV)
    61      61      0.667      -0.193 au  C             1.00      1 P:y             3
                        (      -5.239 eV)
    62      62       --         0.169 au  C             1.00      2 P:y             3
                        (       4.589 eV)
    63      63       --         2.013 au  C             1.00      3 P:y             3
                        (      54.789 eV)
    64      64      0.667      -0.193 au  C             1.00      1 P:z             3
                        (      -5.239 eV)
    65      65       --         0.169 au  C             1.00      2 P:z             3
                        (       4.589 eV)
    66      66       --         2.013 au  C             1.00      3 P:z             3
                        (      54.789 eV)
    67      67       --         1.243 au  C             1.00      1 D:z2            3
                        (      33.824 eV)
    68      68       --         1.243 au  C             1.00      1 D:x2-y2         3
                        (      33.824 eV)
    69      69       --         1.243 au  C             1.00      1 D:xy            3
                        (      33.824 eV)
    70      70       --         1.243 au  C             1.00      1 D:xz            3
                        (      33.824 eV)
    71      71       --         1.243 au  C             1.00      1 D:yz            3
                        (      33.824 eV)
    72      72       --         4.016 au  C             1.00      1 F:z3            3
                        (     109.271 eV)
    73      73       --         4.016 au  C             1.00      1 F:z             3
                        (     109.271 eV)
    74      74       --         4.016 au  C             1.00      1 F:xyz           3
                        (     109.271 eV)
    75      75       --         4.016 au  C             1.00      1 F:z2x           3
                        (     109.271 eV)
    76      76       --         4.016 au  C             1.00      1 F:z2y           3
                        (     109.271 eV)
    77      77       --         4.016 au  C             1.00      1 F:x             3
                        (     109.271 eV)
    78      78       --         4.016 au  C             1.00      1 F:y             3
                        (     109.271 eV)
    79      79      2.000     -18.941 au  O             1.00      1 S               4
                        (    -515.403 eV)
    80      80      2.000      -0.876 au  O             1.00      2 S               4
                        (     -23.838 eV)
    81      81       --         0.791 au  O             1.00      3 S               4
                        (      21.524 eV)
    82      82       --        13.422 au  O             1.00      4 S               4
                        (     365.226 eV)
    83      83       --       121.561 au  O             1.00      5 S               4
                        (    3307.838 eV)
    84      84      1.333      -0.331 au  O             1.00      1 P:x             4
                        (      -9.020 eV)
    85      85       --         0.347 au  O             1.00      2 P:x             4
                        (       9.437 eV)
    86      86       --         3.820 au  O             1.00      3 P:x             4
                        (     103.939 eV)
    87      87      1.333      -0.331 au  O             1.00      1 P:y             4
                        (      -9.020 eV)
    88      88       --         0.347 au  O             1.00      2 P:y             4
                        (       9.437 eV)
    89      89       --         3.820 au  O             1.00      3 P:y             4
                        (     103.939 eV)
    90      90      1.333      -0.331 au  O             1.00      1 P:z             4
                        (      -9.020 eV)
    91      91       --         0.347 au  O             1.00      2 P:z             4
                        (       9.437 eV)
    92      92       --         3.820 au  O             1.00      3 P:z             4
                        (     103.939 eV)
    93      93       --         1.071 au  O             1.00      1 D:z2            4
                        (      29.134 eV)
    94      94       --         1.071 au  O             1.00      1 D:x2-y2         4
                        (      29.134 eV)
    95      95       --         1.071 au  O             1.00      1 D:xy            4
                        (      29.134 eV)
    96      96       --         1.071 au  O             1.00      1 D:xz            4
                        (      29.134 eV)
    97      97       --         1.071 au  O             1.00      1 D:yz            4
                        (      29.134 eV)
    98      98       --         3.359 au  O             1.00      1 F:z3            4
                        (      91.410 eV)
    99      99       --         3.359 au  O             1.00      1 F:z             4
                        (      91.410 eV)
   100     100       --         3.359 au  O             1.00      1 F:xyz           4
                        (      91.410 eV)
   101     101       --         3.359 au  O             1.00      1 F:z2x           4
                        (      91.410 eV)
   102     102       --         3.359 au  O             1.00      1 F:z2y           4
                        (      91.410 eV)
   103     103       --         3.359 au  O             1.00      1 F:x             4
                        (      91.410 eV)
   104     104       --         3.359 au  O             1.00      1 F:y             4
                        (      91.410 eV)
   105     105      2.000     -14.160 au  N             1.00      1 S               5
                        (    -385.319 eV)
   106     106      2.000      -0.678 au  N             1.00      2 S               5
                        (     -18.450 eV)
   107     107       --         0.517 au  N             1.00      3 S               5
                        (      14.073 eV)
   108     108       --         6.872 au  N             1.00      4 S               5
                        (     186.990 eV)
   109     109       --        63.432 au  N             1.00      5 S               5
                        (    1726.082 eV)
   110     110      1.000      -0.260 au  N             1.00      1 P:x             5
                        (      -7.062 eV)
   111     111       --         0.281 au  N             1.00      2 P:x             5
                        (       7.649 eV)
   112     112       --         3.275 au  N             1.00      3 P:x             5
                        (      89.105 eV)
   113     113      1.000      -0.260 au  N             1.00      1 P:y             5
                        (      -7.062 eV)
   114     114       --         0.281 au  N             1.00      2 P:y             5
                        (       7.649 eV)
   115     115       --         3.275 au  N             1.00      3 P:y             5
                        (      89.105 eV)
   116     116      1.000      -0.260 au  N             1.00      1 P:z             5
                        (      -7.062 eV)
   117     117       --         0.281 au  N             1.00      2 P:z             5
                        (       7.649 eV)
   118     118       --         3.275 au  N             1.00      3 P:z             5
                        (      89.105 eV)
   119     119       --         1.250 au  N             1.00      1 D:z2            5
                        (      34.005 eV)
   120     120       --         1.250 au  N             1.00      1 D:x2-y2         5
                        (      34.005 eV)
   121     121       --         1.250 au  N             1.00      1 D:xy            5
                        (      34.005 eV)
   122     122       --         1.250 au  N             1.00      1 D:xz            5
                        (      34.005 eV)
   123     123       --         1.250 au  N             1.00      1 D:yz            5
                        (      34.005 eV)
   124     124       --         4.013 au  N             1.00      1 F:z3            5
                        (     109.190 eV)
   125     125       --         4.013 au  N             1.00      1 F:z             5
                        (     109.190 eV)
   126     126       --         4.013 au  N             1.00      1 F:xyz           5
                        (     109.190 eV)
   127     127       --         4.013 au  N             1.00      1 F:z2x           5
                        (     109.190 eV)
   128     128       --         4.013 au  N             1.00      1 F:z2y           5
                        (     109.190 eV)
   129     129       --         4.013 au  N             1.00      1 F:x             5
                        (     109.190 eV)
   130     130       --         4.013 au  N             1.00      1 F:y             5
                        (     109.190 eV)
   131     131      2.000     -14.160 au  N             1.00      1 S               6
                        (    -385.319 eV)
   132     132      2.000      -0.678 au  N             1.00      2 S               6
                        (     -18.450 eV)
   133     133       --         0.517 au  N             1.00      3 S               6
                        (      14.073 eV)
   134     134       --         6.872 au  N             1.00      4 S               6
                        (     186.990 eV)
   135     135       --        63.432 au  N             1.00      5 S               6
                        (    1726.082 eV)
   136     136      1.000      -0.260 au  N             1.00      1 P:x             6
                        (      -7.062 eV)
   137     137       --         0.281 au  N             1.00      2 P:x             6
                        (       7.649 eV)
   138     138       --         3.275 au  N             1.00      3 P:x             6
                        (      89.105 eV)
   139     139      1.000      -0.260 au  N             1.00      1 P:y             6
                        (      -7.062 eV)
   140     140       --         0.281 au  N             1.00      2 P:y             6
                        (       7.649 eV)
   141     141       --         3.275 au  N             1.00      3 P:y             6
                        (      89.105 eV)
   142     142      1.000      -0.260 au  N             1.00      1 P:z             6
                        (      -7.062 eV)
   143     143       --         0.281 au  N             1.00      2 P:z             6
                        (       7.649 eV)
   144     144       --         3.275 au  N             1.00      3 P:z             6
                        (      89.105 eV)
   145     145       --         1.250 au  N             1.00      1 D:z2            6
                        (      34.005 eV)
   146     146       --         1.250 au  N             1.00      1 D:x2-y2         6
                        (      34.005 eV)
   147     147       --         1.250 au  N             1.00      1 D:xy            6
                        (      34.005 eV)
   148     148       --         1.250 au  N             1.00      1 D:xz            6
                        (      34.005 eV)
   149     149       --         1.250 au  N             1.00      1 D:yz            6
                        (      34.005 eV)
   150     150       --         4.013 au  N             1.00      1 F:z3            6
                        (     109.190 eV)
   151     151       --         4.013 au  N             1.00      1 F:z             6
                        (     109.190 eV)
   152     152       --         4.013 au  N             1.00      1 F:xyz           6
                        (     109.190 eV)
   153     153       --         4.013 au  N             1.00      1 F:z2x           6
                        (     109.190 eV)
   154     154       --         4.013 au  N             1.00      1 F:z2y           6
                        (     109.190 eV)
   155     155       --         4.013 au  N             1.00      1 F:x             6
                        (     109.190 eV)
   156     156       --         4.013 au  N             1.00      1 F:y             6
                        (     109.190 eV)
   157     157      2.000     -14.160 au  N             1.00      1 S               7
                        (    -385.319 eV)
   158     158      2.000      -0.678 au  N             1.00      2 S               7
                        (     -18.450 eV)
   159     159       --         0.517 au  N             1.00      3 S               7
                        (      14.073 eV)
   160     160       --         6.872 au  N             1.00      4 S               7
                        (     186.990 eV)
   161     161       --        63.432 au  N             1.00      5 S               7
                        (    1726.082 eV)
   162     162      1.000      -0.260 au  N             1.00      1 P:x             7
                        (      -7.062 eV)
   163     163       --         0.281 au  N             1.00      2 P:x             7
                        (       7.649 eV)
   164     164       --         3.275 au  N             1.00      3 P:x             7
                        (      89.105 eV)
   165     165      1.000      -0.260 au  N             1.00      1 P:y             7
                        (      -7.062 eV)
   166     166       --         0.281 au  N             1.00      2 P:y             7
                        (       7.649 eV)
   167     167       --         3.275 au  N             1.00      3 P:y             7
                        (      89.105 eV)
   168     168      1.000      -0.260 au  N             1.00      1 P:z             7
                        (      -7.062 eV)
   169     169       --         0.281 au  N             1.00      2 P:z             7
                        (       7.649 eV)
   170     170       --         3.275 au  N             1.00      3 P:z             7
                        (      89.105 eV)
   171     171       --         1.250 au  N             1.00      1 D:z2            7
                        (      34.005 eV)
   172     172       --         1.250 au  N             1.00      1 D:x2-y2         7
                        (      34.005 eV)
   173     173       --         1.250 au  N             1.00      1 D:xy            7
                        (      34.005 eV)
   174     174       --         1.250 au  N             1.00      1 D:xz            7
                        (      34.005 eV)
   175     175       --         1.250 au  N             1.00      1 D:yz            7
                        (      34.005 eV)
   176     176       --         4.013 au  N             1.00      1 F:z3            7
                        (     109.190 eV)
   177     177       --         4.013 au  N             1.00      1 F:z             7
                        (     109.190 eV)
   178     178       --         4.013 au  N             1.00      1 F:xyz           7
                        (     109.190 eV)
   179     179       --         4.013 au  N             1.00      1 F:z2x           7
                        (     109.190 eV)
   180     180       --         4.013 au  N             1.00      1 F:z2y           7
                        (     109.190 eV)
   181     181       --         4.013 au  N             1.00      1 F:x             7
                        (     109.190 eV)
   182     182       --         4.013 au  N             1.00      1 F:y             7
                        (     109.190 eV)
   183     183      2.000     -14.160 au  N             1.00      1 S               8
                        (    -385.319 eV)
   184     184      2.000      -0.678 au  N             1.00      2 S               8
                        (     -18.450 eV)
   185     185       --         0.517 au  N             1.00      3 S               8
                        (      14.073 eV)
   186     186       --         6.872 au  N             1.00      4 S               8
                        (     186.990 eV)
   187     187       --        63.432 au  N             1.00      5 S               8
                        (    1726.082 eV)
   188     188      1.000      -0.260 au  N             1.00      1 P:x             8
                        (      -7.062 eV)
   189     189       --         0.281 au  N             1.00      2 P:x             8
                        (       7.649 eV)
   190     190       --         3.275 au  N             1.00      3 P:x             8
                        (      89.105 eV)
   191     191      1.000      -0.260 au  N             1.00      1 P:y             8
                        (      -7.062 eV)
   192     192       --         0.281 au  N             1.00      2 P:y             8
                        (       7.649 eV)
   193     193       --         3.275 au  N             1.00      3 P:y             8
                        (      89.105 eV)
   194     194      1.000      -0.260 au  N             1.00      1 P:z             8
                        (      -7.062 eV)
   195     195       --         0.281 au  N             1.00      2 P:z             8
                        (       7.649 eV)
   196     196       --         3.275 au  N             1.00      3 P:z             8
                        (      89.105 eV)
   197     197       --         1.250 au  N             1.00      1 D:z2            8
                        (      34.005 eV)
   198     198       --         1.250 au  N             1.00      1 D:x2-y2         8
                        (      34.005 eV)
   199     199       --         1.250 au  N             1.00      1 D:xy            8
                        (      34.005 eV)
   200     200       --         1.250 au  N             1.00      1 D:xz            8
                        (      34.005 eV)
   201     201       --         1.250 au  N             1.00      1 D:yz            8
                        (      34.005 eV)
   202     202       --         4.013 au  N             1.00      1 F:z3            8
                        (     109.190 eV)
   203     203       --         4.013 au  N             1.00      1 F:z             8
                        (     109.190 eV)
   204     204       --         4.013 au  N             1.00      1 F:xyz           8
                        (     109.190 eV)
   205     205       --         4.013 au  N             1.00      1 F:z2x           8
                        (     109.190 eV)
   206     206       --         4.013 au  N             1.00      1 F:z2y           8
                        (     109.190 eV)
   207     207       --         4.013 au  N             1.00      1 F:x             8
                        (     109.190 eV)
   208     208       --         4.013 au  N             1.00      1 F:y             8
                        (     109.190 eV)
   209     209      1.000      -0.240 au  H             1.00      1 S               9
                        (      -6.532 eV)
   210     210       --         0.088 au  H             1.00      2 S               9
                        (       2.394 eV)
   211     211       --         1.502 au  H             1.00      3 S               9
                        (      40.869 eV)
   212     212       --         0.406 au  H             1.00      1 P:x             9
                        (      11.051 eV)
   213     213       --         0.406 au  H             1.00      1 P:y             9
                        (      11.051 eV)
   214     214       --         0.406 au  H             1.00      1 P:z             9
                        (      11.051 eV)
   215     215       --         2.569 au  H             1.00      1 D:z2            9
                        (      69.917 eV)
   216     216       --         2.569 au  H             1.00      1 D:x2-y2         9
                        (      69.917 eV)
   217     217       --         2.569 au  H             1.00      1 D:xy            9
                        (      69.917 eV)
   218     218       --         2.569 au  H             1.00      1 D:xz            9
                        (      69.917 eV)
   219     219       --         2.569 au  H             1.00      1 D:yz            9
                        (      69.917 eV)
   220     220      1.000      -0.240 au  H             1.00      1 S              10
                        (      -6.532 eV)
   221     221       --         0.088 au  H             1.00      2 S              10
                        (       2.394 eV)
   222     222       --         1.502 au  H             1.00      3 S              10
                        (      40.869 eV)
   223     223       --         0.406 au  H             1.00      1 P:x            10
                        (      11.051 eV)
   224     224       --         0.406 au  H             1.00      1 P:y            10
                        (      11.051 eV)
   225     225       --         0.406 au  H             1.00      1 P:z            10
                        (      11.051 eV)
   226     226       --         2.569 au  H             1.00      1 D:z2           10
                        (      69.917 eV)
   227     227       --         2.569 au  H             1.00      1 D:x2-y2        10
                        (      69.917 eV)
   228     228       --         2.569 au  H             1.00      1 D:xy           10
                        (      69.917 eV)
   229     229       --         2.569 au  H             1.00      1 D:xz           10
                        (      69.917 eV)
   230     230       --         2.569 au  H             1.00      1 D:yz           10
                        (      69.917 eV)
   231     231      1.000      -0.240 au  H             1.00      1 S              11
                        (      -6.532 eV)
   232     232       --         0.088 au  H             1.00      2 S              11
                        (       2.394 eV)
   233     233       --         1.502 au  H             1.00      3 S              11
                        (      40.869 eV)
   234     234       --         0.406 au  H             1.00      1 P:x            11
                        (      11.051 eV)
   235     235       --         0.406 au  H             1.00      1 P:y            11
                        (      11.051 eV)
   236     236       --         0.406 au  H             1.00      1 P:z            11
                        (      11.051 eV)
   237     237       --         2.569 au  H             1.00      1 D:z2           11
                        (      69.917 eV)
   238     238       --         2.569 au  H             1.00      1 D:x2-y2        11
                        (      69.917 eV)
   239     239       --         2.569 au  H             1.00      1 D:xy           11
                        (      69.917 eV)
   240     240       --         2.569 au  H             1.00      1 D:xz           11
                        (      69.917 eV)
   241     241       --         2.569 au  H             1.00      1 D:yz           11
                        (      69.917 eV)
   242     242      1.000      -0.240 au  H             1.00      1 S              12
                        (      -6.532 eV)
   243     243       --         0.088 au  H             1.00      2 S              12
                        (       2.394 eV)
   244     244       --         1.502 au  H             1.00      3 S              12
                        (      40.869 eV)
   245     245       --         0.406 au  H             1.00      1 P:x            12
                        (      11.051 eV)
   246     246       --         0.406 au  H             1.00      1 P:y            12
                        (      11.051 eV)
   247     247       --         0.406 au  H             1.00      1 P:z            12
                        (      11.051 eV)
   248     248       --         2.569 au  H             1.00      1 D:z2           12
                        (      69.917 eV)
   249     249       --         2.569 au  H             1.00      1 D:x2-y2        12
                        (      69.917 eV)
   250     250       --         2.569 au  H             1.00      1 D:xy           12
                        (      69.917 eV)
   251     251       --         2.569 au  H             1.00      1 D:xz           12
                        (      69.917 eV)
   252     252       --         2.569 au  H             1.00      1 D:yz           12
                        (      69.917 eV)



 ================================
 (Slater-type)  F U N C T I O N S  ***  (Basis and Fit)  ***
 ================================
  

 Atom Type    1  (C)
 ==============

 Valence Basis Sets:  10
 -----------------------
   1 S    7.680000
   1 S    5.000000
   2 S    1.280000
   2 S    2.100000
   2 S    4.600000
   2 P    0.820000
   2 P    1.480000
   2 P    2.940000
   3 D    2.200000
   4 F    3.300000

 Atom Type    2  (O)
 ==============

 Valence Basis Sets:  10
 -----------------------
   1 S    9.800000
   1 S    6.800000
   2 S    7.580000
   2 S    2.880000
   2 S    1.720000
   2 P    4.080000
   2 P    2.080000
   2 P    1.120000
   3 D    2.000000
   4 F    3.000000

 Atom Type    3  (N)
 ==============

 Valence Basis Sets:  10
 -----------------------
   1 S    8.740000
   1 S    5.900000
   2 S    5.150000
   2 S    2.500000
   2 S    1.500000
   2 P    3.680000
   2 P    1.880000
   2 P    1.000000
   3 D    2.200000
   4 F    3.300000

 Atom Type    4  (H)
 ==============

 Valence Basis Sets:   5
 -----------------------
   1 S    0.690000
   1 S    0.920000
   1 S    1.580000
   2 P    1.250000
   3 D    2.500000


 BAS: List of all Elementary Cartesian Basis Functions
 =====================================================

 The numbering in the list below (to the right of the function characteristics) is referred
 to in print-outs of MO eigenvectors and Mulliken populations in the BAS representation
 (as contrasted to the SFO representation).

 Notes:
 1. The functions are characterized by a polynomial prefactor (powers of x,y,z and r) and
    an exponential decay factor alpha.
 2. Since the basis sets are specific for an atom TYPE, the individual functions occur on
    all atoms of that type.
 3. The word 'Core' in the left margin signals that it is a Core Function (CF) : not a
    degree of freedom in the valence set, but only used to ensure orthogonalization of
    the other valence basis functions on the frozen Core Orbitals.


 (power of) X  Y  Z  R     Alpha  on Atom
            ==========     =====     ==========

 C                                    1    2    3
                                  ---------------------------------------------------------------------------
            0  0  0  0     7.680      1   31   61
            0  0  0  0     5.000      2   32   62
            0  0  0  1     1.280      3   33   63
            0  0  0  1     2.100      4   34   64
            0  0  0  1     4.600      5   35   65
            1  0  0  0     0.820      6   36   66
            0  1  0  0     0.820      7   37   67
            0  0  1  0     0.820      8   38   68
            1  0  0  0     1.480      9   39   69
            0  1  0  0     1.480     10   40   70
            0  0  1  0     1.480     11   41   71
            1  0  0  0     2.940     12   42   72
            0  1  0  0     2.940     13   43   73
            0  0  1  0     2.940     14   44   74
            2  0  0  0     2.200     15   45   75
            1  1  0  0     2.200     16   46   76
            1  0  1  0     2.200     17   47   77
            0  2  0  0     2.200     18   48   78
            0  1  1  0     2.200     19   49   79
            0  0  2  0     2.200     20   50   80
            3  0  0  0     3.300     21   51   81
            2  1  0  0     3.300     22   52   82
            2  0  1  0     3.300     23   53   83
            1  2  0  0     3.300     24   54   84
            1  1  1  0     3.300     25   55   85
            1  0  2  0     3.300     26   56   86
            0  3  0  0     3.300     27   57   87
            0  2  1  0     3.300     28   58   88
            0  1  2  0     3.300     29   59   89
            0  0  3  0     3.300     30   60   90

 O                                    4
                                  ---------------------------------------------------------------------------
            0  0  0  0     9.800     91
            0  0  0  0     6.800     92
            0  0  0  1     7.580     93
            0  0  0  1     2.880     94
            0  0  0  1     1.720     95
            1  0  0  0     4.080     96
            0  1  0  0     4.080     97
            0  0  1  0     4.080     98
            1  0  0  0     2.080     99
            0  1  0  0     2.080    100
            0  0  1  0     2.080    101
            1  0  0  0     1.120    102
            0  1  0  0     1.120    103
            0  0  1  0     1.120    104
            2  0  0  0     2.000    105
            1  1  0  0     2.000    106
            1  0  1  0     2.000    107
            0  2  0  0     2.000    108
            0  1  1  0     2.000    109
            0  0  2  0     2.000    110
            3  0  0  0     3.000    111
            2  1  0  0     3.000    112
            2  0  1  0     3.000    113
            1  2  0  0     3.000    114
            1  1  1  0     3.000    115
            1  0  2  0     3.000    116
            0  3  0  0     3.000    117
            0  2  1  0     3.000    118
            0  1  2  0     3.000    119
            0  0  3  0     3.000    120

 N                                    5    6    7    8
                                  ---------------------------------------------------------------------------
            0  0  0  0     8.740    121  151  181  211
            0  0  0  0     5.900    122  152  182  212
            0  0  0  1     5.150    123  153  183  213
            0  0  0  1     2.500    124  154  184  214
            0  0  0  1     1.500    125  155  185  215
            1  0  0  0     3.680    126  156  186  216
            0  1  0  0     3.680    127  157  187  217
            0  0  1  0     3.680    128  158  188  218
            1  0  0  0     1.880    129  159  189  219
            0  1  0  0     1.880    130  160  190  220
            0  0  1  0     1.880    131  161  191  221
            1  0  0  0     1.000    132  162  192  222
            0  1  0  0     1.000    133  163  193  223
            0  0  1  0     1.000    134  164  194  224
            2  0  0  0     2.200    135  165  195  225
            1  1  0  0     2.200    136  166  196  226
            1  0  1  0     2.200    137  167  197  227
            0  2  0  0     2.200    138  168  198  228
            0  1  1  0     2.200    139  169  199  229
            0  0  2  0     2.200    140  170  200  230
            3  0  0  0     3.300    141  171  201  231
            2  1  0  0     3.300    142  172  202  232
            2  0  1  0     3.300    143  173  203  233
            1  2  0  0     3.300    144  174  204  234
            1  1  1  0     3.300    145  175  205  235
            1  0  2  0     3.300    146  176  206  236
            0  3  0  0     3.300    147  177  207  237
            0  2  1  0     3.300    148  178  208  238
            0  1  2  0     3.300    149  179  209  239
            0  0  3  0     3.300    150  180  210  240

 H                                    9   10   11   12
                                  ---------------------------------------------------------------------------
            0  0  0  0     0.690    241  253  265  277
            0  0  0  0     0.920    242  254  266  278
            0  0  0  0     1.580    243  255  267  279
            1  0  0  0     1.250    244  256  268  280
            0  1  0  0     1.250    245  257  269  281
            0  0  1  0     1.250    246  258  270  282
            2  0  0  0     2.500    247  259  271  283
            1  1  0  0     2.500    248  260  272  284
            1  0  1  0     2.500    249  261  273  285
            0  2  0  0     2.500    250  262  274  286
            0  1  1  0     2.500    251  263  275  287
            0  0  2  0     2.500    252  264  276  288

 Total number of charge fitting functions (nprimf)       872
 Total number of Cartesian basis functions (naos)        288
 Total number of Cartesian core functions  (ncos)          0

 ***************************************************************************************************



                                              ***********************
                                              *  T E C H N I C A L  *
                                              ***********************
  



 =============================================================
 P A R A L L E L I Z A T I O N  and  V E C T O R I Z A T I O N
 =============================================================
  
 Nr of parallel processes:                                1
 Maximum vector length in NumInt loops:                 128



 =====================
 S C F   U P D A T E S
 =====================
  
 Max. nr. of cycles:                               200
 Convergence criterion:                              0.0000010000
   secondary criterion:                              0.0010000000

 Mix parameter (when DIIS does not apply):           0.2000000000
 Mixed ADIIS+SDIIS will be used                  
    Max number of expansion vectors:                10
    Pure ADIIS when Max([F,P]) is above              0.1000000000
    Pure SDIIS when Max([F,P]) is below              0.0010000000
 Automatic ElectronSmearing (in case of problematic SCF convergence) disabled



 =================
 P R E C I S I O N  ***  (General: NumInt, NeglectFunctionTails, ...)  ***
 =================
  

 NumInt:           Target precision:                 4.0000000000
 -------           Initial precision:                4.0000000000
                   Min. precision (optimization):    4.0000000000

 Neglect Functions:          Basis functions:        0.1000000000E-05
 ------------------          Fit functions:          0.1000000000E-05



 ===========================
 L I N E A R   S C A L I N G
 ===========================
  

 Cut-off radii density fit:                        0.1000000000E-07
 Overlap cut-off criterion AO matrix elements:     0.1000000000E-05
 Cut-offs for Coulomb potential and fitted density:0.1000000000E-07
 Cut-off criterion for Coulomb multipole terms:    0.1000000000E-07
 Progressive Convergence parameter:                 0.000000000    
 ***************************************************************************************************



                                            ***************************
                                            *  C O M P U T A T I O N  *
                                            ***************************
  

 Number of elements of the density matrix on this node (used, total):     41616     41616



 ===========================================
 Numerical Integration : Fuzzy Cells (Becke)
 ===========================================
  
 Becke grid quality: NORMAL         
  
 Lebedev angular grid order:             min:  11 max:  23
 Nr. of radial points:                   min:  46 max:  52

 Total nr. of points:      80030
 Nr. of blocks:              626
 Block length:               128
 Nr. of dummy points:         98


 Test of Precision of the Numerical Integration Grid
 ===================================================

 Integral of the Total Core Density:                   0.00000000000000



 ========================
 Density Fitting (zlmFit)
 ========================
  
 ZlmFit Fit Quality: NORMAL         
  
 Max L-expansion:                        min:   6 max:   7
 Nr. of radial interpolation points:     min:  39 max:  54



 =====
 S C F  ***  ScaSCF  ***
 =====
  
 Initial density matrix is calculated as sum of fragments

 CYCLE    1
 SCF Error: norm([F,P])=      6.776749267531, max([F,P])=      1.481562879693
 orbitals (Q,E):
 ---------------
 A :20...39          ( 2.00    -0.5385)  ( 2.00    -0.5168)  ( 2.00    -0.4966)  ( 2.00    -0.4815)
                     ( 2.00    -0.4746)  ( 2.00    -0.4610)  ( 2.00    -0.4236)  ( 2.00    -0.4041)
                     ( 2.00    -0.3822)  ( 2.00    -0.3526)  ( 0.00    -0.2524)  ( 0.00    -0.1662)
                     ( 0.00    -0.1169)  ( 0.00    -0.0805)  ( 0.00    -0.0532)  ( 0.00    -0.0351)
                     ( 0.00    -0.0144)  ( 0.00    -0.0018)  ( 0.00     0.0030)  ( 0.00     0.0368)

 CYCLE    2
   MIX coefficients:  0.8000  0.2000
 SCF Error: norm([F,P])=      1.291218862878, max([F,P])=      0.219694895788
 orbitals (Q,E):
 ---------------
 A :20...30          ( 2.00    -0.4837)  ( 2.00    -0.4709)  ( 2.00    -0.4511)  ( 2.00    -0.4239)
                     ( 2.00    -0.4175)  ( 2.00    -0.4129)  ( 2.00    -0.3743)  ( 2.00    -0.3562)
                     ( 2.00    -0.3204)  ( 2.00    -0.3148)  ( 0.00    -0.2386)

 CYCLE    3
  SDIIS (wt  0.000): -0.3265  1.3265
 A-DIIS (wt  1.000):  0.0000  1.0000
  DIIS coefficients:  0.0000  1.0000
 SCF Error: norm([F,P])=      0.540430134061, max([F,P])=      0.097873312788
 orbitals (Q,E):
 ---------------
 A :20...30          ( 2.00    -0.3336)  ( 2.00    -0.3287)  ( 2.00    -0.3074)  ( 2.00    -0.2998)
                     ( 2.00    -0.2918)  ( 2.00    -0.2794)  ( 2.00    -0.2485)  ( 2.00    -0.2292)
                     ( 2.00    -0.1923)  ( 2.00    -0.1516)  ( 0.00    -0.1358)

 CYCLE    4
  SDIIS (wt  0.000):  0.1024  0.4866  0.4111
 A-DIIS (wt  1.000): -0.0000  0.7087  0.2913
  DIIS coefficients: -0.0000  0.7087  0.2913
 SCF Error: norm([F,P])=      0.896715159169, max([F,P])=      0.185798163416
 orbitals (Q,E):
 ---------------
 A :20...30          ( 2.00    -0.3981)  ( 2.00    -0.3699)  ( 2.00    -0.3528)  ( 2.00    -0.3394)
                     ( 2.00    -0.3289)  ( 2.00    -0.3144)  ( 2.00    -0.2840)  ( 2.00    -0.2610)
                     ( 2.00    -0.2419)  ( 2.00    -0.2313)  ( 0.00    -0.1530)

 CYCLE    5
  SDIIS (wt  0.270): -0.0055  0.4266  0.2282  0.3508
 A-DIIS (wt  0.730):  0.0000  0.2507  0.0870  0.6622
  DIIS coefficients: -0.0015  0.2982  0.1251  0.5781
 SCF Error: norm([F,P])=      0.363905009159, max([F,P])=      0.073259933254
 orbitals (Q,E):
 ---------------
 A :20...30          ( 2.00    -0.4069)  ( 2.00    -0.4017)  ( 2.00    -0.3755)  ( 2.00    -0.3540)
                     ( 2.00    -0.3519)  ( 2.00    -0.3363)  ( 2.00    -0.3202)  ( 2.00    -0.2945)
                     ( 2.00    -0.2531)  ( 2.00    -0.2040)  ( 0.00    -0.1951)

 CYCLE    6
  SDIIS (wt  0.000): -0.0147  0.2975  0.0828  0.4824  0.1520
 A-DIIS (wt  1.000):  0.0000  0.0130  0.0000  0.7356  0.2514
  DIIS coefficients:  0.0000  0.0130  0.0000  0.7356  0.2514
 SCF Error: norm([F,P])=      0.773395436228, max([F,P])=      0.194439486346
 orbitals (Q,E):
 ---------------
 A :20...30          ( 2.00    -0.4165)  ( 2.00    -0.4041)  ( 2.00    -0.3888)  ( 2.00    -0.3746)
                     ( 2.00    -0.3583)  ( 2.00    -0.3543)  ( 2.00    -0.3203)  ( 2.00    -0.3021)
                     ( 2.00    -0.2676)  ( 2.00    -0.2448)  ( 0.00    -0.1967)

 CYCLE    7
  SDIIS (wt  0.599): -0.0022  0.0596  0.0923  0.2826 -0.0174  0.5852
 A-DIIS (wt  0.401):  0.0000  0.0000  0.0000  0.2253  0.0000  0.7747
  DIIS coefficients: -0.0013  0.0357  0.0553  0.2597 -0.0105  0.6611
 SCF Error: norm([F,P])=      0.182131421897, max([F,P])=      0.040664382300
 orbitals (Q,E):
 ---------------
 A :20...30          ( 2.00    -0.3970)  ( 2.00    -0.3856)  ( 2.00    -0.3719)  ( 2.00    -0.3579)
                     ( 2.00    -0.3425)  ( 2.00    -0.3385)  ( 2.00    -0.3037)  ( 2.00    -0.2859)
                     ( 2.00    -0.2517)  ( 2.00    -0.2321)  ( 0.00    -0.1816)

 CYCLE    8
  SDIIS (wt  0.813): -0.0026  0.0163  0.0434  0.1588 -0.0264  0.4511  0.3593
 A-DIIS (wt  0.187):  0.0000  0.0000  0.0000  0.0000  0.0000  0.0460  0.9540
  DIIS coefficients: -0.0021  0.0132  0.0353  0.1292 -0.0215  0.3755  0.4704
 SCF Error: norm([F,P])=      0.067034805107, max([F,P])=      0.019483135615
 orbitals (Q,E):
 ---------------
 A :20...30          ( 2.00    -0.4032)  ( 2.00    -0.3891)  ( 2.00    -0.3775)  ( 2.00    -0.3602)
                     ( 2.00    -0.3468)  ( 2.00    -0.3416)  ( 2.00    -0.3054)  ( 2.00    -0.2884)
                     ( 2.00    -0.2545)  ( 2.00    -0.2366)  ( 0.00    -0.1828)

 CYCLE    9
  SDIIS (wt  0.924): -0.0020  0.0017  0.0140  0.0979 -0.0081  0.2788  0.3773  0.2404
 A-DIIS (wt  0.076):  0.0000  0.0000  0.0000  0.0000  0.0000  0.0000  0.3470  0.6530
  DIIS coefficients: -0.0019  0.0016  0.0130  0.0904 -0.0075  0.2575  0.3749  0.2720
 SCF Error: norm([F,P])=      0.046211074241, max([F,P])=      0.008571503055
 orbitals (Q,E):
 ---------------
 A :20...30          ( 2.00    -0.4019)  ( 2.00    -0.3888)  ( 2.00    -0.3766)  ( 2.00    -0.3600)
                     ( 2.00    -0.3456)  ( 2.00    -0.3417)  ( 2.00    -0.3054)  ( 2.00    -0.2874)
                     ( 2.00    -0.2535)  ( 2.00    -0.2354)  ( 0.00    -0.1823)

 CYCLE   10
  SDIIS (wt  0.967): -0.0033  0.0044  0.0018  0.0393 -0.0033  0.1084  0.2478  0.2773  0.3276
 A-DIIS (wt  0.033):  0.0000  0.0000  0.0000  0.0000  0.0000  0.0000  0.0000  0.2302  0.7698
  DIIS coefficients: -0.0032  0.0043  0.0017  0.0380 -0.0032  0.1049  0.2396  0.2757  0.3422
 SCF Error: norm([F,P])=      0.020381234987, max([F,P])=      0.004258647878
 orbitals (Q,E):
 ---------------
 A :20...30          ( 2.00    -0.4016)  ( 2.00    -0.3884)  ( 2.00    -0.3763)  ( 2.00    -0.3597)
                     ( 2.00    -0.3454)  ( 2.00    -0.3411)  ( 2.00    -0.3052)  ( 2.00    -0.2876)
                     ( 2.00    -0.2538)  ( 2.00    -0.2356)  ( 0.00    -0.1827)

 CYCLE   11
  SDIIS (wt  0.999): -0.0016  0.0020 -0.0009  0.0173 -0.0005  0.0422  0.1268  0.1649  0.2450  0.4049
 A-DIIS (wt  0.001):  0.0000  0.0000  0.0000  0.0000  0.0000  0.0000  0.0000  0.0000  0.0417  0.9583
  DIIS coefficients: -0.0016  0.0020 -0.0009  0.0173 -0.0005  0.0422  0.1267  0.1648  0.2449  0.4053
 SCF Error: norm([F,P])=      0.003946794453, max([F,P])=      0.001073359842
 orbitals (Q,E):
 ---------------
 A :20...30          ( 2.00    -0.4016)  ( 2.00    -0.3885)  ( 2.00    -0.3763)  ( 2.00    -0.3598)
                     ( 2.00    -0.3455)  ( 2.00    -0.3412)  ( 2.00    -0.3052)  ( 2.00    -0.2876)
                     ( 2.00    -0.2538)  ( 2.00    -0.2357)  ( 0.00    -0.1825)

 CYCLE   12
  SDIIS (wt  1.000):  0.0005  0.0001  0.0024 -0.0004  0.0042  0.0215  0.0383  0.0696  0.2577  0.6060
  DIIS coefficients:  0.0005  0.0001  0.0024 -0.0004  0.0042  0.0215  0.0383  0.0696  0.2577  0.6060
 SCF Error: norm([F,P])=      0.001116348055, max([F,P])=      0.000336569962
 orbitals (Q,E):
 ---------------
 A :20...30          ( 2.00    -0.4017)  ( 2.00    -0.3885)  ( 2.00    -0.3764)  ( 2.00    -0.3598)
                     ( 2.00    -0.3455)  ( 2.00    -0.3412)  ( 2.00    -0.3052)  ( 2.00    -0.2876)
                     ( 2.00    -0.2538)  ( 2.00    -0.2358)  ( 0.00    -0.1825)

 CYCLE   13
  SDIIS (wt  1.000): -0.0001  0.0020 -0.0002  0.0050  0.0185  0.0278  0.0468  0.1379  0.3106  0.4515
  DIIS coefficients: -0.0001  0.0020 -0.0002  0.0050  0.0185  0.0278  0.0468  0.1379  0.3106  0.4515
 SCF Error: norm([F,P])=      0.000408130894, max([F,P])=      0.000083941890
 orbitals (Q,E):
 ---------------
 A :20...30          ( 2.00    -0.4016)  ( 2.00    -0.3885)  ( 2.00    -0.3763)  ( 2.00    -0.3598)
                     ( 2.00    -0.3455)  ( 2.00    -0.3412)  ( 2.00    -0.3052)  ( 2.00    -0.2876)
                     ( 2.00    -0.2538)  ( 2.00    -0.2357)  ( 0.00    -0.1825)

 CYCLE   14
  SDIIS (wt  1.000):  0.0002 -0.0000  0.0006  0.0021  0.0034  0.0068  0.0304  0.1048  0.2247  0.6270
  DIIS coefficients:  0.0002 -0.0000  0.0006  0.0021  0.0034  0.0068  0.0304  0.1048  0.2247  0.6270
 SCF Error: norm([F,P])=      0.000118432590, max([F,P])=      0.000044283994
 orbitals (Q,E):
 ---------------
 A :20...30          ( 2.00    -0.4016)  ( 2.00    -0.3885)  ( 2.00    -0.3763)  ( 2.00    -0.3598)
                     ( 2.00    -0.3455)  ( 2.00    -0.3412)  ( 2.00    -0.3052)  ( 2.00    -0.2876)
                     ( 2.00    -0.2538)  ( 2.00    -0.2357)  ( 0.00    -0.1825)

 CYCLE   15
  SDIIS (wt  1.000): -0.0000  0.0000  0.0003  0.0007  0.0017  0.0080  0.0351  0.0994  0.3895  0.4653
  DIIS coefficients: -0.0000  0.0000  0.0003  0.0007  0.0017  0.0080  0.0351  0.0994  0.3895  0.4653
 SCF Error: norm([F,P])=      0.000039001912, max([F,P])=      0.000011843867
 orbitals (Q,E):
 ---------------
 A :20...30          ( 2.00    -0.4016)  ( 2.00    -0.3885)  ( 2.00    -0.3763)  ( 2.00    -0.3598)
                     ( 2.00    -0.3455)  ( 2.00    -0.3412)  ( 2.00    -0.3052)  ( 2.00    -0.2876)
                     ( 2.00    -0.2538)  ( 2.00    -0.2357)  ( 0.00    -0.1825)

 CYCLE   16
  SDIIS (wt  1.000): -0.0000  0.0001  0.0001  0.0003  0.0017  0.0095  0.0296  0.1346  0.2331  0.5911
  DIIS coefficients: -0.0000  0.0001  0.0001  0.0003  0.0017  0.0095  0.0296  0.1346  0.2331  0.5911
 SCF Error: norm([F,P])=      0.000008168758, max([F,P])=      0.000001162455
 orbitals (Q,E):
 ---------------
 A :20...30          ( 2.00    -0.4016)  ( 2.00    -0.3885)  ( 2.00    -0.3763)  ( 2.00    -0.3598)
                     ( 2.00    -0.3455)  ( 2.00    -0.3412)  ( 2.00    -0.3052)  ( 2.00    -0.2876)
                     ( 2.00    -0.2538)  ( 2.00    -0.2357)  ( 0.00    -0.1825)

 CYCLE   17
  SDIIS (wt  1.000):  0.0000  0.0000  0.0000  0.0003  0.0023  0.0089  0.0435  0.0865  0.2622  0.5964
  DIIS coefficients:  0.0000  0.0000  0.0000  0.0003  0.0023  0.0089  0.0435  0.0865  0.2622  0.5964
 SCF Error: norm([F,P])=      0.000001400248, max([F,P])=      0.000000265816
 orbitals (Q,E):
 ---------------
 A :20...30          ( 2.00    -0.4016)  ( 2.00    -0.3885)  ( 2.00    -0.3763)  ( 2.00    -0.3598)
                     ( 2.00    -0.3455)  ( 2.00    -0.3412)  ( 2.00    -0.3052)  ( 2.00    -0.2876)
                     ( 2.00    -0.2538)  ( 2.00    -0.2357)  ( 0.00    -0.1825)

 SCF CONVERGED

 CYCLE   18
 ***************************************************************************************************



                                                *******************
                                                *  R E S U L T S  *
                                                *******************
  
 *** Using FIT density in Focky
  SDIIS (wt  1.000): -0.0000 -0.0000  0.0000  0.0004  0.0022  0.0115  0.0277  0.0934  0.3491  0.5155
  DIIS coefficients: -0.0000 -0.0000  0.0000  0.0004  0.0022  0.0115  0.0277  0.0934  0.3491  0.5155
 SCF Error: norm([F,P])=      0.000000655400, max([F,P])=      0.000000117410

 Scaled ZORA Orbital Energies, per Irrep and Spin:
 =================================================
                        Occup              E (au)              E (eV)       Diff (eV) with prev. cycle
                        -----      --------------------        ------       --------------------------
 A
              20        2.000     -0.40164266067648E+00       -10.929              -7.79E-07
              21        2.000     -0.38848093831802E+00       -10.571              -5.41E-07
              22        2.000     -0.37634661349055E+00       -10.241              -5.92E-07
              23        2.000     -0.35977337507230E+00        -9.790              -1.47E-07
              24        2.000     -0.34546333852901E+00        -9.401              -5.91E-07
              25        2.000     -0.34119683877425E+00        -9.284               1.12E-07
              26        2.000     -0.30520800272775E+00        -8.305              -5.30E-07
              27        2.000     -0.28763424897030E+00        -7.827              -1.08E-06
              28        2.000     -0.25375336337753E+00        -6.905              -1.25E-06
              29        2.000     -0.23573914012041E+00        -6.415              -1.22E-06
              30        0.000     -0.18253030327103E+00        -4.967
              31        0.000     -0.68651716194206E-01        -1.868
              32        0.000     -0.49212247319254E-01        -1.339
              33        0.000     -0.12668925221568E-01        -0.345
              34        0.000     -0.52735664505754E-02        -0.144
              35        0.000      0.14531452637311E-01         0.395
              36        0.000      0.37461321266982E-01         1.019
              37        0.000      0.52880776236805E-01         1.439
              38        0.000      0.59637695684746E-01         1.623
              39        0.000      0.94049086684353E-01         2.559
  
 HOMO :       29 A                -0.23573914012041E+00
 LUMO :       30 A                -0.18253030327103E+00
  


 All Electron Calculation, thus no Orbital Energies of the Core Orbitals are calculated


 Fit test: (difference of exact and fit density, squared integrated, result summed over spins)
         Sum-of-Fragments:                             0.00000000044121
         Orthogonalized Fragments:                     0.00010355894890
         SCF:                                          0.00019213733883



 ==========================
 Electron Density at Nuclei
 ==========================
  
 The electron density is calculated at points on a small sphere around the center of a nucleus.
 The printed electron density is the average electron density on these points.
 The radius of the sphere is the printed approximate finite nuclear radius.
 Note: ZORA-4 density is used, which includes small component density

         Atom        Nuclear Radius (Angstrom)             Electron Density (a.u.)
         ----        -------------------------             -----------------------
     1)   C                 0.0000320678                              127.02005
     2)   C                 0.0000320678                              127.18594
     3)   O                 0.0000345546                              314.04877
     4)   N                 0.0000333706                              206.40285
     5)   N                 0.0000333706                              206.06604
     6)   N                 0.0000333706                              206.35935
     7)   C                 0.0000320678                              127.31350
     8)   N                 0.0000333706                              206.96417
     9)   H                 0.0000181514                                0.50785
    10)   H                 0.0000181514                                0.49755
    11)   H                 0.0000181514                                0.49957
    12)   H                 0.0000181514                                0.48589



 =======================================
 M U L L I K E N   P O P U L A T I O N S
 =======================================
  
 The survey below gives for each atom:
 a) the total charge (Z minus electrons)
 b) the net spin polarization (nr of electrons spin-A minus spin-B)
 c) for each spin the atomic electron valence density (integrated) per L-value.

 Atom              Charge    Spin density          S         P         D         F
 ----              ------    ------------       ------    ------    ------    ------
 1 C               0.5867                       2.8180    2.5552    0.0379    0.0022
 2 C               0.4616                       2.9961    2.3769    0.1551    0.0102
 3 O              -0.4963                       3.8210    4.6148    0.0543    0.0063
 4 N              -0.1971                       3.5627    3.5522    0.0752    0.0070
 5 N               0.2994                       3.2830    3.2707    0.1378    0.0092
 6 N              -0.1942                       3.5567    3.5486    0.0820    0.0070
 7 C               0.2471                       2.9643    2.6892    0.0890    0.0104
 8 N              -0.2525                       3.7394    3.4505    0.0581    0.0045
 9 H              -0.1928                       1.1036    0.0831    0.0060    0.0000
 10 H             -0.1639                       1.0737    0.0842    0.0059    0.0000
 11 H             -0.1218                       1.0362    0.0798    0.0059    0.0000
 12 H              0.0237                       0.8708    0.0956    0.0099    0.0000

 Populations of individual BAS functions
 ----------------------------------------
 1 C            0.5069  1.4835 -0.0649  0.9382 -0.0457 -0.1686 -0.1041 -0.0860  0.8105  0.7844
                0.7388  0.2011  0.1944  0.1846  0.0030  0.0031  0.0092  0.0049  0.0087  0.0090
               -0.0007 -0.0013 -0.0008 -0.0009  0.0002  0.0019  0.0006 -0.0004  0.0015  0.0021
 2 C            0.5049  1.4839  0.1817  0.8615 -0.0359 -0.0586 -0.0311 -0.0553  0.6014  0.6640
                0.7098  0.2055  0.1497  0.1915  0.0448  0.0344  0.0404 -0.0073  0.0152  0.0276
                0.0067  0.0053  0.0046 -0.0047  0.0016  0.0018 -0.0056 -0.0023  0.0023  0.0004
 7 C            0.5054  1.4810  0.1704  0.8403 -0.0328 -0.0068  0.0465  0.0300  0.6487  0.7030
                0.6872  0.2135  0.1767  0.1903  0.0391  0.0169  0.0195 -0.0066  0.0103  0.0098
                0.0064  0.0055  0.0058 -0.0027  0.0018  0.0004 -0.0045 -0.0017  0.0009 -0.0014
 3 O            0.7096  1.2145  0.0476  1.0350  0.8144  0.2849  0.2643  0.2989  0.8623  0.8080
                0.8779  0.3653  0.4118  0.4414  0.0174  0.0141  0.0153 -0.0014  0.0051  0.0038
                0.0104  0.0076  0.0079 -0.0063  0.0011 -0.0016 -0.0066 -0.0035  0.0001 -0.0029
 4 N            0.5486  1.4310 -0.0253  0.9741  0.6343  0.1629  0.1941  0.1805  0.7620  0.8200
                0.7723  0.0265  0.3585  0.2756  0.0355  0.0141  0.0265 -0.0044  0.0086 -0.0051
                0.0075  0.0080  0.0076 -0.0053  0.0009  0.0006 -0.0069 -0.0033  0.0004 -0.0026
 5 N            0.5512  1.4306 -0.0377  1.0197  0.3192  0.1851  0.1736  0.1770  0.8919  0.8437
                0.8418 -0.0398  0.0682  0.1293  0.0292  0.0290  0.0274  0.0221  0.0184  0.0116
                0.0039  0.0015  0.0032 -0.0013  0.0017  0.0002  0.0017  0.0025 -0.0007 -0.0036
 6 N            0.5483  1.4317 -0.0265  0.9818  0.6215  0.2056  0.1554  0.1751  0.8885  0.7082
                0.7846  0.2746  0.1450  0.2116  0.0066  0.0157  0.0132  0.0202  0.0158  0.0104
                0.0023 -0.0010  0.0010  0.0005  0.0010 -0.0012  0.0040  0.0040 -0.0007 -0.0030
 8 N            0.5468  1.4318 -0.0249  1.0224  0.7633  0.1942  0.1572  0.1716  0.7914  0.6935
                0.7287  0.2403  0.2342  0.2394  0.0157  0.0118  0.0131  0.0016  0.0079  0.0080
                0.0038  0.0033  0.0032 -0.0023  0.0008  0.0003 -0.0035 -0.0015  0.0009 -0.0006
 9 H            0.0750  0.7256  0.3030  0.0342  0.0250  0.0239  0.0090  0.0015  0.0015 -0.0062
                0.0007 -0.0004
 10 H           0.0653  0.7047  0.3037  0.0245  0.0367  0.0230 -0.0059  0.0019  0.0002  0.0129
                0.0018 -0.0050
 11 H           0.0220  0.7014  0.3128  0.0306  0.0253  0.0239  0.0054  0.0012  0.0014 -0.0034
                0.0008  0.0005
 12 H          -0.0351  0.5980  0.3079  0.0418  0.0253  0.0285  0.0112  0.0027  0.0027 -0.0047
                0.0007 -0.0027

 Gross Charges per Atom (Z minus electrons)
 ==========================================
             0.5867    0.4616   -0.4963   -0.1971    0.2994   -0.1942    0.2471   -0.2525   -0.1928   -0.1639
            -0.1218    0.0237
 Net Total:  0.00000000


 Atom-Atom Population Matrix (off-diagonal elements not doubled)
 ===============================================================

     1 :     4.0232
     2 :     0.4238    4.2258
     3 :    -0.0372    0.5867    8.0532
     4 :    -0.0556    0.4120   -0.0917    6.7500
     5 :    -0.0122   -0.0430    0.0052    0.4069    5.5308
     6 :     0.0021   -0.0070    0.0012   -0.1114    0.4471    6.5604
     7 :    -0.0004    0.0107   -0.0032   -0.0055   -0.0616    0.4394    4.5018
     8 :     0.0060    0.0002   -0.0024    0.0010   -0.0060   -0.0345    0.8878    6.4027
     9 :     0.3303   -0.0308    0.0112   -0.0077   -0.0093    0.0018   -0.0087   -0.0018    1.0462
    10 :     0.3639   -0.0188   -0.0115   -0.0039   -0.0024    0.0000    0.0011    0.0023   -0.0640    0.9248
    11 :     0.3776   -0.0137   -0.0135    0.0020    0.0013    0.0000   -0.0057   -0.0021   -0.0723   -0.0268
             0.8767
    12 :    -0.0082   -0.0076   -0.0017   -0.0991    0.4439   -0.1048   -0.0028   -0.0008   -0.0023   -0.0009
            -0.0016    0.7621



 =================================================
 H I R S H F E L D   C H A R G E   A N A L Y S I S
 =================================================
  
 For each fragment: the (numerical) integral of rho(scf) * rho(fragment)/rho(sum-of-fragments)
 (nuclear charges are included, electrons are counted negative)

 The fragments and their ordering are defined in the early G E O M E T R Y output section.
 If you use single-atom fragments, this usually implies that all atoms of the same
 chemical type are grouped together. This may not be the order in which you listed them
 in the input file!

  Fragment                       Charge
 ------------------------------------------
    1  C                        -0.1025
    2  C                         0.1574
    3  C                         0.1067
    4  O                        -0.2485
    5  N                        -0.0911
    6  N                         0.1192
    7  N                        -0.0855
    8  N                        -0.1845
    9  H                         0.0334
   10  H                         0.0591
   11  H                         0.0601
   12  H                         0.1761

 Sum of these charges =         -0.00009289
 (accuracy NumInt/Tails)



 =============================
[...]
      -4.967  0.00    30 A         17.07%     1 P:z            -7.062  1.00     6 N
                                   12.71%     1 P:z            -7.062  1.00     5 N
                                   12.21%     1 P:y            -7.062  1.00     5 N
                                   12.02%     1 P:z            -7.062  1.00     7 N
                                    9.87%     1 P:y            -7.062  1.00     6 N
                                    9.28%     1 P:y            -7.062  1.00     7 N
                                    6.62%     1 P:z            -7.062  1.00     8 N
                                    4.77%     1 P:y            -7.062  1.00     8 N
                                    2.21%     1 P:z            -5.239  0.67     1 C
                                    1.42%     1 P:z            -9.020  1.33     4 O
                                    1.23%     2 P:z             4.589  0.00     2 C
                                   -1.14%     2 P:z             7.649  0.00     6 N
                                    1.14%     2 P:x             4.589  0.00     2 C
                                    1.14%     1 P:x            -7.062  1.00     8 N
                                    1.13%     2 S             -18.450  2.00     5 N
      -1.868  0.00    31 A         18.37%     1 P:y            -5.239  0.67     2 C
                                   11.78%     1 S              -6.532  1.00    12 H
                                   10.96%     1 P:y            -9.020  1.33     4 O
                                    9.61%     1 P:y            -7.062  1.00     8 N
                                    6.90%     2 S               2.394  0.00    12 H
                                    6.60%     1 P:y            -5.239  0.67     3 C
                                    6.44%     1 S              -6.532  1.00    10 H
                                    5.23%     1 P:z            -5.239  0.67     2 C
                                    4.95%     1 P:x            -7.062  1.00     8 N
                                    4.21%     1 P:y            -7.062  1.00     5 N
                                    3.53%     2 S             -18.450  2.00     6 N
                                    2.98%     1 P:x            -5.239  0.67     3 C
                                    2.83%     1 P:z            -9.020  1.33     4 O
                                    2.74%     1 P:x            -7.062  1.00     5 N
                                   -2.36%     3 S              14.073  0.00     6 N
                                    1.68%     1 S              -6.532  1.00    11 H
                                    1.55%     1 P:z            -7.062  1.00     8 N
                                    1.41%     1 P:y            -7.062  1.00     7 N
                                   -1.26%     2 P:x             7.649  0.00     6 N
                                   -1.14%     2 S               2.394  0.00    11 H
                                   -1.11%     2 P:y             4.589  0.00     2 C
                                    1.06%     1 P:z            -7.062  1.00     7 N
      -1.339  0.00    32 A         47.58%     1 S              -6.532  1.00    12 H
                                   28.05%     2 S               2.394  0.00    12 H
                                   14.33%     1 P:y            -5.239  0.67     2 C
                                    7.31%     1 P:y            -9.020  1.33     4 O
                                    3.36%     1 P:x            11.051  0.00    12 H
                                   -3.03%     2 P:x             7.649  0.00     6 N
                                   -2.81%     2 P:x             7.649  0.00     5 N
                                   -2.53%     2 S               2.394  0.00    10 H
                                    2.27%     1 S              -6.532  1.00    10 H
                                    1.77%     1 P:x            -7.062  1.00     6 N
                                    1.70%     1 S              -6.532  1.00    11 H
                                    1.61%     2 S               2.394  0.00     9 H
                                    1.43%     1 P:z            -5.239  0.67     2 C
                                    1.30%     1 P:y            -7.062  1.00     5 N
                                   -1.29%     2 P:y             4.589  0.00     2 C
                                    1.22%     1 S              -6.532  1.00     9 H
                                   -1.06%     3 S              14.073  0.00     6 N
                                   -1.05%     2 P:x             4.589  0.00     2 C
      -0.345  0.00    33 A         16.00%     2 S               2.394  0.00    10 H
                                   14.82%     1 P:y            -5.239  0.67     3 C
                                   13.91%     1 S              -6.532  1.00    10 H
                                    9.77%     1 P:y            -7.062  1.00     8 N
                                    6.38%     1 P:x            -7.062  1.00     8 N
                                    6.06%     1 P:x            -5.239  0.67     3 C
                                    5.99%     2 S               2.394  0.00     9 H
                                    5.20%     2 S               2.394  0.00    12 H
                                    4.39%     1 P:z            -5.239  0.67     3 C
                                    4.28%     1 P:y            -5.239  0.67     2 C
                                    3.86%     2 S               2.394  0.00    11 H
                                   -3.39%     2 P:y             4.589  0.00     3 C
                                   -3.20%     3 S              10.158  0.00     1 C
                                    2.39%     1 P:z            -7.062  1.00     8 N
                                    2.15%     1 P:y            -7.062  1.00     5 N
                                    2.04%     1 P:y            -7.062  1.00     6 N
                                    1.90%     2 S             -18.450  2.00     7 N
                                    1.89%     1 P:y            -9.020  1.33     4 O
                                   -1.83%     2 P:y             4.589  0.00     2 C
                                   -1.83%     2 P:y             4.589  0.00     1 C
                                    1.56%     1 P:x            -7.062  1.00     7 N
                                    1.35%     1 S              -6.532  1.00     9 H
                                    1.22%     1 S              -6.532  1.00    12 H
                                    1.10%     2 S             -13.620  2.00     1 C
                                    1.06%     1 S              -6.532  1.00    11 H
                                    1.01%     1 P:z            -5.239  0.67     2 C
      -0.144  0.00    34 A         28.83%     2 S               2.394  0.00     9 H
                                   20.62%     1 S              -6.532  1.00     9 H
                                   12.35%     2 S               2.394  0.00    10 H
                                   10.64%     1 S              -6.532  1.00    12 H
                                    6.81%     2 S               2.394  0.00    11 H
                                    5.90%     1 P:y            -7.062  1.00     8 N
                                   -5.79%     2 P:z             4.589  0.00     2 C
                                    5.71%     1 P:y            -5.239  0.67     3 C
                                   -5.32%     2 P:x             7.649  0.00     6 N
                                    4.48%     1 S              -6.532  1.00    11 H
                                    4.31%     1 S              -6.532  1.00    10 H
                                    4.14%     2 P:z             7.649  0.00     6 N
                                   -3.92%     3 S              10.158  0.00     1 C
                                   -3.81%     2 P:z             4.589  0.00     1 C
                                   -3.44%     2 P:x             7.649  0.00     5 N
                                    3.30%     2 S             -13.620  2.00     3 C
                                   -2.51%     2 S               2.394  0.00    12 H
                                    2.38%     1 P:x            -5.239  0.67     3 C
                                    1.65%     2 S             -13.620  2.00     1 C
                                    1.60%     1 P:x            -7.062  1.00     8 N
                                    1.57%     1 P:z            -5.239  0.67     2 C
                                    1.54%     1 P:y            -9.020  1.33     4 O
                                    1.44%     3 S              10.158  0.00     3 C
                                    1.44%     1 P:y            -5.239  0.67     2 C
                                   -1.38%     2 P:y             7.649  0.00     8 N
                                   -1.27%     1 P:x            -7.062  1.00     5 N
                                    1.22%     2 P:z             7.649  0.00     5 N
                                   -1.18%     2 P:x             4.589  0.00     2 C
                                    1.16%     1 P:x            -7.062  1.00     7 N
                                   -1.12%     2 P:y             4.589  0.00     1 C
                                    1.11%     1 P:x            11.051  0.00    12 H
                                    1.07%     2 P:y             7.649  0.00     6 N
                                    1.04%     1 P:y            -7.062  1.00     5 N
       0.395  0.00    35 A         29.01%     1 P:z            -5.239  0.67     3 C
                                   21.60%     1 P:z            -7.062  1.00     8 N
                                   16.87%     1 P:y            -5.239  0.67     3 C
                                    9.19%     1 P:y            -7.062  1.00     8 N
                                    7.47%     1 P:z            -7.062  1.00     7 N
                                    4.59%     1 P:x            -5.239  0.67     3 C
                                   -3.62%     2 P:z             7.649  0.00     8 N
                                    3.48%     1 P:y            -7.062  1.00     7 N
                                    2.83%     2 S             -13.620  2.00     3 C
                                    2.64%     1 P:y            -7.062  1.00     6 N
                                   -2.59%     2 P:z             4.589  0.00     3 C
                                   -2.48%     2 P:z             7.649  0.00     7 N
                                    2.01%     1 P:x            -7.062  1.00     8 N
                                    1.99%     1 P:x            -7.062  1.00     7 N
                                    1.49%     1 P:x            -7.062  1.00     5 N
                                    1.48%     1 S              -6.532  1.00    11 H
                                   -1.32%     2 P:y             7.649  0.00     8 N
                                    1.19%     2 S               2.394  0.00    11 H
                                   -1.03%     2 P:y             4.589  0.00     3 C



 =======================================================================
 Electrostatic potential at the Nuclei due to electrons and other nuclei
 =======================================================================
  
         Atom                  Potential
         ----                  ---------
     1)   C                  14.75789350
     2)   C                  14.66186206
     3)   O                  22.40863992
     4)   N                  18.34989894
     5)   N                  18.20327587
     6)   N                  18.32078685
     7)   C                  14.71200582
     8)   N                  18.41061300
     9)   H                   1.07803447
    10)   H                   1.07413616
    11)   H                   1.08105741
    12)   H                   0.91955244
 Mulliken charges used for AMS results%charges...


    =====================
     CALCULATION RESULTS
    =====================

Energy (hartree)            -2.72236838


--------------
Atomic charges
--------------
  Index   Atom    Charge
      1      C    0.5867
      2      C    0.4616
      3      O   -0.4963
      4      N   -0.1971
      5      N    0.2994
      6      N   -0.1942
      7      C    0.2471
      8      N   -0.2525
      9      H   -0.1928
     10      H   -0.1639
     11      H   -0.1218
     12      H    0.0237


Dipole moment vector    (Debye):    -4.64668312   -2.79068941   -0.26754297
              magnitude (Debye):     5.42689512


-----------------------
Molecular orbitals info
-----------------------
n orbitals:              252
n spin:                    1

Note: only printing virtual orbitals with
      energy smaller than HOMO + 100. eV

HOMO (eV):              -6.4148
LUMO (eV):              -4.9669
HOMO-LUMO gap (eV):      1.4479

   Index   Energy (eV)    Occupation
     155       93.4728         0.000       
     154       92.7707         0.000       
     153       92.3233         0.000       
     152       90.9047         0.000       
     151       90.1267         0.000       
     150       89.5682         0.000       
     149       88.7927         0.000       
     148       87.8025         0.000       
     147       85.5823         0.000       
     146       82.7591         0.000       
     145       82.4244         0.000       
     144       80.8033         0.000       
     143       80.4921         0.000       
     142       78.5844         0.000       
     141       77.7285         0.000       
     140       77.5055         0.000       
     139       76.5089         0.000       
     138       75.8436         0.000       
     137       75.3393         0.000       
     136       74.6804         0.000       
     135       74.0919         0.000       
     134       71.0065         0.000       
     133       70.2066         0.000       
     132       69.3036         0.000       
     131       68.6331         0.000       
     130       67.6268         0.000       
     129       66.6410         0.000       
     128       65.6051         0.000       
     127       62.8256         0.000       
     126       62.7300         0.000       
     125       61.9176         0.000       
     124       60.5179         0.000       
     123       59.2636         0.000       
     122       58.8019         0.000       
     121       57.6970         0.000       
     120       56.7733         0.000       
     119       55.6009         0.000       
     118       54.5252         0.000       
     117       53.8116         0.000       
     116       53.0839         0.000       
     115       52.5376         0.000       
     114       51.5886         0.000       
     113       50.4030         0.000       
     112       49.3834         0.000       
     111       47.4382         0.000       
     110       46.9453         0.000       
     109       45.8984         0.000       
     108       45.3179         0.000       
     107       44.7533         0.000       
     106       44.5575         0.000       
     105       42.8794         0.000       
     104       42.7623         0.000       
     103       41.9381         0.000       
     102       41.4025         0.000       
     101       40.2121         0.000       
     100       38.6689         0.000       
      99       38.4667         0.000       
      98       36.6601         0.000       
      97       36.4925         0.000       
      96       36.0233         0.000       
      95       35.7614         0.000       
      94       34.8404         0.000       
      93       34.4292         0.000       
      92       32.7860         0.000       
      91       32.5663         0.000       
      90       31.8388         0.000       
      89       31.4168         0.000       
      88       30.5320         0.000       
      87       30.0242         0.000       
      86       29.0124         0.000       
      85       28.8034         0.000       
      84       28.4432         0.000       
      83       27.5884         0.000       
      82       27.4660         0.000       
      81       26.5906         0.000       
      80       26.1781         0.000       
      79       25.4205         0.000       
      78       25.1603         0.000       
      77       23.6979         0.000       
      76       22.6542         0.000       
      75       22.2389         0.000       
      74       21.0199         0.000       
      73       20.4191         0.000       
      72       19.3693         0.000       
      71       18.1672         0.000       
      70       17.1191         0.000       
      69       16.1708         0.000       
      68       15.9769         0.000       
      67       15.0676         0.000       
      66       14.9605         0.000       
      65       14.7177         0.000       
      64       13.2960         0.000       
      63       12.6862         0.000       
      62       11.9779         0.000       
      61       11.6241         0.000       
      60       11.1863         0.000       
      59       10.6952         0.000       
      58       10.4704         0.000       
      57        9.9746         0.000       
      56        9.2914         0.000       
      55        9.0004         0.000       
      54        8.6839         0.000       
      53        7.9101         0.000       
      52        7.5593         0.000       
      51        7.3131         0.000       
      50        7.0300         0.000       
      49        6.3777         0.000       
      48        5.7157         0.000       
      47        5.6240         0.000       
      46        5.3887         0.000       
      45        5.0136         0.000       
      44        4.8282         0.000       
      43        4.0469         0.000       
      42        3.7958         0.000       
      41        3.4791         0.000       
      40        3.1368         0.000       
      39        2.5592         0.000       
      38        1.6228         0.000       
      37        1.4390         0.000       
      36        1.0194         0.000       
      35        0.3954         0.000       
      34       -0.1435         0.000       
      33       -0.3447         0.000       
      32       -1.3391         0.000       
      31       -1.8681         0.000       
      30       -4.9669         0.000 < LUMO
      29       -6.4148         2.000 < HOMO
      28       -6.9050         2.000       
      27       -7.8269         2.000       
      26       -8.3051         2.000       
      25       -9.2844         2.000       
      24       -9.4005         2.000       
      23       -9.7899         2.000       
      22      -10.2409         2.000       
      21      -10.5711         2.000       
      20      -10.9293         2.000       
      19      -11.6000         2.000       
      18      -12.5432         2.000       
      17      -13.4523         2.000       
      16      -15.7994         2.000       
      15      -16.9473         2.000       
      14      -18.7984         2.000       
      13      -20.6402         2.000       
      12      -23.0198         2.000       
      11      -24.3263         2.000       
      10      -26.3775         2.000       
       9      -29.2234         2.000       
       8     -270.7874         2.000       
       7     -272.3687         2.000       
       6     -273.4984         2.000       
       5     -382.3042         2.000       
       4     -383.6226         2.000       
       3     -384.3760         2.000       
       2     -387.3542         2.000       
       1     -511.2880         2.000       

AMS application finished. Exiting.
NORMAL TERMINATION
     Total cpu time:      43.11
  Total system time:       0.55
 Total elapsed time:      44.06
NORMAL TERMINATION
