
 *******************************************************************************
 *                                                                             *
 *  --------------------------------                                           *
 *   Amsterdam Modeling Suite (AMS)              2026.103                      *
 *  --------------------------------                                           *
 *                                               r260501 2026-05-01 873454b5   *
 *                                                                             *
 *                                                                             *
 *                              =================                              *
 *                              |               |                              *
 *                              |     A M S     |                              *
 *                              |               |                              *
 *                              =================                              *
 *                                                                             *
 *                                                                             *
 *   Online information and documentation:  https://www.scm.com/support/       *
 *   E-mail:  support@scm.com   info@scm.com                                   *
 *                                                                             *
 *   Scientific publications using AMS results must be properly referenced     *
 *   See the User Manuals (or the web site) for recommended citations          *
 *   The terms and conditions of the End User License Agreement apply to       *
 *   the use of AMS, https://www.scm.com/license-terms/                        *
 *                                                                             *
 **********************  x86_64_linux_intel / intelmpi  ************************
 
 Licensed to: Jong-June Jeon / University of Seoul 2026-05-13 16:10:32
 SCM User ID: u30731
  
 AMS 2026.103  RunTime: May31-2026 15:15:33  ShM Nodes: 1  Procs: 1

 AMS jobname: c4_fragA_opt
 AMS jobid  : 1170032586

 Start   directory: /gpfs/home1/yeseo1ee/projects/eda-asm-prediction/adf_outputs/batch_001/dipolar_002542/
 Results directory: /gpfs/home1/yeseo1ee/projects/eda-asm-prediction/adf_outputs/batch_001/dipolar_002542/c4_fragA_opt.results/
 Scratch directory: /tmp/amstmp_c4_fragA_opt_kid0.1170032586/

 RNG seed: -1751826956 -415002226 -1998665970 -1091102893 907630142 -1404976909 782921034 -2067574970



                      ************************************************************************
                      *  ADF 2026.103  RunTime: May31-2026 15:15:34  ShM Nodes: 1  Procs: 1  *
                      ************************************************************************
  

       ***************************
       *  GEOMETRY OPTIMIZATION  *
       ***************************

Optimization Method                    Quasi Newton
Optimization Coordinates               Delocalized Coordinates
Optimize lattice                       F
 
 ------------------------------------------------------
 Convergence criteria (Hartree,Angstrom)
 ------------------------------------------------------
 Maximum gradient               0.000100000000
 Maximum rms gradient           0.000066666667
 Maximum step allowed           0.010000000000
 Maximum rms step allowed       0.006666666667
 Maximum energy change allowe   0.000310000000
 Maximum stress energy allowe   0.000500000000
 
Initial model Hessian                  Automatic Hessian
 
------------------------------------
Quasi-Newton Optimizer Parameters
------------------------------------
Hessian Update Method                  BFGS
Maximum number of steps                  200
First GDIIS cycle                          0
Maximum GDIIS vectors                      0
Trust radius (bohr)                        0.200000
Trust radius varies                        T
Constraints converged at all steps         T
Use projector                              T
 
 Rigid motions settings for: old optimizer
 Atomic rotations (x,y,z):     T T T
 Atomic translations (x,y,z):  T T T
 Tolerance:                  1.000000000000000E-006

--------
Geometry
--------
Formula: C12H11BrF6O
Atoms
  Index Symbol   x (angstrom)   y (angstrom)   z (angstrom)
      1      C    -0.38721000     0.49307000    -0.28584000
      2      C     0.22856000    -0.41408000     0.30025000
      3      C     0.95307000    -0.78749000     1.52756000
      4     Br     0.33168000    -2.56147000     2.20164000
      5      C     2.49553000    -0.74397000     1.28853000
      6      C     3.38510000    -1.73096000     1.97702000
      7      O     2.91732000     0.19504000     0.64560000
      8      C     0.68601000     0.27392000     2.62804000
      9      C    -0.74830000     0.47592000     3.12401000
     10      C    -1.81662000     0.96188000     2.12873000
     11      C    -1.39538000     2.16203000     1.26232000
     12      C    -1.00880000     1.83313000    -0.22871000
     13      C     0.02918000     2.88059000    -0.70999000
     14      F     1.12998000     2.83580000     0.05282000
     15      F     0.41687000     2.67193000    -1.97381000
     16      F    -0.46671000     4.12360000    -0.63590000
     17      C    -2.29214000     1.91864000    -1.10117000
     18      F    -3.12579000     0.91780000    -0.78603000
     19      F    -2.95109000     3.06881000    -0.89543000
     20      F    -2.04135000     1.85482000    -2.41468000
     21      H     4.43065000    -1.44110000     1.81195000
     22      H     3.20759000    -2.74031000     1.58144000
     23      H     3.16699000    -1.75785000     3.05582000
     24      H     1.31919000     0.01633000     3.49116000
     25      H     1.08545000     1.21518000     2.22142000
     26      H    -1.10559000    -0.45002000     3.60033000
     27      H    -0.67091000     1.22312000     3.93140000
     28      H    -2.69300000     1.26414000     2.72139000
     29      H    -2.16534000     0.13288000     1.49778000
     30      H    -2.19308000     2.91333000     1.23022000
     31      H    -0.53215000     2.65961000     1.72176000

Total System Charge              0.00000


----------------
ADF Engine Input
----------------
 
   Basis
     Type TZ2P
     Core None
   End
   XC
     GGA BLYP
     Dispersion GRIMME3 BJDAMP
   End
   Symmetry NOSYM
   NumericalQuality Normal
   Unrestricted No
   SCF
     Iterations 200
     Converge 1.0e-6
   End
   Save TAPE21
 

 Title: *** (NO TITLE) ***

 Using automatic Hessian for delocalized coordinates.
 *** GO1_GOStep1 ***

 Energy gradients wrt nuclear displacements
 ==========================================

     Atom      Cartesian (a.u./angstrom)
                 X         Y         Z
 ----------------------------------------
     1 C    -0.049239  0.063289 -0.054630
     2 C     0.045455 -0.088092  0.018124
     3 C     0.003454  0.000468  0.028848
     4 Br    0.008340  0.018521 -0.002222
     5 C    -0.003087 -0.004690 -0.005483
     6 C    -0.013876  0.009618 -0.003837
     7 O    -0.006072 -0.004609  0.011153
     8 C    -0.006899 -0.010328 -0.003649
     9 C     0.003341  0.004167 -0.014029
    10 C     0.014095  0.005953  0.001431
    11 C     0.000479 -0.010956 -0.007359
    12 C     0.003781  0.017353  0.004532
    13 C     0.006665  0.017751  0.003691
    14 F    -0.034505  0.000916 -0.027388
    15 F    -0.011968  0.007349  0.038600
    16 F     0.017208 -0.043271 -0.004793
    17 C    -0.020518 -0.002728 -0.005130
    18 F     0.027490  0.035316 -0.010906
    19 F     0.024972 -0.038713 -0.008255
    20 F    -0.009245  0.011478  0.039241
    21 H     0.004948  0.001547 -0.000972
    22 H    -0.000650 -0.000688 -0.003905
    23 H     0.000084  0.003200  0.004413
    24 H     0.002432  0.001152  0.001621
    25 H     0.001322  0.004549 -0.001167
    26 H    -0.001706 -0.003592  0.001893
    27 H     0.000349  0.002321  0.001212
    28 H    -0.002432  0.001425  0.000826
    29 H    -0.003737 -0.004334 -0.003756
    30 H    -0.003231  0.003372 -0.000446
    31 H     0.002750  0.002256  0.002347
 ----------------------------------------
 
----------------------------------------------------------------------
Geometry Convergence after Step   1       (Hartree/Angstrom,Angstrom)
----------------------------------------------------------------------
current energy                               -6.30495052 Hartree
energy change                      -6.30495052     0.00031000    F
constrained gradient max            0.08811069     0.00010000    F
constrained gradient rms            0.01952705     0.00006667    F
gradient max                        0.08811069
gradient rms                        0.01952705
cart. step max                      0.11549175     0.01000000    F
cart. step rms                      0.04468203     0.00666667    F
 

--------
Geometry
--------
Formula: C12H11BrF6O
Atoms
  Index Symbol   x (angstrom)   y (angstrom)   z (angstrom)
      1      C    -0.35615590     0.54962843    -0.22618743
      2      C     0.25021072    -0.31754119     0.34912549
      3      C     0.97842503    -0.75673660     1.54275791
      4     Br     0.30820292    -2.55272550     2.13527099
      5      C     2.53036109    -0.75757934     1.30342319
      6      C     3.38624763    -1.80943049     1.95397001
      7      O     2.99189991     0.18425658     0.68363152
      8      C     0.70699465     0.28418224     2.66942283
      9      C    -0.74061102     0.48838066     3.14304002
     10      C    -1.80232904     0.98992682     2.13715079
     11      C    -1.41799467     2.20700483     1.26467737
     12      C    -1.01668951     1.86682636    -0.22678127
     13      C     0.00486401     2.94143077    -0.72834300
     14      F     1.10546801     2.95080127     0.06856579
     15      F     0.42557675     2.70682460    -1.99575376
     16      F    -0.53867981     4.18795454    -0.69147345
     17      C    -2.29956841     1.86483330    -1.12622930
     18      F    -3.09740751     0.82187547    -0.77281730
     19      F    -3.03139724     3.00343458    -0.97920977
     20      F    -2.01488274     1.74013538    -2.44634350
     21      H     4.43989784    -1.55659175     1.79599416
     22      H     3.16937448    -2.79726719     1.52769695
     23      H     3.17044300    -1.87154888     3.02972834
     24      H     1.32037696     0.00102856     3.53737970
     25      H     1.12331089     1.22652889     2.28922462
     26      H    -1.10702646    -0.44469313     3.59305198
     27      H    -0.67502130     1.21706587     3.96661487
     28      H    -2.68672929     1.27103250     2.72587108
     29      H    -2.12814821     0.16009335     1.50045096
     30      H    -2.23828835     2.93014611     1.23010805
     31      H    -0.57101443     2.73504295     1.71561215

Total System Charge              0.00000

 *** GO1_GOStep2 ***

 Energy gradients wrt nuclear displacements
 ==========================================

     Atom      Cartesian (a.u./angstrom)
                 X         Y         Z
 ----------------------------------------
     1 C     0.009684 -0.024136  0.008800
     2 C    -0.019914  0.004224 -0.031141
     3 C     0.002289 -0.002083  0.023028
     4 Br    0.007583  0.013163 -0.001795
     5 C    -0.005076 -0.009620 -0.001933
     6 C    -0.007785  0.005621 -0.000916
     7 O     0.002083  0.005333  0.002279
     8 C    -0.006746 -0.003660 -0.004555
     9 C     0.000137 -0.001589 -0.007034
    10 C     0.011657  0.004982  0.000584
    11 C    -0.000884 -0.005275 -0.004915
    12 C     0.003416  0.008361  0.006945
    13 C     0.002183  0.007002  0.004814
    14 F    -0.009444 -0.001556 -0.007049
    15 F    -0.003340  0.000344  0.007199
    16 F     0.003926 -0.011579 -0.000660
    17 C    -0.007660 -0.002242 -0.000045
    18 F     0.009755  0.009539 -0.002721
    19 F     0.005430 -0.007650 -0.001466
    20 F    -0.001052  0.005051  0.008425
    21 H     0.002647  0.000216 -0.000309
    22 H     0.000004 -0.000435 -0.001898
    23 H     0.000849  0.001804  0.002104
    24 H     0.001923  0.001282  0.000530
    25 H     0.000607  0.001636  0.000036
    26 H    -0.000370 -0.001930  0.001287
    27 H    -0.000058  0.001153  0.001103
    28 H    -0.001454  0.001115 -0.000260
    29 H    -0.000478 -0.002764 -0.002400
    30 H    -0.000272  0.001757  0.000774
    31 H     0.000361  0.001935  0.001190
 ----------------------------------------

 dE(predicted):    -0.99933E-02, dE(actual):    -0.92792E-02, Trust radius:    0.400000, all in a.u.
 
----------------------------------------------------------------------
Geometry Convergence after Step   2       (Hartree/Angstrom,Angstrom)
----------------------------------------------------------------------
current energy                               -6.31422969 Hartree
energy change                      -0.00927917     0.00031000    F
constrained gradient max            0.03114209     0.00010000    F
constrained gradient rms            0.00701652     0.00006667    F
gradient max                        0.03114209
gradient rms                        0.00701652
cart. step max                      0.21334002     0.01000000    F
cart. step rms                      0.06750191     0.00666667    F
 

--------
Geometry
--------
Formula: C12H11BrF6O
Atoms
  Index Symbol   x (angstrom)   y (angstrom)   z (angstrom)
      1      C    -0.28078611     0.65576607    -0.19595985
      2      C     0.34295069    -0.20015193     0.39181867
      3      C     1.03287125    -0.72591398     1.56027660
      4     Br     0.25076935    -2.52554188     2.02828479
      5      C     2.59429606    -0.79521200     1.35937498
      6      C     3.38273860    -1.93537194     1.95734497
      7      O     3.11231027     0.12827732     0.75977857
      8      C     0.74927346     0.28855106     2.71509395
      9      C    -0.71290327     0.51725661     3.15202189
     10      C    -1.78137857     1.01797692     2.14086426
     11      C    -1.44423841     2.24851936     1.25592257
     12      C    -1.02591078     1.91877470    -0.23989057
     13      C    -0.07180648     3.05284295    -0.76649804
     14      F     1.02524894     3.16414129     0.04254420
     15      F     0.38011567     2.82159028    -2.03062279
     16      F    -0.70203761     4.26876815    -0.76303372
     17      C    -2.30395214     1.79295212    -1.14829930
     18      F    -3.05159358     0.71788074    -0.74593429
     19      F    -3.11060468     2.89573581    -1.06137410
     20      F    -2.00340144     1.60772733    -2.46497243
     21      H     4.44909352    -1.73875957     1.81919098
     22      H     3.10992935    -2.88458920     1.48059519
     23      H     3.15199207    -2.04673657     3.02460101
     24      H     1.32371375    -0.03566552     3.59417192
     25      H     1.20064312     1.22773481     2.37257755
     26      H    -1.09308837    -0.41485342     3.58829882
     27      H    -0.65578179     1.23590711     3.98349000
     28      H    -2.66763722     1.27690516     2.73511178
     29      H    -2.09475355     0.18350804     1.50853286
     30      H    -2.29671933     2.93149482     1.21759417
     31      H    -0.61964276     2.81480535     1.69872539

Total System Charge              0.00000

 *** GO1_GOStep3 ***

 Energy gradients wrt nuclear displacements
 ==========================================

     Atom      Cartesian (a.u./angstrom)
                 X         Y         Z
 ----------------------------------------
     1 C    -0.005790  0.001285 -0.001611
     2 C    -0.004230 -0.011391 -0.005412
     3 C     0.002772 -0.007081  0.012950
     4 Br    0.005027  0.008436 -0.001840
     5 C    -0.000928  0.000803  0.004872
     6 C    -0.002399  0.000974 -0.003036
     7 O     0.001331  0.000714 -0.000856
     8 C    -0.004965 -0.000326 -0.004410
     9 C    -0.000180 -0.001951 -0.003147
    10 C     0.004698  0.004141  0.002163
    11 C     0.000056 -0.003461 -0.003216
    12 C     0.000440  0.007121  0.004244
    13 C     0.000286 -0.002805  0.004209
    14 F     0.000991  0.000347  0.000671
    15 F     0.001607 -0.000076 -0.003636
    16 F    -0.000665  0.000511 -0.000071
    17 C     0.001438 -0.000332  0.001778
    18 F     0.000473 -0.000431 -0.000413
    19 F    -0.002469  0.001729  0.000352
    20 F     0.000034  0.000814 -0.003563
    21 H     0.000605 -0.000449 -0.000209
    22 H     0.000626 -0.000780  0.000158
    23 H     0.000648  0.001077  0.000024
    24 H     0.001539  0.000798 -0.000690
    25 H    -0.000144 -0.000270  0.000185
    26 H     0.000465 -0.000196 -0.000119
    27 H    -0.000421 -0.000266  0.001135
    28 H    -0.001002  0.000011 -0.001150
    29 H     0.000123 -0.000451 -0.000206
    30 H     0.001040  0.000072  0.000685
    31 H    -0.001003  0.001432  0.000160
 ----------------------------------------

 dE(predicted):    -0.40783E-02, dE(actual):    -0.33915E-02, Trust radius:    0.800000, all in a.u.
 
----------------------------------------------------------------------
Geometry Convergence after Step   3       (Hartree/Angstrom,Angstrom)
----------------------------------------------------------------------
current energy                               -6.31762122 Hartree
energy change                      -0.00339153     0.00031000    F
constrained gradient max            0.01294365     0.00010000    F
constrained gradient rms            0.00305037     0.00006667    F
gradient max                        0.01294365
gradient rms                        0.00305037
cart. step max                      0.21560224     0.01000000    F
cart. step rms                      0.07155885     0.00666667    F
 

--------
Geometry
--------
Formula: C12H11BrF6O
Atoms
  Index Symbol   x (angstrom)   y (angstrom)   z (angstrom)
      1      C    -0.18611370     0.76727863    -0.19769136
      2      C     0.44531922    -0.07475479     0.39145614
      3      C     1.07950764    -0.68803765     1.53579442
      4     Br     0.17434581    -2.47182209     1.87120334
      5      C     2.64242656    -0.84573927     1.38361333
      6      C     3.33759928    -2.04186006     1.99699723
      7      O     3.23709718     0.07576798     0.85921089
      8      C     0.80234475     0.28518000     2.73373159
      9      C    -0.66603886     0.53659981     3.15342531
     10      C    -1.74426900     1.02927845     2.13890694
     11      C    -1.44331847     2.27520981     1.25230951
     12      C    -1.02107974     1.96421127    -0.25216772
     13      C    -0.17243037     3.16785861    -0.81424138
     14      F     0.93059440     3.37974353    -0.02849566
     15      F     0.27198140     2.95341836    -2.08463360
     16      F    -0.89811185     4.33351632    -0.81421440
     17      C    -2.29548041     1.71890791    -1.14416477
     18      F    -2.98201211     0.62007283    -0.68622541
     19      F    -3.16448161     2.77826406    -1.10225517
     20      F    -1.98752399     1.48533031    -2.45259425
     21      H     4.41739816    -1.88774238     1.94568904
     22      H     3.05942602    -2.95843316     1.46415418
     23      H     3.01954490    -2.18589643     3.03714317
     24      H     1.34360247    -0.09315160     3.61179909
     25      H     1.28633490     1.22344542     2.43728326
     26      H    -1.05591485    -0.39113103     3.58884194
     27      H    -0.60899265     1.25445598     3.98443420
     28      H    -2.62797891     1.27070678     2.74328184
     29      H    -2.05118191     0.19216123     1.50923777
     30      H    -2.31996903     2.92717393     1.21761693
     31      H    -0.63291524     2.86430723     1.69018358

Total System Charge              0.00000

 *** GO1_GOStep4 ***

 Energy gradients wrt nuclear displacements
 ==========================================

     Atom      Cartesian (a.u./angstrom)
                 X         Y         Z
 ----------------------------------------
     1 C     0.001148 -0.005412  0.004764
     2 C    -0.008936  0.001360 -0.003904
     3 C    -0.000106 -0.004819  0.005768
     4 Br    0.002312  0.006270 -0.001857
     5 C     0.002427 -0.001454 -0.008234
     6 C     0.001143 -0.000101  0.001608
     7 O     0.000512  0.000744  0.004020
     8 C    -0.002523  0.002278 -0.002443
     9 C     0.000911 -0.001021  0.001007
    10 C    -0.001790  0.001600  0.001519
    11 C     0.001364 -0.000555 -0.000682
    12 C     0.002266  0.001667  0.001719
    13 C     0.000926 -0.004987  0.001799
    14 F     0.004127  0.001872  0.002704
    15 F     0.002330 -0.000431 -0.005043
    16 F    -0.003310  0.004482 -0.000187
    17 C     0.003820  0.000589  0.000326
    18 F    -0.002265 -0.004438  0.001700
    19 F    -0.003955  0.005078  0.001143
    20 F     0.001121 -0.000838 -0.005968
    21 H    -0.000799 -0.000326  0.000096
    22 H    -0.000180  0.000290  0.000783
    23 H     0.000848 -0.000459 -0.000238
    24 H     0.000787  0.000246 -0.000470
    25 H    -0.000555 -0.000623 -0.000133
    26 H     0.000519  0.000485 -0.000751
    27 H    -0.000510 -0.001427  0.001129
    28 H    -0.000230 -0.000615 -0.000976
    29 H    -0.000948  0.000625  0.000732
    30 H     0.000947 -0.000993  0.000258
    31 H    -0.001400  0.000914 -0.000189
 ----------------------------------------

 dE(predicted):    -0.22342E-02, dE(actual):    -0.14511E-02, Trust radius:    0.800000, all in a.u.
 
----------------------------------------------------------------------
Geometry Convergence after Step   4       (Hartree/Angstrom,Angstrom)
----------------------------------------------------------------------
current energy                               -6.31907230 Hartree
energy change                      -0.00145108     0.00031000    F
constrained gradient max            0.00892491     0.00010000    F
constrained gradient rms            0.00264741     0.00006667    F
gradient max                        0.00892491
gradient rms                        0.00264741
cart. step max                      0.16910140     0.01000000    F
cart. step rms                      0.06312130     0.00666667    F
 

--------
Geometry
--------
Formula: C12H11BrF6O
Atoms
  Index Symbol   x (angstrom)   y (angstrom)   z (angstrom)
      1      C    -0.08876352     0.87195571    -0.20111670
      2      C     0.54486824     0.03891442     0.39737971
      3      C     1.11769950    -0.63825106     1.52984735
      4     Br     0.13369161    -2.40979054     1.75804509
      5      C     2.67372475    -0.86644386     1.43163560
      6      C     3.27703248    -2.12710062     2.01371223
      7      O     3.32399875     0.00724437     0.89136640
      8      C     0.84278371     0.29259348     2.76524374
      9      C    -0.63112980     0.56246307     3.16043890
     10      C    -1.70632197     1.02935809     2.12652984
     11      C    -1.43742423     2.29182983     1.24749860
     12      C    -1.00865378     1.99957839    -0.26113944
     13      C    -0.26799870     3.26335354    -0.84266063
     14      F     0.83759151     3.54349360    -0.08552885
     15      F     0.15496732     3.07807642    -2.12137834
     16      F    -1.06721325     4.37724568    -0.81904541
     17      C    -2.26531963     1.64431916    -1.13911465
     18      F    -2.89186511     0.53096266    -0.63673022
     19      F    -3.19079053     2.65093881    -1.14993436
     20      F    -1.93550623     1.36936545    -2.43044343
     21      H     4.36536136    -2.04027194     1.99562412
     22      H     2.95490104    -3.00147483     1.43609496
     23      H     2.91739912    -2.29081575     3.03745029
     24      H     1.35009772    -0.13360437     3.64149201
     25      H     1.35459388     1.22986428     2.51456725
     26      H    -1.02943100    -0.35556239     3.60956845
     27      H    -0.58194514     1.29740884     3.97639413
     28      H    -2.59816753     1.24913825     2.72743024
     29      H    -1.98702909     0.18492659     1.49471574
     30      H    -2.33320469     2.91921456     1.21478600
     31      H    -0.63823679     2.89539015     1.68690140

Total System Charge              0.00000

 *** GO1_GOStep5 ***

 Energy gradients wrt nuclear displacements
 ==========================================

     Atom      Cartesian (a.u./angstrom)
                 X         Y         Z
 ----------------------------------------
     1 C     0.001506 -0.002352  0.003500
     2 C    -0.006828  0.003547 -0.000467
     3 C    -0.005152 -0.004075 -0.007069
     4 Br    0.003326  0.002353 -0.001169
     5 C     0.006266  0.007900  0.010659
     6 C    -0.000373 -0.005219 -0.004513
     7 O    -0.001579 -0.001746 -0.002669
     8 C     0.002010  0.003609  0.001483
     9 C     0.001926 -0.001268  0.002459
    10 C    -0.003404 -0.000852 -0.000774
    11 C     0.001930  0.002551  0.001151
    12 C     0.004437 -0.004881 -0.001082
    13 C     0.002160 -0.000800 -0.001545
    14 F     0.000691  0.000373  0.000533
    15 F     0.000962 -0.000836  0.000023
    16 F    -0.002054  0.004041 -0.000263
    17 C     0.001877  0.002038 -0.001407
    18 F    -0.000779 -0.002690  0.001436
    19 F    -0.002187  0.001219 -0.000566
    20 F     0.000101 -0.000216 -0.000508
    21 H    -0.000856 -0.000184 -0.000352
    22 H    -0.000576 -0.001282  0.001390
    23 H    -0.000794  0.000469 -0.000321
    24 H    -0.000063  0.000156  0.000440
    25 H    -0.000630 -0.000240 -0.000388
    26 H     0.000151  0.000138 -0.000557
    27 H    -0.000184 -0.001500  0.000643
    28 H     0.000527  0.000169 -0.000151
    29 H    -0.001793  0.000213  0.000284
    30 H    -0.000003 -0.000966 -0.000293
    31 H    -0.000616  0.000330  0.000092
 ----------------------------------------

 dE(predicted):    -0.95449E-03, dE(actual):    -0.61863E-03, Trust radius:    0.800000, all in a.u.
 
----------------------------------------------------------------------
Geometry Convergence after Step   5       (Hartree/Angstrom,Angstrom)
----------------------------------------------------------------------
current energy                               -6.31969093 Hartree
energy change                      -0.00061863     0.00031000    F
constrained gradient max            0.01062151     0.00010000    F
constrained gradient rms            0.00261860     0.00006667    F
gradient max                        0.01062151
gradient rms                        0.00261860
cart. step max                      0.08609837     0.01000000    F
cart. step rms                      0.02625139     0.00666667    F
 

--------
Geometry
--------
Formula: C12H11BrF6O
Atoms
  Index Symbol   x (angstrom)   y (angstrom)   z (angstrom)
      1      C    -0.06764592     0.90193958    -0.21716967
      2      C     0.56503318     0.06061890     0.37794589
      3      C     1.11686567    -0.64495409     1.50297004
      4     Br     0.07979861    -2.39512772     1.71127762
      5      C     2.66583939    -0.90334695     1.40412504
      6      C     3.26477559    -2.12799816     2.06004665
      7      O     3.32938351    -0.04139508     0.85963890
      8      C     0.86062363     0.27072358     2.75305625
      9      C    -0.60771901     0.56473551     3.15177101
     10      C    -1.68424812     1.02061294     2.11686880
     11      C    -1.43155416     2.29092878     1.24562078
     12      C    -1.01193251     2.01133063    -0.26673205
     13      C    -0.30206399     3.29375768    -0.84136242
     14      F     0.81640367     3.57025200    -0.10354248
     15      F     0.09108394     3.14083595    -2.13275604
     16      F    -1.11274081     4.39439279    -0.77468285
     17      C    -2.26662755     1.63865657    -1.13859582
     18      F    -2.88894033     0.52842922    -0.62920276
     19      F    -3.19452650     2.64017535    -1.15850640
     20      F    -1.93375013     1.35433152    -2.42582242
     21      H     4.35186824    -2.02310051     2.08172248
     22      H     2.98090569    -3.02671965     1.49998874
     23      H     2.86659967    -2.26109071     3.07404194
     24      H     1.35799211    -0.17927262     3.62284343
     25      H     1.39193295     1.20121919     2.51699771
     26      H    -1.01278107    -0.34159538     3.61914014
     27      H    -0.54808385     1.31574797     3.95248575
     28      H    -2.57907941     1.22832567     2.71818801
     29      H    -1.95018082     0.17365879     1.48223287
     30      H    -2.32939902     2.91694855     1.22479533
     31      H    -0.62812264     2.89129973     1.68224551

Total System Charge              0.00000

 *** GO1_GOStep6 ***

 Energy gradients wrt nuclear displacements
 ==========================================

     Atom      Cartesian (a.u./angstrom)
                 X         Y         Z
 ----------------------------------------
     1 C    -0.002798  0.006697 -0.002753
     2 C     0.001658 -0.004528  0.005764
     3 C    -0.005194 -0.002003 -0.004708
     4 Br   -0.000379  0.001925 -0.000307
     5 C     0.003485 -0.000210 -0.000962
     6 C     0.002044 -0.002069 -0.001357
     7 O    -0.000630  0.000764  0.001748
     8 C     0.001221  0.002321  0.002229
     9 C     0.002327 -0.001101  0.002037
    10 C    -0.001848 -0.001113 -0.001236
    11 C     0.001015  0.003124  0.001037
    12 C     0.002398 -0.004820 -0.001933
    13 C     0.002414  0.000909 -0.002227
    14 F    -0.001003 -0.000599  0.000200
    15 F    -0.000071 -0.000739  0.001522
    16 F    -0.000712  0.001121 -0.000067
    17 C     0.000011  0.002141 -0.001538
    18 F    -0.000426 -0.000859  0.000145
    19 F    -0.000040 -0.000962 -0.000580
    20 F    -0.000350  0.000326  0.001755
    21 H    -0.000193  0.000105 -0.000041
    22 H    -0.000598  0.000282  0.000772
    23 H    -0.000327  0.000106  0.000239
    24 H    -0.000256  0.000098  0.000494
    25 H    -0.000295 -0.000188 -0.000430
    26 H    -0.000006 -0.000370 -0.000438
    27 H    -0.000512 -0.000859  0.000330
    28 H     0.000604  0.001023  0.000312
    29 H    -0.001110 -0.000039  0.000248
    30 H    -0.000458 -0.000366 -0.000398
    31 H     0.000028 -0.000118  0.000143
 ----------------------------------------

 dE(predicted):    -0.47437E-03, dE(actual):    -0.59042E-03, Trust radius:    0.800000, all in a.u.
 
----------------------------------------------------------------------
Geometry Convergence after Step   6       (Hartree/Angstrom,Angstrom)
----------------------------------------------------------------------
current energy                               -6.32028134 Hartree
energy change                      -0.00059042     0.00031000    F
constrained gradient max            0.00668536     0.00010000    F
constrained gradient rms            0.00182892     0.00006667    F
gradient max                        0.00668536
gradient rms                        0.00182892
cart. step max                      0.09444790     0.01000000    F
cart. step rms                      0.02846075     0.00666667    F
 

--------
Geometry
--------
Formula: C12H11BrF6O
Atoms
  Index Symbol   x (angstrom)   y (angstrom)   z (angstrom)
      1      C    -0.05377742     0.91768951    -0.23424474
      2      C     0.58099098     0.07198468     0.35296776
      3      C     1.12139095    -0.64736031     1.47731092
      4     Br     0.06141213    -2.38846667     1.68762591
      5      C     2.66046343    -0.93665478     1.37769828
      6      C     3.24256851    -2.12133570     2.11398028
      7      O     3.33684355    -0.11904431     0.78195351
      8      C     0.87863168     0.26289949     2.73160365
      9      C    -0.58434453     0.56971549     3.13943070
     10      C    -1.66668350     0.99903276     2.10464405
     11      C    -1.43471172     2.27745439     1.24366963
     12      C    -1.01426677     2.01805440    -0.26965131
     13      C    -0.32689518     3.31867019    -0.82620937
     14      F     0.80852977     3.58519684    -0.11122213
     15      F     0.03250547     3.21011955    -2.13186361
     16      F    -1.14248807     4.40811569    -0.70690092
     17      C    -2.26678839     1.64297695    -1.14132168
     18      F    -2.89089405     0.53464343    -0.63507901
     19      F    -3.18957855     2.64802673    -1.15537115
     20      F    -1.93415794     1.36313711    -2.42979204
     21      H     4.32956389    -2.01722687     2.15177693
     22      H     2.97051986    -3.04812367     1.59443665
     23      H     2.82402605    -2.20055217     3.12531109
     24      H     1.37550867    -0.19734838     3.59598119
     25      H     1.41961222     1.18918652     2.49968837
     26      H    -0.98592576    -0.32495077     3.63189705
     27      H    -0.51645983     1.34164289     3.91981085
     28      H    -2.57015033     1.18187076     2.70158300
     29      H    -1.90387767     0.14745989     1.46510093
     30      H    -2.33753705     2.89692533     1.23228350
     31      H    -0.63432038     2.88058103     1.68253171

Total System Charge              0.00000

 *** GO1_GOStep7 ***

 Energy gradients wrt nuclear displacements
 ==========================================

     Atom      Cartesian (a.u./angstrom)
                 X         Y         Z
 ----------------------------------------
     1 C    -0.000493  0.004778 -0.002936
     2 C     0.002553 -0.003416  0.004117
     3 C    -0.004028 -0.001303 -0.002547
     4 Br   -0.000660  0.001060  0.000726
     5 C     0.002374 -0.003664 -0.003101
     6 C     0.000985  0.000293 -0.000853
     7 O    -0.000110  0.001649  0.002817
     8 C    -0.000117  0.001759  0.001925
     9 C     0.002458 -0.000513  0.000471
    10 C    -0.000683 -0.000782 -0.000835
    11 C    -0.000343  0.001793  0.000382
    12 C    -0.000198 -0.001988 -0.001520
    13 C     0.001083  0.000609 -0.000874
    14 F    -0.001293  0.000067 -0.000724
    15 F    -0.000582  0.000446  0.001871
    16 F     0.000928 -0.001788 -0.000507
    17 C    -0.001772  0.000721 -0.001066
    18 F    -0.000229  0.000680 -0.000368
    19 F     0.002263 -0.001588  0.000573
    20 F     0.000010  0.000800  0.001539
    21 H     0.000035  0.000147 -0.000061
    22 H    -0.000860  0.000380  0.000116
    23 H    -0.000294  0.000204  0.000743
    24 H    -0.000162 -0.000154  0.000232
    25 H     0.000102 -0.000333 -0.000337
    26 H    -0.000395 -0.000511 -0.000499
    27 H    -0.000415 -0.000091  0.000130
    28 H     0.000316  0.001267  0.000686
    29 H    -0.000110 -0.000112  0.000265
    30 H    -0.000706  0.000065 -0.000187
    31 H     0.000342 -0.000475 -0.000178
 ----------------------------------------

 dE(predicted):    -0.24712E-03, dE(actual):    -0.40155E-03, Trust radius:    0.800000, all in a.u.
 
----------------------------------------------------------------------
Geometry Convergence after Step   7       (Hartree/Angstrom,Angstrom)
----------------------------------------------------------------------
current energy                               -6.32068289 Hartree
energy change                      -0.00040155     0.00031000    F
constrained gradient max            0.00478663     0.00010000    F
constrained gradient rms            0.00144537     0.00006667    F
gradient max                        0.00478663
gradient rms                        0.00144537
cart. step max                      0.16224236     0.01000000    F
cart. step rms                      0.04319965     0.00666667    F
 

--------
Geometry
--------
Formula: C12H11BrF6O
Atoms
  Index Symbol   x (angstrom)   y (angstrom)   z (angstrom)
      1      C    -0.05319261     0.92817276    -0.25309538
      2      C     0.58630274     0.07548906     0.31825585
      3      C     1.12010426    -0.65874452     1.44021125
      4     Br     0.04015388    -2.39429798     1.64918127
      5      C     2.64433056    -0.98417187     1.33130451
      6      C     3.22568914    -2.08178558     2.19143334
      7      O     3.32020358    -0.25990560     0.62367155
      8      C     0.89149857     0.24414675     2.69833003
      9      C    -0.56446133     0.56857118     3.11959374
     10      C    -1.65070275     0.96767934     2.08483224
     11      C    -1.43780270     2.26028209     1.24682051
     12      C    -1.01954147     2.02964361    -0.26805740
     13      C    -0.34012194     3.34339929    -0.79794854
     14      F     0.82422498     3.56821612    -0.11499659
     15      F    -0.02812599     3.28553879    -2.11991548
     16      F    -1.13578271     4.43475460    -0.60464255
     17      C    -2.27210427     1.66036161    -1.13998189
     18      F    -2.90328711     0.56022749    -0.63073298
     19      F    -3.18652466     2.67349166    -1.15809042
     20      F    -1.94221626     1.37214522    -2.42805175
     21      H     4.31142894    -1.96430645     2.23330473
     22      H     2.97558241    -3.05768854     1.75667901
     23      H     2.79507703    -2.07094022     3.20002486
     24      H     1.38907131    -0.22629637     3.55628499
     25      H     1.44268721     1.16629977     2.47157237
     26      H    -0.96116423    -0.30865469     3.64600374
     27      H    -0.48284423     1.36664463     3.87242141
     28      H    -2.56815675     1.11140218     2.67108199
     29      H    -1.84790391     0.11663694     1.43138330
     30      H    -2.34295280     2.87612896     1.24971031
     31      H    -0.63975889     2.86187978     1.69304199

Total System Charge              0.00000

 *** GO1_GOStep8 ***

 Energy gradients wrt nuclear displacements
 ==========================================

     Atom      Cartesian (a.u./angstrom)
                 X         Y         Z
 ----------------------------------------
     1 C     0.001899  0.000540 -0.001946
     2 C     0.001904 -0.000936  0.001453
     3 C    -0.000507 -0.001516 -0.000692
     4 Br   -0.001741  0.000084  0.001226
     5 C     0.001185 -0.005938 -0.001887
     6 C     0.000047  0.003050 -0.001190
     7 O    -0.000874  0.002245  0.002695
     8 C    -0.001789  0.000945  0.000507
     9 C     0.001691  0.000422 -0.001454
    10 C     0.001029  0.000157 -0.000885
    11 C    -0.001027 -0.000513 -0.000038
    12 C    -0.002481  0.002092 -0.000290
    13 C    -0.001618  0.001467  0.001101
    14 F    -0.001102 -0.000506 -0.001185
    15 F    -0.000095  0.000718  0.001077
    16 F     0.002189 -0.002771 -0.000366
    17 C    -0.002505 -0.000550  0.001050
    18 F     0.001255  0.002369 -0.001252
    19 F     0.002288 -0.002029  0.000694
    20 F    -0.000356  0.000175  0.000830
    21 H     0.000207 -0.000040 -0.000023
    22 H    -0.000730  0.000024 -0.000052
    23 H    -0.000253  0.000606  0.000895
    24 H     0.000294 -0.000581  0.000015
    25 H     0.000495 -0.000513 -0.000080
    26 H    -0.000679 -0.000236 -0.000273
    27 H     0.000044  0.000751 -0.000247
    28 H    -0.000017  0.000755  0.000774
    29 H     0.000935 -0.000117 -0.000258
    30 H    -0.000215  0.000335 -0.000047
    31 H     0.000528 -0.000488 -0.000152
 ----------------------------------------

 dE(predicted):    -0.29728E-03, dE(actual):    -0.25205E-03, Trust radius:    0.800000, all in a.u.
 
----------------------------------------------------------------------
Geometry Convergence after Step   8       (Hartree/Angstrom,Angstrom)
----------------------------------------------------------------------
current energy                               -6.32093494 Hartree
energy change                      -0.00025205     0.00031000    T
constrained gradient max            0.00584412     0.00010000    F
constrained gradient rms            0.00133575     0.00006667    F
gradient max                        0.00584412
gradient rms                        0.00133575
cart. step max                      0.03717495     0.01000000    F
cart. step rms                      0.00972091     0.00666667    F
 

--------
Geometry
--------
Formula: C12H11BrF6O
Atoms
  Index Symbol   x (angstrom)   y (angstrom)   z (angstrom)
      1      C    -0.06614648     0.91719917    -0.24762196
      2      C     0.57799342     0.06762664     0.32132860
      3      C     1.12191284    -0.65657921     1.44586881
      4     Br     0.06446722    -2.40545070     1.65542486
      5      C     2.64480840    -0.98012617     1.32554031
      6      C     3.23403269    -2.07262280     2.18911151
      7      O     3.31343287    -0.28050117     0.58649660
      8      C     0.88491477     0.24762371     2.70088349
      9      C    -0.57320988     0.56669694     3.12311508
     10      C    -1.65898257     0.96547246     2.08824484
     11      C    -1.44332255     2.25791763     1.25066500
     12      C    -1.02258701     2.02691729    -0.26337115
     13      C    -0.32821836     3.33259610    -0.79441036
     14      F     0.83646552     3.55067170    -0.10823968
     15      F    -0.01354382     3.26582342    -2.11609084
     16      F    -1.11602549     4.43214948    -0.60834254
     17      C    -2.27429946     1.67136918    -1.14264882
     18      F    -2.92254372     0.57923709    -0.63535337
     19      F    -3.17653248     2.69708813    -1.16865977
     20      F    -1.93969007     1.37839762    -2.42913071
     21      H     4.31951877    -1.95147001     2.22475494
     22      H     2.98773029    -3.05085628     1.75753280
     23      H     2.80981009    -2.06266660     3.19986391
     24      H     1.38562106    -0.21538768     3.56072257
     25      H     1.42916766     1.17365886     2.47234389
     26      H    -0.96596753    -0.31104296     3.65121095
     27      H    -0.49223871     1.36489381     3.87582248
     28      H    -2.57933783     1.10511149     2.67048142
     29      H    -1.85371490     0.11532958     1.43305878
     30      H    -2.34716987     2.87523873     1.25223510
     31      H    -0.64663487     2.86000455     1.69879326

Total System Charge              0.00000

 *** GO1_GOStep9 ***

 Energy gradients wrt nuclear displacements
 ==========================================

     Atom      Cartesian (a.u./angstrom)
                 X         Y         Z
 ----------------------------------------
     1 C     0.002557 -0.001537 -0.000496
     2 C     0.000020  0.000510 -0.000571
     3 C     0.000786 -0.001983 -0.000005
     4 Br   -0.000445 -0.000054  0.000705
     5 C    -0.000047 -0.002988  0.000718
     6 C    -0.000685  0.001684 -0.001958
     7 O     0.000157  0.001592  0.000910
     8 C    -0.002148  0.000763  0.000424
     9 C     0.000674  0.000459 -0.001223
    10 C     0.000974  0.000936 -0.000145
    11 C    -0.000843 -0.001388  0.000026
    12 C    -0.002435  0.002904  0.000680
    13 C    -0.001393  0.000235  0.001086
    14 F     0.000280 -0.000209 -0.000408
    15 F    -0.000297  0.000273 -0.000322
    16 F     0.001027 -0.001839 -0.000456
    17 C    -0.001315 -0.001068  0.001331
    18 F     0.000625  0.001251 -0.000756
    19 F     0.001436 -0.000355  0.000312
    20 F     0.000133  0.000483 -0.000544
    21 H     0.000013 -0.000245 -0.000022
    22 H    -0.000588 -0.000286  0.000231
    23 H     0.000051  0.000423  0.000466
    24 H     0.000137 -0.000244 -0.000106
    25 H     0.000352 -0.000377  0.000086
    26 H    -0.000325  0.000083  0.000042
    27 H     0.000084  0.000661 -0.000290
    28 H    -0.000134  0.000106  0.000292
    29 H     0.000845  0.000195  0.000004
    30 H     0.000249  0.000294  0.000040
    31 H     0.000255 -0.000276 -0.000049
 ----------------------------------------

 dE(predicted):    -0.13622E-03, dE(actual):    -0.17171E-03, Trust radius:    0.800000, all in a.u.
 
----------------------------------------------------------------------
Geometry Convergence after Step   9       (Hartree/Angstrom,Angstrom)
----------------------------------------------------------------------
current energy                               -6.32110665 Hartree
energy change                      -0.00017171     0.00031000    T
constrained gradient max            0.00289391     0.00010000    F
constrained gradient rms            0.00094448     0.00006667    F
gradient max                        0.00289391
gradient rms                        0.00094448
cart. step max                      0.09196644     0.01000000    F
cart. step rms                      0.01792482     0.00666667    F
 

--------
Geometry
--------
Formula: C12H11BrF6O
Atoms
  Index Symbol   x (angstrom)   y (angstrom)   z (angstrom)
      1      C    -0.07497365     0.92039138    -0.24606422
      2      C     0.57615747     0.07244830     0.31584299
      3      C     1.12657165    -0.65154566     1.43709515
      4     Br     0.07597276    -2.40848578     1.63275527
      5      C     2.64143457    -0.99715144     1.30145879
      6      C     3.23411438    -2.05361498     2.21154414
      7      O     3.30322086    -0.36991934     0.49453016
      8      C     0.88743241     0.24521403     2.69531662
      9      C    -0.57366852     0.55947747     3.12082763
     10      C    -1.66064116     0.95874437     2.08705188
     11      C    -1.44738444     2.25690062     1.25535004
     12      C    -1.02564039     2.03268492    -0.25950941
     13      C    -0.32420013     3.33769938    -0.78570425
     14      F     0.83886426     3.55121949    -0.09386638
     15      F    -0.00448871     3.27145081    -2.10668140
     16      F    -1.10789445     4.44213160    -0.59940928
     17      C    -2.27646788     1.67950881    -1.14190015
     18      F    -2.93938172     0.60153345    -0.61998321
     19      F    -3.17075999     2.71380968    -1.19029780
     20      F    -1.93758422     1.36089518    -2.42138713
     21      H     4.31753197    -1.91772119     2.25428564
     22      H     3.00998902    -3.04710211     1.80365535
     23      H     2.79955526    -2.02362397     3.21657976
     24      H     1.38933047    -0.21774935     3.55392290
     25      H     1.42612696     1.17618741     2.47159825
     26      H    -0.96107775    -0.31902616     3.65107108
     27      H    -0.49146766     1.35688753     3.87402319
     28      H    -2.58444533     1.08808377     2.66547797
     29      H    -1.85108260     0.11186310     1.42642540
     30      H    -2.35229112     2.87252666     1.25954542
     31      H    -0.65314232     2.86060203     1.70607559

Total System Charge              0.00000

 *** GO1_GOStep10 ***

 Energy gradients wrt nuclear displacements
 ==========================================

     Atom      Cartesian (a.u./angstrom)
                 X         Y         Z
 ----------------------------------------
     1 C     0.001249 -0.002330  0.000663
     2 C    -0.001750  0.001367 -0.001286
     3 C     0.001896 -0.001841 -0.000297
     4 Br    0.000142  0.000020  0.000032
     5 C    -0.000625  0.000488  0.002368
     6 C    -0.000645  0.000138 -0.002204
     7 O     0.000793  0.000273 -0.000300
     8 C    -0.000842  0.000425  0.000382
     9 C    -0.001043 -0.000000 -0.000725
    10 C     0.000541  0.001244  0.000372
    11 C    -0.000302 -0.001677 -0.000384
    12 C    -0.001135  0.002159  0.001024
    13 C    -0.000984 -0.001199  0.000705
    14 F     0.000954  0.000339  0.000274
    15 F     0.000421  0.000209 -0.001379
    16 F     0.000292  0.000269  0.000121
    17 C     0.000768 -0.001183  0.001267
    18 F     0.000084  0.000127  0.000100
    19 F    -0.000800  0.001179 -0.000092
    20 F     0.000084 -0.000396 -0.001372
    21 H    -0.000310 -0.000363 -0.000073
    22 H    -0.000509 -0.000363  0.000673
    23 H     0.000097  0.000136  0.000158
    24 H    -0.000016 -0.000076 -0.000109
    25 H     0.000210  0.000015  0.000220
    26 H     0.000127  0.000481  0.000585
    27 H     0.000340  0.000419 -0.000336
    28 H    -0.000212 -0.000709 -0.000406
    29 H     0.000359  0.000246 -0.000011
    30 H     0.000622  0.000372  0.000104
    31 H     0.000194  0.000233 -0.000075
 ----------------------------------------

 dE(predicted):    -0.13966E-03, dE(actual):    -0.14497E-03, Trust radius:    0.800000, all in a.u.
 
----------------------------------------------------------------------
Geometry Convergence after Step  10       (Hartree/Angstrom,Angstrom)
----------------------------------------------------------------------
current energy                               -6.32125161 Hartree
energy change                      -0.00014497     0.00031000    T
constrained gradient max            0.00234891     0.00010000    F
constrained gradient rms            0.00083954     0.00006667    F
gradient max                        0.00234891
gradient rms                        0.00083954
cart. step max                      0.09766782     0.01000000    F
cart. step rms                      0.01994163     0.00666667    F
 

--------
Geometry
--------
Formula: C12H11BrF6O
Atoms
  Index Symbol   x (angstrom)   y (angstrom)   z (angstrom)
      1      C    -0.08107229     0.92361923    -0.24622092
      2      C     0.57353917     0.07374273     0.30808026
      3      C     1.12496026    -0.65428999     1.42532398
      4     Br     0.07405067    -2.41441317     1.61216913
      5      C     2.63155708    -1.02287622     1.27394110
      6      C     3.23665303    -2.02776056     2.23769781
      7      O     3.27916873    -0.46758717     0.40561335
      8      C     0.89124683     0.23651062     2.68663807
      9      C    -0.57042120     0.54916453     3.11872123
     10      C    -1.66110375     0.95421040     2.09020576
     11      C    -1.44980002     2.25612177     1.26124869
     12      C    -1.02786748     2.03704468    -0.25516159
     13      C    -0.32315083     3.34244649    -0.77771152
     14      F     0.83819307     3.55373176    -0.08185488
     15      F    -0.00079444     3.27346578    -2.09762555
     16      F    -1.10709600     4.44842008    -0.59384452
     17      C    -2.27620084     1.69115622    -1.14440343
     18      F    -2.95436728     0.62231211    -0.62063226
     19      F    -3.16093945     2.73359779    -1.20801676
     20      F    -1.92852493     1.36070314    -2.41802614
     21      H     4.31559766    -1.86196182     2.29010485
     22      H     3.04945000    -3.04020753     1.85892858
     23      H     2.78657643    -1.97694620     3.23422741
     24      H     1.39528110    -0.22824154     3.54258257
     25      H     1.42691895     1.17006008     2.46517290
     26      H    -0.95498141    -0.33234645     3.64574019
     27      H    -0.48506871     1.34178679     3.87643868
     28      H    -2.58300531     1.08222285     2.67160834
     29      H    -1.85637399     0.11033815     1.42712771
     30      H    -2.35595907     2.87005811     1.26806673
     31      H    -0.65675599     2.86023735     1.71349022

Total System Charge              0.00000

 *** GO1_GOStep11 ***

 Energy gradients wrt nuclear displacements
 ==========================================

     Atom      Cartesian (a.u./angstrom)
                 X         Y         Z
 ----------------------------------------
     1 C     0.000296 -0.002010  0.000826
     2 C    -0.001544  0.001597 -0.001138
     3 C     0.001586 -0.001381 -0.000629
     4 Br   -0.000248 -0.000049 -0.000410
     5 C    -0.000410  0.002418  0.001708
     6 C    -0.000019 -0.000736 -0.001131
     7 O     0.000019 -0.000383 -0.000484
     8 C     0.000927  0.000063  0.000048
     9 C    -0.002105 -0.000085 -0.000097
    10 C     0.000127  0.000735  0.000969
    11 C     0.000140 -0.001076 -0.000289
    12 C     0.000131  0.000608  0.000781
    13 C    -0.000075 -0.001002  0.000138
    14 F     0.001316 -0.000035  0.000735
    15 F     0.000050 -0.000616 -0.001425
    16 F    -0.001092  0.001324  0.000131
    17 C     0.001736 -0.000765  0.000433
    18 F    -0.000524 -0.000693  0.000352
    19 F    -0.001352  0.001943 -0.000491
    20 F     0.000401 -0.000255 -0.001003
    21 H    -0.000389 -0.000307 -0.000162
    22 H    -0.000482 -0.000262  0.000885
    23 H     0.000004 -0.000051  0.000081
    24 H     0.000026 -0.000171 -0.000073
    25 H     0.000068  0.000208  0.000200
    26 H     0.000338  0.000632  0.000688
    27 H     0.000459  0.000201 -0.000241
    28 H    -0.000201 -0.000956 -0.000738
    29 H     0.000045  0.000330  0.000228
    30 H     0.000639  0.000448  0.000203
    31 H     0.000131  0.000325 -0.000096
 ----------------------------------------

 dE(predicted):    -0.82364E-04, dE(actual):    -0.63996E-04, Trust radius:    0.800000, all in a.u.
 
----------------------------------------------------------------------
Geometry Convergence after Step  11       (Hartree/Angstrom,Angstrom)
----------------------------------------------------------------------
current energy                               -6.32131561 Hartree
energy change                      -0.00006400     0.00031000    T
constrained gradient max            0.00250998     0.00010000    F
constrained gradient rms            0.00081395     0.00006667    F
gradient max                        0.00250998
gradient rms                        0.00081395
cart. step max                      0.05536234     0.01000000    F
cart. step rms                      0.01336847     0.00666667    F
 

--------
Geometry
--------
Formula: C12H11BrF6O
Atoms
  Index Symbol   x (angstrom)   y (angstrom)   z (angstrom)
      1      C    -0.08516933     0.92324528    -0.24605668
      2      C     0.57030756     0.07046381     0.30394716
      3      C     1.12284267    -0.65789620     1.41964195
      4     Br     0.07887604    -2.42237312     1.60862510
      5      C     2.62520723    -1.04037945     1.25699175
      6      C     3.24165339    -2.01208405     2.25040693
      7      O     3.26351494    -0.52294951     0.35926030
      8      C     0.89061472     0.23127621     2.68055129
      9      C    -0.57207738     0.53952172     3.11418422
     10      C    -1.66441932     0.95853344     2.09146927
     11      C    -1.44916533     2.26101836     1.26271868
     12      C    -1.02673407     2.03960405    -0.25404442
     13      C    -0.31666198     3.34327407    -0.77617942
     14      F     0.83946799     3.55548148    -0.07315159
     15      F     0.01529437     3.27047657    -2.09264629
     16      F    -1.09940991     4.45151011    -0.60065450
     17      C    -2.27832484     1.69640113    -1.14025587
     18      F    -2.95843296     0.63125366    -0.61029780
     19      F    -3.16089125     2.73962886    -1.20516794
     20      F    -1.93445381     1.35966764    -2.41240749
     21      H     4.31375436    -1.81099763     2.32173067
     22      H     3.09838778    -3.03342435     1.87625888
     23      H     2.77008595    -1.96623839     3.23661547
     24      H     1.39574533    -0.23165715     3.53652453
     25      H     1.42254605     1.16684939     2.45862021
     26      H    -0.95753958    -0.34996644     3.62704100
     27      H    -0.48802749     1.32057379     3.88383737
     28      H    -2.58024656     1.09675584     2.68021578
     29      H    -1.87407603     0.11821435     1.42783625
     30      H    -2.35629548     2.87383480     1.26792238
     31      H    -0.65666306     2.86470171     1.71609279

Total System Charge              0.00000

 *** GO1_GOStep12 ***

 Energy gradients wrt nuclear displacements
 ==========================================

     Atom      Cartesian (a.u./angstrom)
                 X         Y         Z
 ----------------------------------------
     1 C    -0.001639 -0.000044 -0.000180
     2 C     0.000407  0.000077  0.000184
     3 C     0.000552 -0.000232 -0.000211
     4 Br    0.000114  0.000044 -0.000268
     5 C    -0.000888  0.001105 -0.000721
     6 C     0.000590 -0.001016  0.000197
     7 O    -0.000007  0.000085 -0.000107
     8 C     0.001690 -0.000327 -0.000164
     9 C    -0.002061  0.000074  0.000346
    10 C    -0.000369  0.000179  0.000926
    11 C     0.000266  0.000022 -0.000272
    12 C     0.001127 -0.000792  0.000227
    13 C     0.000680 -0.000986 -0.000303
    14 F     0.000370  0.000223  0.000144
    15 F     0.000344 -0.000172 -0.000257
    16 F    -0.000535  0.001500  0.000107
    17 C     0.001544 -0.000265 -0.000427
    18 F    -0.000477 -0.000528  0.000715
    19 F    -0.001304  0.001140 -0.000329
    20 F     0.000027 -0.000461 -0.000037
    21 H    -0.000200 -0.000250 -0.000130
    22 H    -0.000509 -0.000032  0.000687
    23 H    -0.000013 -0.000074  0.000134
    24 H    -0.000099 -0.000123 -0.000066
    25 H    -0.000116  0.000173  0.000077
    26 H     0.000310  0.000454  0.000394
    27 H     0.000270  0.000057 -0.000044
    28 H    -0.000113 -0.000509 -0.000640
    29 H    -0.000310  0.000109 -0.000089
    30 H     0.000241  0.000301  0.000234
    31 H     0.000108  0.000269 -0.000127
 ----------------------------------------

 dE(predicted):    -0.61694E-04, dE(actual):    -0.57922E-04, Trust radius:    0.800000, all in a.u.
 
----------------------------------------------------------------------
Geometry Convergence after Step  12       (Hartree/Angstrom,Angstrom)
----------------------------------------------------------------------
current energy                               -6.32137353 Hartree
energy change                      -0.00005792     0.00031000    T
constrained gradient max            0.00207225     0.00010000    F
constrained gradient rms            0.00058321     0.00006667    F
gradient max                        0.00207225
gradient rms                        0.00058321
cart. step max                      0.06343096     0.01000000    F
cart. step rms                      0.01334121     0.00666667    F
 

--------
Geometry
--------
Formula: C12H11BrF6O
Atoms
  Index Symbol   x (angstrom)   y (angstrom)   z (angstrom)
      1      C    -0.08458674     0.92570279    -0.24721681
      2      C     0.56993991     0.06977547     0.29955200
      3      C     1.12103741    -0.66031564     1.41463485
      4     Br     0.07195167    -2.42165691     1.61288257
      5      C     2.61819259    -1.06230058     1.24558342
      6      C     3.24042634    -2.00433059     2.26517249
      7      O     3.25043957    -0.58638047     0.32138235
      8      C     0.89602303     0.23132750     2.67318706
      9      C    -0.56509676     0.53632724     3.11110388
     10      C    -1.66190060     0.96010994     2.09426216
     11      C    -1.45114316     2.26189906     1.26264933
     12      C    -1.02708218     2.04099264    -0.25428782
     13      C    -0.31868527     3.34716641    -0.77271216
     14      F     0.83491198     3.55949452    -0.06666405
     15      F     0.01546019     3.27781843    -2.08811703
     16      F    -1.10435889     4.45216887    -0.59592281
     17      C    -2.27810466     1.70118236    -1.14283012
     18      F    -2.95559616     0.62976625    -0.62254333
     19      F    -3.16221167     2.74169769    -1.19879393
     20      F    -1.93311687     1.37673208    -2.41717100
     21      H     4.30267114    -1.76450985     2.36358857
     22      H     3.14842306    -3.03058114     1.88776449
     23      H     2.74123468    -1.97287914     3.23763632
     24      H     1.40442474    -0.22786242     3.52899302
     25      H     1.42530133     1.16721099     2.44636099
     26      H    -0.94947795    -0.35914401     3.61468123
     27      H    -0.48241420     1.31028034     3.88792809
     28      H    -2.57039756     1.10671383     2.69271494
     29      H    -1.88190060     0.11969053     1.43394645
     30      H    -2.36243889     2.86871002     1.26531371
     31      H    -0.66221551     2.86951382     1.71655112

Total System Charge              0.00000

 *** GO1_GOStep13 ***

 Energy gradients wrt nuclear displacements
 ==========================================

     Atom      Cartesian (a.u./angstrom)
                 X         Y         Z
 ----------------------------------------
     1 C    -0.001579  0.000680 -0.000341
     2 C     0.001102  0.000023  0.000706
     3 C    -0.000793  0.000293 -0.000234
     4 Br   -0.000075  0.000195  0.000151
     5 C    -0.000506  0.000142 -0.001396
     6 C     0.001266 -0.000751  0.001075
     7 O     0.000001 -0.000030  0.000296
     8 C     0.001794 -0.000625 -0.000562
     9 C    -0.001290  0.000396  0.000657
    10 C    -0.000223 -0.000826  0.000568
    11 C     0.000431  0.000961 -0.000117
    12 C     0.001165 -0.001362 -0.000290
    13 C     0.001154  0.000249 -0.000639
    14 F    -0.000608 -0.000132 -0.000091
    15 F    -0.000137 -0.000316  0.000491
    16 F    -0.000212  0.000467  0.000092
    17 C     0.000595  0.000640 -0.001084
    18 F    -0.000557 -0.000181  0.000114
    19 F    -0.000095 -0.000110 -0.000262
    20 F    -0.000204  0.000038  0.000936
    21 H    -0.000153 -0.000254 -0.000192
    22 H    -0.000532 -0.000021  0.000294
    23 H    -0.000078  0.000065  0.000047
    24 H    -0.000321 -0.000014 -0.000021
    25 H    -0.000173  0.000098 -0.000055
    26 H     0.000113  0.000077 -0.000087
    27 H     0.000076 -0.000024  0.000131
    28 H     0.000054  0.000191 -0.000129
    29 H    -0.000198 -0.000040  0.000029
    30 H    -0.000153  0.000172  0.000041
    31 H     0.000133 -0.000001 -0.000126
 ----------------------------------------

 dE(predicted):    -0.49276E-04, dE(actual):    -0.11720E-03, Trust radius:    0.800000, all in a.u.
 
----------------------------------------------------------------------
Geometry Convergence after Step  13       (Hartree/Angstrom,Angstrom)
----------------------------------------------------------------------
current energy                               -6.32149073 Hartree
energy change                      -0.00011720     0.00031000    T
constrained gradient max            0.00180000     0.00010000    F
constrained gradient rms            0.00056454     0.00006667    F
gradient max                        0.00180000
gradient rms                        0.00056454
cart. step max                      0.04767127     0.01000000    F
cart. step rms                      0.01021504     0.00666667    F
 

--------
Geometry
--------
Formula: C12H11BrF6O
Atoms
  Index Symbol   x (angstrom)   y (angstrom)   z (angstrom)
      1      C    -0.08290252     0.92631563    -0.24813887
      2      C     0.56981152     0.06789151     0.29698480
      3      C     1.11909135    -0.66247120     1.41307168
      4     Br     0.07122349    -2.42501942     1.61180986
      5      C     2.61456487    -1.07024106     1.24358122
      6      C     3.23750737    -2.00220867     2.27145174
      7      O     3.24537508    -0.60878996     0.31127835
      8      C     0.89631334     0.23034312     2.67021414
      9      C    -0.56286907     0.53555912     3.10887267
     10      C    -1.66038376     0.96439319     2.09477475
     11      C    -1.44949459     2.26472211     1.26208360
     12      C    -1.02550702     2.04223079    -0.25460466
     13      C    -0.31805553     3.34780613    -0.77548037
     14      F     0.83889328     3.55893946    -0.07457337
     15      F     0.01120938     3.27957478    -2.09207625
     16      F    -1.10225348     4.45238754    -0.59575404
     17      C    -2.27909195     1.70140710    -1.13877477
     18      F    -2.94641037     0.62253447    -0.62181228
     19      F    -3.16787011     2.73746202    -1.18095253
     20      F    -1.93967004     1.38847392    -2.41764649
     21      H     4.28771058    -1.72708122     2.40396544
     22      H     3.19609433    -3.02485679     1.87526203
     23      H     2.71012984    -2.00240755     3.22906898
     24      H     1.40638619    -0.22663268     3.52623468
     25      H     1.42559936     1.16560199     2.44093193
     26      H    -0.94918622    -0.36214717     3.60734103
     27      H    -0.48034751     1.30583758     3.88926865
     28      H    -2.56471159     1.11696482     2.69840511
     29      H    -1.88693465     0.12461159     1.43586024
     30      H    -2.36223977     2.86916954     1.26243434
     31      H    -0.66227183     2.87394932     1.71654839

Total System Charge              0.00000

 *** GO1_GOStep14 ***

 Energy gradients wrt nuclear displacements
 ==========================================

     Atom      Cartesian (a.u./angstrom)
                 X         Y         Z
 ----------------------------------------
     1 C    -0.001024  0.000379 -0.000334
     2 C     0.001358  0.000115  0.000363
     3 C    -0.001432  0.000408  0.000281
     4 Br   -0.000036 -0.000097  0.000213
     5 C     0.000220 -0.000150 -0.001228
     6 C     0.001150 -0.000394  0.001117
     7 O    -0.000277 -0.000250  0.000505
     8 C     0.001101 -0.000613 -0.000581
     9 C    -0.000379  0.000504  0.000479
    10 C    -0.000054 -0.000798  0.000012
    11 C     0.000146  0.001019  0.000035
    12 C     0.000480 -0.000828 -0.000369
    13 C     0.000821  0.000786 -0.000356
    14 F    -0.000541 -0.000154 -0.000547
    15 F    -0.000220 -0.000016  0.000791
    16 F     0.000326 -0.000364 -0.000212
    17 C    -0.000762  0.000756 -0.000956
    18 F    -0.000017  0.000070  0.000297
    19 F     0.000791 -0.000612  0.000148
    20 F     0.000062  0.000142  0.000804
    21 H    -0.000297 -0.000204 -0.000207
    22 H    -0.000474 -0.000117  0.000011
    23 H    -0.000082  0.000077  0.000077
    24 H    -0.000333  0.000183  0.000001
    25 H    -0.000179 -0.000021 -0.000064
    26 H    -0.000045 -0.000116 -0.000326
    27 H    -0.000059 -0.000011  0.000070
    28 H     0.000146  0.000608  0.000260
    29 H    -0.000083 -0.000071 -0.000105
    30 H    -0.000295 -0.000068 -0.000124
    31 H    -0.000016 -0.000162 -0.000054
 ----------------------------------------

 dE(predicted):    -0.28043E-04, dE(actual):    -0.66864E-04, Trust radius:    0.800000, all in a.u.
 
----------------------------------------------------------------------
Geometry Convergence after Step  14       (Hartree/Angstrom,Angstrom)
----------------------------------------------------------------------
current energy                               -6.32155759 Hartree
energy change                      -0.00006686     0.00031000    T
constrained gradient max            0.00138830     0.00010000    F
constrained gradient rms            0.00050317     0.00006667    F
gradient max                        0.00138830
gradient rms                        0.00050317
cart. step max                      0.04151263     0.01000000    F
cart. step rms                      0.00936840     0.00666667    F
 

--------
Geometry
--------
Formula: C12H11BrF6O
Atoms
  Index Symbol   x (angstrom)   y (angstrom)   z (angstrom)
      1      C    -0.08347461     0.92455164    -0.24853833
      2      C     0.56712726     0.06516398     0.29709693
      3      C     1.11740780    -0.66291149     1.41440166
      4     Br     0.07077963    -2.42589288     1.61553679
      5      C     2.61301996    -1.06884152     1.24597152
      6      C     3.23230220    -2.00633905     2.26933743
      7      O     3.24663544    -0.60070133     0.31866115
      8      C     0.89689896     0.23222999     2.67037791
      9      C    -0.55988823     0.53932085     3.11010707
     10      C    -1.65828230     0.96831250     2.09698853
     11      C    -1.44793278     2.26574007     1.26104736
     12      C    -1.02622695     2.04095092    -0.25568966
     13      C    -0.31760178     3.34498685    -0.77749763
     14      F     0.84025692     3.55411275    -0.07679092
     15      F     0.01192311     3.27700662    -2.09448283
     16      F    -1.09991454     4.45035895    -0.59716362
     17      C    -2.28067112     1.69935835    -1.13840804
     18      F    -2.93993723     0.61270524    -0.62868298
     19      F    -3.17537167     2.73059920    -1.16946933
     20      F    -1.94528458     1.39856078    -2.42176783
     21      H     4.27070020    -1.70563999     2.43766072
     22      H     3.23310258    -3.01966349     1.84765118
     23      H     2.67981615    -2.04392018     3.21178450
     24      H     1.40955847    -0.22305842     3.52604547
     25      H     1.42721267     1.16611436     2.43775570
     26      H    -0.94740549    -0.35700186     3.61038609
     27      H    -0.47597361     1.31067740     3.88927970
     28      H    -2.56076600     1.12368473     2.70280287
     29      H    -1.88756283     0.12733133     1.44076789
     30      H    -2.36032414     2.87035416     1.26090713
     31      H    -0.66041348     2.87616952     1.71355356

Total System Charge              0.00000

 *** GO1_GOStep15 ***

 Energy gradients wrt nuclear displacements
 ==========================================

     Atom      Cartesian (a.u./angstrom)
                 X         Y         Z
 ----------------------------------------
     1 C    -0.000041 -0.000197  0.000176
     2 C     0.000762  0.000469 -0.000335
     3 C    -0.001255  0.000362  0.000818
     4 Br    0.000120 -0.000260  0.000252
     5 C     0.000531 -0.000449 -0.000306
     6 C     0.000111 -0.000130  0.000209
     7 O    -0.000074 -0.000041  0.000085
     8 C    -0.000094 -0.000332 -0.000269
     9 C     0.000443  0.000333  0.000076
    10 C     0.000238 -0.000371 -0.000234
    11 C     0.000097  0.000546 -0.000053
    12 C    -0.000275 -0.000037 -0.000096
    13 C     0.000144  0.000679  0.000050
    14 F    -0.000330 -0.000243 -0.000390
    15 F     0.000020  0.000060  0.000215
    16 F     0.000615 -0.000627 -0.000098
    17 C    -0.000652  0.000664 -0.000095
    18 F     0.000069  0.000310 -0.000332
    19 F     0.000815 -0.000954  0.000050
    20 F    -0.000267  0.000002  0.000314
    21 H    -0.000136 -0.000092 -0.000129
    22 H    -0.000364 -0.000216 -0.000107
    23 H    -0.000101  0.000046  0.000151
    24 H    -0.000164  0.000268  0.000053
    25 H    -0.000076 -0.000101 -0.000053
    26 H    -0.000129 -0.000161 -0.000281
    27 H    -0.000103 -0.000004  0.000007
    28 H     0.000154  0.000642  0.000404
    29 H     0.000053  0.000092  0.000077
    30 H    -0.000095 -0.000177 -0.000208
    31 H    -0.000016 -0.000080  0.000048
 ----------------------------------------

 dE(predicted):    -0.20074E-04, dE(actual):    -0.21310E-04, Trust radius:    0.800000, all in a.u.
 
----------------------------------------------------------------------
Geometry Convergence after Step  15       (Hartree/Angstrom,Angstrom)
----------------------------------------------------------------------
current energy                               -6.32157890 Hartree
energy change                      -0.00002131     0.00031000    T
constrained gradient max            0.00120781     0.00010000    F
constrained gradient rms            0.00033970     0.00006667    F
gradient max                        0.00120781
gradient rms                        0.00033970
cart. step max                      0.06514149     0.01000000    F
cart. step rms                      0.01349489     0.00666667    F
 

--------
Geometry
--------
Formula: C12H11BrF6O
Atoms
  Index Symbol   x (angstrom)   y (angstrom)   z (angstrom)
      1      C    -0.08590625     0.92389624    -0.25030324
      2      C     0.56287426     0.06151142     0.29245805
      3      C     1.11452549    -0.66721674     1.40896317
      4     Br     0.06540180    -2.43007840     1.60766469
      5      C     2.60644426    -1.07984967     1.23951299
      6      C     3.22704689    -1.99763303     2.27909053
      7      O     3.23814126    -0.63487966     0.29924419
      8      C     0.89804846     0.22725933     2.66571543
      9      C    -0.55569397     0.53925039     3.10852868
     10      C    -1.65503718     0.96888198     2.09699858
     11      C    -1.44464268     2.26614495     1.26233038
     12      C    -1.02680406     2.04242400    -0.25518374
     13      C    -0.31723168     3.34482166    -0.77836377
     14      F     0.84354370     3.55197200    -0.08049322
     15      F     0.00895748     3.27736225    -2.09676106
     16      F    -1.09710972     4.45143130    -0.59542421
     17      C    -2.28368125     1.70279814    -1.13495513
     18      F    -2.93930639     0.61325590    -0.62739063
     19      F    -3.17948882     2.73413459    -1.15819170
     20      F    -1.95298564     1.40853367    -2.42174506
     21      H     4.24313490    -1.65056297     2.49184113
     22      H     3.29824407    -3.00334714     1.84528171
     23      H     2.64199352    -2.07433981     3.19863441
     24      H     1.41272411    -0.22960420     3.51953940
     25      H     1.43130869     1.15950179     2.43229368
     26      H    -0.94461305    -0.35368814     3.61383815
     27      H    -0.46737837     1.31325765     3.88463018
     28      H    -2.55756898     1.12227530     2.70316975
     29      H    -1.88435228     0.12848592     1.44017321
     30      H    -2.35544393     2.87282175     1.26484759
     31      H    -0.65543465     2.87549953     1.71368583

Total System Charge              0.00000

 *** GO1_GOStep16 ***

 Energy gradients wrt nuclear displacements
 ==========================================

     Atom      Cartesian (a.u./angstrom)
                 X         Y         Z
 ----------------------------------------
     1 C     0.000409 -0.000778  0.000705
     2 C    -0.000055  0.000649 -0.000805
     3 C    -0.000194 -0.000172  0.001182
     4 Br   -0.000173 -0.000363  0.000086
     5 C     0.000308 -0.000395  0.000571
     6 C    -0.001043  0.000773 -0.000042
     7 O     0.000316 -0.000024 -0.000397
     8 C    -0.001078 -0.000183 -0.000135
     9 C     0.000966  0.000040 -0.000427
    10 C     0.000449  0.000365 -0.000422
    11 C    -0.000067 -0.000313 -0.000134
    12 C    -0.000823  0.000807  0.000188
    13 C    -0.000527  0.000120  0.000364
    14 F     0.000352 -0.000057 -0.000032
    15 F     0.000150  0.000133 -0.000609
    16 F     0.000547 -0.000576 -0.000093
    17 C    -0.000477  0.000079  0.000684
    18 F     0.000238  0.000147 -0.000151
    19 F     0.000524 -0.000253  0.000045
    20 F    -0.000025 -0.000043 -0.000601
    21 H    -0.000002 -0.000131 -0.000131
    22 H    -0.000141 -0.000220 -0.000115
    23 H    -0.000091 -0.000158 -0.000010
    24 H     0.000170  0.000168  0.000093
    25 H     0.000094 -0.000076 -0.000018
    26 H    -0.000121 -0.000062 -0.000063
    27 H    -0.000052  0.000033 -0.000080
    28 H     0.000115  0.000387  0.000333
    29 H     0.000086  0.000204  0.000105
    30 H     0.000190 -0.000201 -0.000201
    31 H    -0.000043  0.000102  0.000109
 ----------------------------------------

 dE(predicted):    -0.18874E-04, dE(actual):    -0.41720E-04, Trust radius:    0.800000, all in a.u.
 
----------------------------------------------------------------------
Geometry Convergence after Step  16       (Hartree/Angstrom,Angstrom)
----------------------------------------------------------------------
current energy                               -6.32162062 Hartree
energy change                      -0.00004172     0.00031000    T
constrained gradient max            0.00115815     0.00010000    F
constrained gradient rms            0.00039320     0.00006667    F
gradient max                        0.00115815
gradient rms                        0.00039320
cart. step max                      0.00566137     0.01000000    T
cart. step rms                      0.00201808     0.00666667    T
 

--------
Geometry
--------
Formula: C12H11BrF6O
Atoms
  Index Symbol   x (angstrom)   y (angstrom)   z (angstrom)
      1      C    -0.08581984     0.92460825    -0.25023567
      2      C     0.56306642     0.06251206     0.29301674
      3      C     1.11496144    -0.66658034     1.40892423
      4     Br     0.06421431    -2.42856412     1.60649672
      5      C     2.60646824    -1.08025306     1.23913945
      6      C     3.22916123    -1.99794950     2.27829414
      7      O     3.23681123    -0.63622736     0.29773597
      8      C     0.89760656     0.22701583     2.66666569
      9      C    -0.55701450     0.53940899     3.10910226
     10      C    -1.65587839     0.96751169     2.09629933
     11      C    -1.44440990     2.26584278     1.26295046
     12      C    -1.02674940     2.04277817    -0.25482533
     13      C    -0.31784401     3.34551030    -0.77818216
     14      F     0.84136865     3.55517933    -0.07850871
     15      F     0.01072760     3.27572557    -2.09569578
     16      F    -1.09952612     4.45189893    -0.59857475
     17      C    -2.28352100     1.70336315    -1.13491589
     18      F    -2.94273899     0.61725266    -0.62422540
     19      F    -3.17749045     2.73673163    -1.16320015
     20      F    -1.95130367     1.40363912    -2.41985807
     21      H     4.24696950    -1.65331900     2.48647188
     22      H     3.29538583    -3.00518827     1.84748834
     23      H     2.64765490    -2.07023640     3.20048092
     24      H     1.41094855    -0.23153848     3.52031679
     25      H     1.43141544     1.15938694     2.43489510
     26      H    -0.94554490    -0.35246661     3.61639832
     27      H    -0.46846949     1.31482309     3.88384720
     28      H    -2.56040296     1.11834630     2.69995310
     29      H    -1.88252942     0.12722485     1.43830851
     30      H    -2.35407582     2.87443797     1.26693389
     31      H    -0.65373103     2.87344554     1.71413293

Total System Charge              0.00000

 *** GO1_GOStep17 ***

 Energy gradients wrt nuclear displacements
 ==========================================

     Atom      Cartesian (a.u./angstrom)
                 X         Y         Z
 ----------------------------------------
     1 C     0.000077 -0.000463  0.000515
     2 C    -0.000131  0.000348 -0.000474
     3 C     0.000195 -0.000114  0.000494
     4 Br   -0.000275 -0.000164  0.000007
     5 C     0.000202 -0.000120  0.000368
     6 C    -0.000472  0.000437 -0.000128
     7 O    -0.000100 -0.000219  0.000019
     8 C    -0.000740 -0.000089 -0.000040
     9 C     0.000628 -0.000013 -0.000302
    10 C     0.000210  0.000344 -0.000222
    11 C    -0.000023 -0.000278 -0.000119
    12 C    -0.000267  0.000348  0.000025
    13 C    -0.000315 -0.000024  0.000175
    14 F     0.000389 -0.000053  0.000000
    15 F     0.000123 -0.000023 -0.000393
    16 F     0.000178 -0.000153 -0.000096
    17 C    -0.000106  0.000004  0.000447
    18 F     0.000101  0.000065  0.000002
    19 F     0.000109  0.000134  0.000001
    20 F     0.000062 -0.000052 -0.000435
    21 H    -0.000009 -0.000199 -0.000032
    22 H    -0.000103 -0.000210  0.000045
    23 H    -0.000031 -0.000115 -0.000037
    24 H     0.000100  0.000093  0.000052
    25 H     0.000108 -0.000011 -0.000026
    26 H    -0.000083  0.000049  0.000039
    27 H    -0.000003  0.000047 -0.000028
    28 H     0.000059  0.000199  0.000135
    29 H    -0.000046  0.000135  0.000066
    30 H     0.000157 -0.000053 -0.000081
    31 H     0.000006  0.000153  0.000026
 ----------------------------------------

 dE(predicted):    -0.63066E-05, dE(actual):    -0.63165E-05, Trust radius:    0.800000, all in a.u.
 
----------------------------------------------------------------------
Geometry Convergence after Step  17       (Hartree/Angstrom,Angstrom)
----------------------------------------------------------------------
current energy                               -6.32162694 Hartree
energy change                      -0.00000632     0.00031000    T
constrained gradient max            0.00073405     0.00010000    F
constrained gradient rms            0.00021846     0.00006667    F
gradient max                        0.00073405
gradient rms                        0.00021846
cart. step max                      0.00400083     0.01000000    T
cart. step rms                      0.00148632     0.00666667    T
 

--------
Geometry
--------
Formula: C12H11BrF6O
Atoms
  Index Symbol   x (angstrom)   y (angstrom)   z (angstrom)
      1      C    -0.08520547     0.92589274    -0.25115302
      2      C     0.56336780     0.06377854     0.29271519
      3      C     1.11491065    -0.66568340     1.40820177
      4     Br     0.06382309    -2.42744209     1.60576409
      5      C     2.60564110    -1.08134360     1.23778513
      6      C     3.22868736    -1.99813031     2.27824812
      7      O     3.23581594    -0.63919219     0.29532634
[...]
      8      C    0.4283
      9      C    0.4521
     10      C    0.4165
     11      C    0.4026
     12      C   -0.2231
     13      C    1.2375
     14      F   -0.4047
     15      F   -0.3951
     16      F   -0.4054
     17      C    1.2432
     18      F   -0.4087
     19      F   -0.4052
     20      F   -0.3922
     21      H   -0.1905
     22      H   -0.1534
     23      H   -0.2110
     24      H   -0.1889
     25      H   -0.1853
     26      H   -0.1961
     27      H   -0.2133
     28      H   -0.2041
     29      H   -0.1654
     30      H   -0.1686
     31      H   -0.1888


Dipole moment vector    (Debye):    -0.13449359   -0.62450332    5.42933426
              magnitude (Debye):     5.46678730


-----------------------
Molecular orbitals info
-----------------------
n orbitals:              671
n spin:                    1

Note: only printing virtual orbitals with
      energy smaller than HOMO + 100. eV

HOMO (eV):              -6.3616
LUMO (eV):              -3.1461
HOMO-LUMO gap (eV):      3.2154

   Index   Energy (eV)    Occupation
     426       93.6059         0.000       
     425       93.4339         0.000       
     424       93.1461         0.000       
     423       92.8045         0.000       
     422       92.5647         0.000       
     421       92.5359         0.000       
     420       92.2934         0.000       
     419       92.0763         0.000       
     418       91.7248         0.000       
     417       91.5399         0.000       
     416       91.3193         0.000       
     415       91.0727         0.000       
     414       91.0089         0.000       
     413       90.3615         0.000       
     412       90.0554         0.000       
     411       89.6872         0.000       
     410       89.3627         0.000       
     409       88.9322         0.000       
     408       88.7366         0.000       
     407       88.6135         0.000       
     406       88.2611         0.000       
     405       88.1658         0.000       
     404       87.8195         0.000       
     403       87.4748         0.000       
     402       86.7635         0.000       
     401       86.2332         0.000       
     400       85.8619         0.000       
     399       85.1511         0.000       
     398       84.9669         0.000       
     397       84.0617         0.000       
     396       83.5750         0.000       
     395       83.4226         0.000       
     394       82.7922         0.000       
     393       82.6568         0.000       
     392       82.3328         0.000       
     391       82.2072         0.000       
     390       81.5025         0.000       
     389       81.2672         0.000       
     388       80.7460         0.000       
     387       80.3930         0.000       
     386       80.1718         0.000       
     385       79.8654         0.000       
     384       79.6148         0.000       
     383       79.3845         0.000       
     382       79.1791         0.000       
     381       78.6499         0.000       
     380       78.3273         0.000       
     379       78.1357         0.000       
     378       77.3988         0.000       
     377       77.2415         0.000       
     376       76.6742         0.000       
     375       76.2545         0.000       
     374       75.8783         0.000       
     373       75.5134         0.000       
     372       75.2779         0.000       
     371       74.8469         0.000       
     370       74.4348         0.000       
     369       73.8217         0.000       
     368       73.6430         0.000       
     367       73.4448         0.000       
     366       72.5056         0.000       
     365       71.9644         0.000       
     364       71.2211         0.000       
     363       70.9287         0.000       
     362       70.6029         0.000       
     361       70.3356         0.000       
     360       69.8883         0.000       
     359       69.1822         0.000       
     358       69.0051         0.000       
     357       68.5402         0.000       
     356       67.8705         0.000       
     355       67.3843         0.000       
     354       66.9593         0.000       
     353       66.7772         0.000       
     352       66.4554         0.000       
     351       66.0614         0.000       
     350       65.8352         0.000       
     349       65.4255         0.000       
     348       65.1834         0.000       
     347       64.7696         0.000       
     346       64.1010         0.000       
     345       63.8529         0.000       
     344       63.0550         0.000       
     343       62.7448         0.000       
     342       62.3789         0.000       
     341       61.8117         0.000       
     340       61.2929         0.000       
     339       60.3900         0.000       
     338       60.0364         0.000       
     337       59.5188         0.000       
     336       58.9785         0.000       
     335       58.7063         0.000       
     334       58.5031         0.000       
     333       58.1027         0.000       
     332       57.3151         0.000       
     331       56.9849         0.000       
     330       56.5411         0.000       
     329       56.3102         0.000       
     328       55.8267         0.000       
     327       55.2118         0.000       
     326       54.7506         0.000       
     325       54.3379         0.000       
     324       54.1892         0.000       
     323       54.1058         0.000       
     322       53.5869         0.000       
     321       53.2030         0.000       
     320       53.0000         0.000       
     319       52.7087         0.000       
     318       52.5983         0.000       
     317       52.3569         0.000       
     316       51.8547         0.000       
     315       51.6433         0.000       
     314       51.3156         0.000       
     313       51.1947         0.000       
     312       50.8345         0.000       
     311       50.3620         0.000       
     310       50.2759         0.000       
     309       50.0876         0.000       
     308       49.5950         0.000       
     307       49.1430         0.000       
     306       48.9118         0.000       
     305       48.6323         0.000       
     304       48.5245         0.000       
     303       48.1168         0.000       
     302       47.6635         0.000       
     301       47.3876         0.000       
     300       47.2499         0.000       
     299       47.0929         0.000       
     298       46.9769         0.000       
     297       46.6111         0.000       
     296       46.2650         0.000       
     295       46.0646         0.000       
     294       46.0405         0.000       
     293       45.0333         0.000       
     292       44.5630         0.000       
     291       44.0110         0.000       
     290       43.8350         0.000       
     289       43.4026         0.000       
     288       43.2719         0.000       
     287       42.8344         0.000       
     286       42.7405         0.000       
     285       42.1197         0.000       
     284       41.7428         0.000       
     283       41.6256         0.000       
     282       41.1754         0.000       
     281       40.9589         0.000       
     280       40.7688         0.000       
     279       40.3058         0.000       
     278       40.1056         0.000       
     277       39.9548         0.000       
     276       39.4682         0.000       
     275       39.0870         0.000       
     274       38.8008         0.000       
     273       38.7116         0.000       
     272       38.4281         0.000       
     271       37.9030         0.000       
     270       37.8143         0.000       
     269       37.4432         0.000       
     268       37.3135         0.000       
     267       36.9658         0.000       
     266       36.7835         0.000       
     265       36.6900         0.000       
     264       36.5945         0.000       
     263       35.9682         0.000       
     262       35.8589         0.000       
     261       35.5013         0.000       
     260       35.3621         0.000       
     259       35.0134         0.000       
     258       34.9655         0.000       
     257       34.6066         0.000       
     256       34.5148         0.000       
     255       34.1314         0.000       
     254       33.9877         0.000       
     253       33.8594         0.000       
     252       33.4689         0.000       
     251       33.2594         0.000       
     250       33.0967         0.000       
     249       32.9104         0.000       
     248       32.5180         0.000       
     247       32.3154         0.000       
     246       32.1434         0.000       
     245       31.9755         0.000       
     244       31.7156         0.000       
     243       31.3529         0.000       
     242       31.3178         0.000       
     241       30.9170         0.000       
     240       30.5030         0.000       
     239       30.3199         0.000       
     238       30.0673         0.000       
     237       29.9774         0.000       
     236       29.3595         0.000       
     235       29.0925         0.000       
     234       28.8386         0.000       
     233       28.5664         0.000       
     232       28.4700         0.000       
     231       28.4058         0.000       
     230       28.0263         0.000       
     229       27.6469         0.000       
     228       27.2847         0.000       
     227       27.0405         0.000       
     226       26.7693         0.000       
     225       26.2791         0.000       
     224       26.0162         0.000       
     223       25.9814         0.000       
     222       25.7424         0.000       
     221       25.5640         0.000       
     220       25.4602         0.000       
     219       24.9691         0.000       
     218       24.9522         0.000       
     217       24.7192         0.000       
     216       24.4223         0.000       
     215       24.1272         0.000       
     214       24.0481         0.000       
     213       23.6818         0.000       
     212       23.6232         0.000       
     211       23.3686         0.000       
     210       22.9208         0.000       
     209       22.5798         0.000       
     208       22.5156         0.000       
     207       22.1448         0.000       
     206       22.0491         0.000       
     205       21.7928         0.000       
     204       21.7424         0.000       
     203       21.4925         0.000       
     202       21.3148         0.000       
     201       21.2106         0.000       
     200       21.0654         0.000       
     199       20.7064         0.000       
     198       20.4039         0.000       
     197       20.3071         0.000       
     196       20.2742         0.000       
     195       19.8196         0.000       
     194       19.6366         0.000       
     193       19.4629         0.000       
     192       19.3216         0.000       
     191       19.0728         0.000       
     190       18.8778         0.000       
     189       18.4799         0.000       
     188       18.3457         0.000       
     187       18.0941         0.000       
     186       17.6180         0.000       
     185       17.2599         0.000       
     184       17.0032         0.000       
     183       16.5175         0.000       
     182       16.3905         0.000       
     181       15.9150         0.000       
     180       15.8663         0.000       
     179       15.3960         0.000       
     178       14.8756         0.000       
     177       14.6048         0.000       
     176       14.5209         0.000       
     175       14.3679         0.000       
     174       13.7065         0.000       
     173       13.4036         0.000       
     172       13.3037         0.000       
     171       12.8957         0.000       
     170       12.7735         0.000       
     169       12.5082         0.000       
     168       12.2717         0.000       
     167       12.1808         0.000       
     166       11.7986         0.000       
     165       11.6302         0.000       
     164       11.4710         0.000       
     163       11.1701         0.000       
     162       10.9962         0.000       
     161       10.7570         0.000       
     160       10.5952         0.000       
     159       10.2790         0.000       
     158       10.2394         0.000       
     157       10.1184         0.000       
     156        9.8813         0.000       
     155        9.6343         0.000       
     154        9.5254         0.000       
     153        9.3353         0.000       
     152        9.1709         0.000       
     151        9.0975         0.000       
     150        8.8263         0.000       
     149        8.7550         0.000       
     148        8.5132         0.000       
     147        8.3036         0.000       
     146        8.2364         0.000       
     145        8.0301         0.000       
     144        7.9730         0.000       
     143        7.7591         0.000       
     142        7.5995         0.000       
     141        7.0994         0.000       
     140        6.8980         0.000       
     139        6.6768         0.000       
     138        6.5312         0.000       
     137        6.2344         0.000       
     136        6.0183         0.000       
     135        5.9362         0.000       
     134        5.7342         0.000       
     133        5.5926         0.000       
     132        5.2507         0.000       
     131        5.1744         0.000       
     130        5.0681         0.000       
     129        4.8753         0.000       
     128        4.6258         0.000       
     127        4.4814         0.000       
     126        4.4066         0.000       
     125        4.2044         0.000       
     124        4.0130         0.000       
     123        3.7843         0.000       
     122        3.5602         0.000       
     121        3.4332         0.000       
     120        3.3990         0.000       
     119        3.2814         0.000       
     118        3.2415         0.000       
     117        3.1763         0.000       
     116        3.0696         0.000       
     115        3.0399         0.000       
     114        2.6923         0.000       
     113        2.6297         0.000       
     112        2.5983         0.000       
     111        2.2634         0.000       
     110        2.1435         0.000       
     109        2.0538         0.000       
     108        1.8101         0.000       
     107        1.7310         0.000       
     106        1.3516         0.000       
     105        1.3020         0.000       
     104        1.1785         0.000       
     103        1.0251         0.000       
     102        0.8960         0.000       
     101        0.7012         0.000       
     100        0.6156         0.000       
      99        0.4339         0.000       
      98        0.1710         0.000       
      97        0.0466         0.000       
      96       -0.1957         0.000       
      95       -0.3618         0.000       
      94       -0.7613         0.000       
      93       -1.8278         0.000       
      92       -2.0466         0.000       
      91       -3.1461         0.000 < LUMO
      90       -6.3616         2.000 < HOMO
      89       -7.0067         2.000       
      88       -7.1508         2.000       
      87       -7.3004         2.000       
      86       -7.6231         2.000       
      85       -8.5537         2.000       
      84       -8.6509         2.000       
      83       -8.6867         2.000       
      82       -9.2106         2.000       
      81       -9.6440         2.000       
      80       -9.7348         2.000       
      79       -9.9851         2.000       
      78      -10.0557         2.000       
      77      -10.1237         2.000       
      76      -10.1865         2.000       
      75      -10.2519         2.000       
      74      -10.3389         2.000       
      73      -10.4456         2.000       
      72      -10.5911         2.000       
      71      -10.6424         2.000       
      70      -10.8322         2.000       
      69      -10.9258         2.000       
      68      -11.0986         2.000       
      67      -11.4249         2.000       
      66      -11.4480         2.000       
      65      -11.5162         2.000       
      64      -11.6069         2.000       
      63      -11.7166         2.000       
      62      -11.7634         2.000       
      61      -11.9096         2.000       
      60      -12.3460         2.000       
      59      -12.4727         2.000       
      58      -13.7277         2.000       
      57      -14.2938         2.000       
      56      -14.4675         2.000       
      55      -14.6201         2.000       
      54      -14.8224         2.000       
      53      -15.0103         2.000       
      52      -15.1794         2.000       
      51      -15.3400         2.000       
      50      -16.1082         2.000       
      49      -17.0638         2.000       
      48      -17.7428         2.000       
      47      -17.9920         2.000       
      46      -18.6539         2.000       
      45      -19.0418         2.000       
      44      -19.5393         2.000       
      43      -20.0396         2.000       
      42      -21.6332         2.000       
      41      -22.1703         2.000       
      40      -26.6715         2.000       
      39      -30.9415         2.000       
      38      -30.9521         2.000       
      37      -31.0067         2.000       
      36      -31.0622         2.000       
      35      -33.1012         2.000       
      34      -33.2297         2.000       
      33      -65.9739         2.000       
      32      -65.9746         2.000       
      31      -66.2350         2.000       
      30      -66.2376         2.000       
      29      -66.3291         2.000       
      28     -172.5537         2.000       
      27     -172.5557         2.000       
      26     -172.9102         2.000       
      25     -236.4449         2.000       
      24     -270.6242         2.000       
      23     -270.6243         2.000       
      22     -270.7494         2.000       
      21     -270.7884         2.000       
      20     -270.8495         2.000       
      19     -271.1972         2.000       
      18     -271.2167         2.000       
      17     -272.9779         2.000       
      16     -273.0193         2.000       
      15     -273.2195         2.000       
      14     -277.4600         2.000       
      13     -277.4638         2.000       
      12     -511.9356         2.000       
      11     -662.8079         2.000       
      10     -662.8361         2.000       
       9     -662.8392         2.000       
       8     -662.8407         2.000       
       7     -662.8650         2.000       
       6     -662.8782         2.000       
       5    -1526.6636         2.000       
       4    -1526.6646         2.000       
       3    -1526.7852         2.000       
       2    -1729.7945         2.000       
       1   -13296.2756         2.000       

AMS application finished. Exiting.
NORMAL TERMINATION
     Total cpu time:    5185.98
  Total system time:      26.22
 Total elapsed time:    5239.40
NORMAL TERMINATION
