srun: Job 663090 step creation temporarily disabled, retrying (Requested nodes are busy)
srun: Job 663090 step creation still disabled, retrying (Requested nodes are busy)
srun: Step created for StepId=663090.10

 *******************************************************************************
 *                                                                             *
 *  --------------------------------                                           *
 *   Amsterdam Modeling Suite (AMS)              2026.103                      *
 *  --------------------------------                                           *
 *                                               r260501 2026-05-01 873454b5   *
 *                                                                             *
 *                                                                             *
 *                              =================                              *
 *                              |               |                              *
 *                              |     A M S     |                              *
 *                              |               |                              *
 *                              =================                              *
 *                                                                             *
 *                                                                             *
 *   Online information and documentation:  https://www.scm.com/support/       *
 *   E-mail:  support@scm.com   info@scm.com                                   *
 *                                                                             *
 *   Scientific publications using AMS results must be properly referenced     *
 *   See the User Manuals (or the web site) for recommended citations          *
 *   The terms and conditions of the End User License Agreement apply to       *
 *   the use of AMS, https://www.scm.com/license-terms/                        *
 *                                                                             *
 **********************  x86_64_linux_intel / intelmpi  ************************
 
 Licensed to: Jong-June Jeon / University of Seoul 2026-06-02 13:44:15
 SCM User ID: u30731
  
 AMS 2026.103  RunTime: Jun03-2026 21:50:27  ShM Nodes: 1  Procs: 1

 AMS jobname: c2_fragB_ts
 AMS jobid  : 796911386

 Start   directory: /gpfs/home1/yeseo1ee/projects/eda-asm-prediction/ADF_800/adf_outputs/batch_005/qmrxn20_sn2_A_D_A_C_A_D/
 Results directory: /gpfs/home1/yeseo1ee/projects/eda-asm-prediction/ADF_800/adf_outputs/batch_005/qmrxn20_sn2_A_D_A_C_A_D/c2_fragB_ts.results/
 Scratch directory: /tmp/amstmp_c2_fragB_ts_kid0.796911386/

 RNG seed: 1884299924 -277979218 2124631205 -283248320 1733296899 1146203000 356178449 -1466485096



                      ************************************************************************
                      *  ADF 2026.103  RunTime: Jun03-2026 21:50:27  ShM Nodes: 1  Procs: 1  *
                      ************************************************************************
  

       ****************************
       * SINGLE POINT CALCULATION *
       ****************************

--------
Geometry
--------
Formula: C4H6BrN
Atoms
  Index Symbol   x (angstrom)   y (angstrom)   z (angstrom)
      1      C     0.73537540    -0.04700939     0.04924252
      2      H     1.29795372     2.00141659     0.48783362
      3     Br     3.00159135    -0.03703872    -0.37861579
      4      C     0.46323462     1.44196728     0.05822027
      5      H     0.53483967    -0.60416648    -0.84385407
      6      H    -0.44108242     1.58096493     0.65044590
      7      C     0.73617389    -0.74465307     1.38146217
      8      H     1.10080857    -1.76667190     1.27401319
      9      H     1.38259739    -0.22764825     2.09454448
     10      H    -0.29801912    -0.75705994     1.71934959
     11      C     0.19407814     1.96303464    -1.27819998
     12      N    -0.00448138     2.42962238    -2.33628131

Total System Charge              0.00000


----------------
ADF Engine Input
----------------
 
   Basis
     Type TZ2P
     Core None
   End
   XC
     GGA BLYP
     Dispersion GRIMME3 BJDAMP
   End
   Symmetry NOSYM
   NumericalQuality Normal
   Unrestricted No
   SCF
     Iterations 200
     Converge 1.0e-6
   End
   Save TAPE21
 

 Title: *** (NO TITLE) ***

 *** adf ***



 ===========================
 A T T A C H E D   F I L E S
 ===========================
  



 ===============================
 M O D E L   P A R A M E T E R S
 ===============================
  
 DENSITY FUNCTIONAL POTENTIAL (scf)
    LDA:                               Exchange only                           == Not Default ==
    Gradient Corrections:              Becke88 LYP                             == Not Default ==

 SPIN  (restricted / unrestr.)
    Molecule:                          Restricted                               
    Fragments:                         Restricted                               

 OTHER ASPECTS
    Relativistic Corrections:          scalar (ZORA,MAPA)                       

    Nuclear Charge Density Model:      Point Charge Nuclei                      
    Core Treatment:                    Frozen Orbital(s)                        

    Hyperfine or Zeeman Interaction:   ---                                      

 Settings for Grimme D3 dispersion correction

      damping                        BJ
      s6                          1.000
      s8                          2.700
      a1                          0.430
      a2                          4.236

 Other (technical) parameters

      alpha                      14.000
      version                         4
 


 Fragment File(s)
 ----------------
 C:
         file : /gpfs/home1/yeseo1ee/projects/eda-asm-prediction/ADF_800/adf_outputs/batch_005/qmrxn20_sn2_A_D_A_C_A_D/c2_fragB_ts.results/t21.50BA88D5.C
         jobid: 0
         title: Carbon (TZ2P)
 H:
         file : /gpfs/home1/yeseo1ee/projects/eda-asm-prediction/ADF_800/adf_outputs/batch_005/qmrxn20_sn2_A_D_A_C_A_D/c2_fragB_ts.results/t21.6F35CCAB.H
         jobid: 0
         title: Hydrogen (TZ2P)
 Br:
         file : /gpfs/home1/yeseo1ee/projects/eda-asm-prediction/ADF_800/adf_outputs/batch_005/qmrxn20_sn2_A_D_A_C_A_D/c2_fragB_ts.results/t21.42F58B50.Br
         jobid: 0
         title: Bromine (TZ2P)
 N:
         file : /gpfs/home1/yeseo1ee/projects/eda-asm-prediction/ADF_800/adf_outputs/batch_005/qmrxn20_sn2_A_D_A_C_A_D/c2_fragB_ts.results/t21.44EAA48D.N
         jobid: 0
         title: Nitrogen (TZ2P)



 ===============
 G E O M E T R Y  ***  3D  Molecule  ***
 ===============
  

 ATOMS
 =====                            X Y Z                    CHARGE
                                (Angstrom)             Nucl     +Core       At.Mass
                       --------------------------    ----------------       -------
    1  C               0.7354   -0.0470    0.0492      6.00      6.00       12.0000
    2  H               1.2980    2.0014    0.4878      1.00      1.00        1.0078
    3  Br              3.0016   -0.0370   -0.3786     35.00     35.00       78.9183
    4  C               0.4632    1.4420    0.0582      6.00      6.00       12.0000
    5  H               0.5348   -0.6042   -0.8439      1.00      1.00        1.0078
    6  H              -0.4411    1.5810    0.6504      1.00      1.00        1.0078
    7  C               0.7362   -0.7447    1.3815      6.00      6.00       12.0000
    8  H               1.1008   -1.7667    1.2740      1.00      1.00        1.0078
    9  H               1.3826   -0.2276    2.0945      1.00      1.00        1.0078
   10  H              -0.2980   -0.7571    1.7193      1.00      1.00        1.0078
   11  C               0.1941    1.9630   -1.2782      6.00      6.00       12.0000
   12  N              -0.0045    2.4296   -2.3363      7.00      7.00       14.0031


 FRAGMENTS
 =========                                     Atoms in this Fragment     Cart. coord.s (Angstrom)
                                               -------------------------------------------------------
    1  C                                                 1  C            0.7354   -0.0470    0.0492
    2  C                                                 4  C            0.4632    1.4420    0.0582
    3  C                                                 7  C            0.7362   -0.7447    1.3815
    4  C                                                11  C            0.1941    1.9630   -1.2782
    5  H                                                 2  H            1.2980    2.0014    0.4878
    6  H                                                 5  H            0.5348   -0.6042   -0.8439
    7  H                                                 6  H           -0.4411    1.5810    0.6504
    8  H                                                 8  H            1.1008   -1.7667    1.2740
    9  H                                                 9  H            1.3826   -0.2276    2.0945
   10  H                                                10  H           -0.2980   -0.7571    1.7193
   11  Br                                                3  Br           3.0016   -0.0370   -0.3786
   12  N                                                12  N           -0.0045    2.4296   -2.3363


 Interatomic Distance Matrix (Angstrom)
 --------------------------------------

   1)     0.000
   2)     2.169   0.000
   3)     2.306   2.794   0.000
   4)     1.514   1.093   2.970   0.000
   5)     1.072   3.024   2.574   2.237   0.000
   6)     2.097   1.797   3.941   1.090   2.821   0.000
   7)     1.504   2.942   2.955   2.570   2.239   2.707   0.000
   8)     2.143   3.854   3.055   3.490   2.481   3.738   1.090   0.000
   9)     2.153   2.749   2.962   2.789   3.081   2.947   1.093   1.767   0.000
  10)     2.088   3.417   3.976   2.859   2.699   2.575   1.088   1.782   1.802   0.000
  11)     2.469   2.083   3.563   1.459   2.626   2.066   3.834   4.609   4.194   4.078
          0.000
  12)     3.517   3.139   4.354   2.632   3.424   3.136   4.944   5.645   5.350   5.166
          1.173   0.000

 Min. Distance =    1.0716
 Max. Distance =    5.6449



 =====================================
 S Y M M E T R Y ,   E L E C T R O N S
 =====================================
  
 Symmetry: NOSYM

 Irreducible Representations, including subspecies
 -------------------------------------------------
 A


 Configuration of Valence Electrons
 ==================================
 ( determined in the SCF procedure )

 Total:   72

 Net Charge: 0 (Nuclei minus Electrons)

 Aufbau principle for MO occupations will be applied through SCF cycle no.     100
 Thereafter, the program will assign electrons to MOs that are spatially
 similar to the occupied MOs in a "reference" cycle ("KeepOrbitals").
 The reference cycle is always the PREVIOUS cycle: it will evolve with
 the SCF procedure.
 ***************************************************************************************************



                                      ****************************************
                                      *  B U I L D : (Fragments, Functions)  *
                                      ****************************************
  



 =======
 S F O s  ***  (Symmetrized Fragment Orbitals)  ***
 =======
  
 SFOs are linear combinations of (valence) Fragment Orbitals (FOs), such that the SFOs transform as the
 irreducible representations of the (molecular) symmetry group. Each SFO is therefore characterized by
 an irrep of the molecule and by a few (or only one) generating FOs.
 The SFOs constitute a symmetry-adapted basis for the Fock matrix. The MO eigenvector coefficients in
 this basis provide a direct interpretation of the MOs in terms of Frontier Orbital Theory.

 The SFOs are combined with auxiliary Core Functions (CFs) to ensure orthogonalization on the (frozen)
 Core Orbitals (COs). The Core-orthogonalized SFOs (CSFOs) constitute the true Fock basis.

 The FOs, and hence also the (C)SFOs are combinations of the elementary basis functions (BAS). The basis
 functions that participate in the description of the SFOs depend on the irrep. The indices of the
 involved functions are printed below for each irrep.
 (The complete list of primitive basis functions is printed in another section)

 Total nr. of (C)SFOs (summation over all irreps) :   252

 NOTE: a (C)SFO that is defined as a combination of more than one FO is usually NOT normalized.



                                       === A ===
 Nr. of SFOs :  252
 Cartesian basis functions that participate in this irrep (total number =   285) :
      1     2     3     4     5     6     9    12     7    10
     13     8    11    14    15    16    17    18    19    20
     21    22    23    24    25    26    27    28    29    30
     31    32    33    34    35    36    39    42    37    40
     43    38    41    44    45    46    47    48    49    50
     51    52    53    54    55    56    57    58    59    60
     61    62    63    64    65    66    69    72    67    70
     73    68    71    74    75    76    77    78    79    80
     81    82    83    84    85    86    87    88    89    90
     91    92    93    94    95    96    99   102    97   100
    103    98   101   104   105   106   107   108   109   110
    111   112   113   114   115   116   117   118   119   120
    121   122   123   124   125   126   127   128   129   130
    131   132   133   134   135   136   137   138   139   140
    141   142   143   144   145   146   147   148   149   150
    151   152   153   154   155   156   157   158   159   160
    161   162   163   164   165   166   167   168   169   170
    171   172   173   174   175   176   177   178   179   180
    181   182   183   184   185   186   187   188   189   190
    191   192   193   194   195   202   203   228   229   230
    196   199   204   207   231   234   237   197   200   205
    208   232   235   238   198   201   206   209   233   236
    239   210   216   222   240   211   217   223   241   212
    218   224   242   213   219   225   243   214   220   226
    244   215   221   227   245   246   247   248   249   250
    251   252   253   254   255   256   257   258   259   260
    261   264   267   262   265   268   263   266   269   270
    271   272   273   274   275   276   277   278   279   280
    281   282   283   284   285

    SFO  (index         Fragment          Generating    Expansion in Fragment Orbitals
  indx  incl.CFs)   Occup   Orb.Energy   FragmentType  Coeff.   Orbital     on Fragment
 --------------------------------------------------------------------------------------
     1       1      2.000     -10.066 au  C             1.00      1 S               1
                        (    -273.921 eV)
     2       2      2.000      -0.501 au  C             1.00      2 S               1
                        (     -13.620 eV)
     3       3       --         0.373 au  C             1.00      3 S               1
                        (      10.158 eV)
     4       4       --         5.405 au  C             1.00      4 S               1
                        (     147.073 eV)
     5       5       --        49.848 au  C             1.00      5 S               1
                        (    1356.422 eV)
     6       6      0.667      -0.193 au  C             1.00      1 P:x             1
                        (      -5.239 eV)
     7       7       --         0.169 au  C             1.00      2 P:x             1
                        (       4.589 eV)
     8       8       --         2.013 au  C             1.00      3 P:x             1
                        (      54.789 eV)
     9       9      0.667      -0.193 au  C             1.00      1 P:y             1
                        (      -5.239 eV)
    10      10       --         0.169 au  C             1.00      2 P:y             1
                        (       4.589 eV)
    11      11       --         2.013 au  C             1.00      3 P:y             1
                        (      54.789 eV)
    12      12      0.667      -0.193 au  C             1.00      1 P:z             1
                        (      -5.239 eV)
    13      13       --         0.169 au  C             1.00      2 P:z             1
                        (       4.589 eV)
    14      14       --         2.013 au  C             1.00      3 P:z             1
                        (      54.789 eV)
    15      15       --         1.243 au  C             1.00      1 D:z2            1
                        (      33.824 eV)
    16      16       --         1.243 au  C             1.00      1 D:x2-y2         1
                        (      33.824 eV)
    17      17       --         1.243 au  C             1.00      1 D:xy            1
                        (      33.824 eV)
    18      18       --         1.243 au  C             1.00      1 D:xz            1
                        (      33.824 eV)
    19      19       --         1.243 au  C             1.00      1 D:yz            1
                        (      33.824 eV)
    20      20       --         4.016 au  C             1.00      1 F:z3            1
                        (     109.271 eV)
    21      21       --         4.016 au  C             1.00      1 F:z             1
                        (     109.271 eV)
    22      22       --         4.016 au  C             1.00      1 F:xyz           1
                        (     109.271 eV)
    23      23       --         4.016 au  C             1.00      1 F:z2x           1
                        (     109.271 eV)
    24      24       --         4.016 au  C             1.00      1 F:z2y           1
                        (     109.271 eV)
    25      25       --         4.016 au  C             1.00      1 F:x             1
                        (     109.271 eV)
    26      26       --         4.016 au  C             1.00      1 F:y             1
                        (     109.271 eV)
    27      27      2.000     -10.066 au  C             1.00      1 S               2
                        (    -273.921 eV)
    28      28      2.000      -0.501 au  C             1.00      2 S               2
                        (     -13.620 eV)
    29      29       --         0.373 au  C             1.00      3 S               2
                        (      10.158 eV)
    30      30       --         5.405 au  C             1.00      4 S               2
                        (     147.073 eV)
    31      31       --        49.848 au  C             1.00      5 S               2
                        (    1356.422 eV)
    32      32      0.667      -0.193 au  C             1.00      1 P:x             2
                        (      -5.239 eV)
    33      33       --         0.169 au  C             1.00      2 P:x             2
                        (       4.589 eV)
    34      34       --         2.013 au  C             1.00      3 P:x             2
                        (      54.789 eV)
    35      35      0.667      -0.193 au  C             1.00      1 P:y             2
                        (      -5.239 eV)
    36      36       --         0.169 au  C             1.00      2 P:y             2
                        (       4.589 eV)
    37      37       --         2.013 au  C             1.00      3 P:y             2
                        (      54.789 eV)
    38      38      0.667      -0.193 au  C             1.00      1 P:z             2
                        (      -5.239 eV)
    39      39       --         0.169 au  C             1.00      2 P:z             2
                        (       4.589 eV)
    40      40       --         2.013 au  C             1.00      3 P:z             2
                        (      54.789 eV)
    41      41       --         1.243 au  C             1.00      1 D:z2            2
                        (      33.824 eV)
    42      42       --         1.243 au  C             1.00      1 D:x2-y2         2
                        (      33.824 eV)
    43      43       --         1.243 au  C             1.00      1 D:xy            2
                        (      33.824 eV)
    44      44       --         1.243 au  C             1.00      1 D:xz            2
                        (      33.824 eV)
    45      45       --         1.243 au  C             1.00      1 D:yz            2
                        (      33.824 eV)
    46      46       --         4.016 au  C             1.00      1 F:z3            2
                        (     109.271 eV)
    47      47       --         4.016 au  C             1.00      1 F:z             2
                        (     109.271 eV)
    48      48       --         4.016 au  C             1.00      1 F:xyz           2
                        (     109.271 eV)
    49      49       --         4.016 au  C             1.00      1 F:z2x           2
                        (     109.271 eV)
    50      50       --         4.016 au  C             1.00      1 F:z2y           2
                        (     109.271 eV)
    51      51       --         4.016 au  C             1.00      1 F:x             2
                        (     109.271 eV)
    52      52       --         4.016 au  C             1.00      1 F:y             2
                        (     109.271 eV)
    53      53      2.000     -10.066 au  C             1.00      1 S               3
                        (    -273.921 eV)
    54      54      2.000      -0.501 au  C             1.00      2 S               3
                        (     -13.620 eV)
    55      55       --         0.373 au  C             1.00      3 S               3
                        (      10.158 eV)
    56      56       --         5.405 au  C             1.00      4 S               3
                        (     147.073 eV)
    57      57       --        49.848 au  C             1.00      5 S               3
                        (    1356.422 eV)
    58      58      0.667      -0.193 au  C             1.00      1 P:x             3
                        (      -5.239 eV)
    59      59       --         0.169 au  C             1.00      2 P:x             3
                        (       4.589 eV)
    60      60       --         2.013 au  C             1.00      3 P:x             3
                        (      54.789 eV)
    61      61      0.667      -0.193 au  C             1.00      1 P:y             3
                        (      -5.239 eV)
    62      62       --         0.169 au  C             1.00      2 P:y             3
                        (       4.589 eV)
    63      63       --         2.013 au  C             1.00      3 P:y             3
                        (      54.789 eV)
    64      64      0.667      -0.193 au  C             1.00      1 P:z             3
                        (      -5.239 eV)
    65      65       --         0.169 au  C             1.00      2 P:z             3
                        (       4.589 eV)
    66      66       --         2.013 au  C             1.00      3 P:z             3
                        (      54.789 eV)
    67      67       --         1.243 au  C             1.00      1 D:z2            3
                        (      33.824 eV)
    68      68       --         1.243 au  C             1.00      1 D:x2-y2         3
                        (      33.824 eV)
    69      69       --         1.243 au  C             1.00      1 D:xy            3
                        (      33.824 eV)
    70      70       --         1.243 au  C             1.00      1 D:xz            3
                        (      33.824 eV)
    71      71       --         1.243 au  C             1.00      1 D:yz            3
                        (      33.824 eV)
    72      72       --         4.016 au  C             1.00      1 F:z3            3
                        (     109.271 eV)
    73      73       --         4.016 au  C             1.00      1 F:z             3
                        (     109.271 eV)
    74      74       --         4.016 au  C             1.00      1 F:xyz           3
                        (     109.271 eV)
    75      75       --         4.016 au  C             1.00      1 F:z2x           3
                        (     109.271 eV)
    76      76       --         4.016 au  C             1.00      1 F:z2y           3
                        (     109.271 eV)
    77      77       --         4.016 au  C             1.00      1 F:x             3
                        (     109.271 eV)
    78      78       --         4.016 au  C             1.00      1 F:y             3
                        (     109.271 eV)
    79      79      2.000     -10.066 au  C             1.00      1 S               4
                        (    -273.921 eV)
    80      80      2.000      -0.501 au  C             1.00      2 S               4
                        (     -13.620 eV)
    81      81       --         0.373 au  C             1.00      3 S               4
                        (      10.158 eV)
    82      82       --         5.405 au  C             1.00      4 S               4
                        (     147.073 eV)
    83      83       --        49.848 au  C             1.00      5 S               4
                        (    1356.422 eV)
    84      84      0.667      -0.193 au  C             1.00      1 P:x             4
                        (      -5.239 eV)
    85      85       --         0.169 au  C             1.00      2 P:x             4
                        (       4.589 eV)
    86      86       --         2.013 au  C             1.00      3 P:x             4
                        (      54.789 eV)
    87      87      0.667      -0.193 au  C             1.00      1 P:y             4
                        (      -5.239 eV)
    88      88       --         0.169 au  C             1.00      2 P:y             4
                        (       4.589 eV)
    89      89       --         2.013 au  C             1.00      3 P:y             4
                        (      54.789 eV)
    90      90      0.667      -0.193 au  C             1.00      1 P:z             4
                        (      -5.239 eV)
    91      91       --         0.169 au  C             1.00      2 P:z             4
                        (       4.589 eV)
    92      92       --         2.013 au  C             1.00      3 P:z             4
                        (      54.789 eV)
    93      93       --         1.243 au  C             1.00      1 D:z2            4
                        (      33.824 eV)
    94      94       --         1.243 au  C             1.00      1 D:x2-y2         4
                        (      33.824 eV)
    95      95       --         1.243 au  C             1.00      1 D:xy            4
                        (      33.824 eV)
    96      96       --         1.243 au  C             1.00      1 D:xz            4
                        (      33.824 eV)
    97      97       --         1.243 au  C             1.00      1 D:yz            4
                        (      33.824 eV)
    98      98       --         4.016 au  C             1.00      1 F:z3            4
                        (     109.271 eV)
    99      99       --         4.016 au  C             1.00      1 F:z             4
                        (     109.271 eV)
   100     100       --         4.016 au  C             1.00      1 F:xyz           4
                        (     109.271 eV)
   101     101       --         4.016 au  C             1.00      1 F:z2x           4
                        (     109.271 eV)
   102     102       --         4.016 au  C             1.00      1 F:z2y           4
                        (     109.271 eV)
   103     103       --         4.016 au  C             1.00      1 F:x             4
                        (     109.271 eV)
   104     104       --         4.016 au  C             1.00      1 F:y             4
                        (     109.271 eV)
   105     105      1.000      -0.240 au  H             1.00      1 S               5
                        (      -6.532 eV)
   106     106       --         0.088 au  H             1.00      2 S               5
                        (       2.394 eV)
   107     107       --         1.502 au  H             1.00      3 S               5
                        (      40.869 eV)
   108     108       --         0.406 au  H             1.00      1 P:x             5
                        (      11.051 eV)
   109     109       --         0.406 au  H             1.00      1 P:y             5
                        (      11.051 eV)
   110     110       --         0.406 au  H             1.00      1 P:z             5
                        (      11.051 eV)
   111     111       --         2.569 au  H             1.00      1 D:z2            5
                        (      69.917 eV)
   112     112       --         2.569 au  H             1.00      1 D:x2-y2         5
                        (      69.917 eV)
   113     113       --         2.569 au  H             1.00      1 D:xy            5
                        (      69.917 eV)
   114     114       --         2.569 au  H             1.00      1 D:xz            5
                        (      69.917 eV)
   115     115       --         2.569 au  H             1.00      1 D:yz            5
                        (      69.917 eV)
   116     116      1.000      -0.240 au  H             1.00      1 S               6
                        (      -6.532 eV)
   117     117       --         0.088 au  H             1.00      2 S               6
                        (       2.394 eV)
   118     118       --         1.502 au  H             1.00      3 S               6
                        (      40.869 eV)
   119     119       --         0.406 au  H             1.00      1 P:x             6
                        (      11.051 eV)
   120     120       --         0.406 au  H             1.00      1 P:y             6
                        (      11.051 eV)
   121     121       --         0.406 au  H             1.00      1 P:z             6
                        (      11.051 eV)
   122     122       --         2.569 au  H             1.00      1 D:z2            6
                        (      69.917 eV)
   123     123       --         2.569 au  H             1.00      1 D:x2-y2         6
                        (      69.917 eV)
   124     124       --         2.569 au  H             1.00      1 D:xy            6
                        (      69.917 eV)
   125     125       --         2.569 au  H             1.00      1 D:xz            6
                        (      69.917 eV)
   126     126       --         2.569 au  H             1.00      1 D:yz            6
                        (      69.917 eV)
   127     127      1.000      -0.240 au  H             1.00      1 S               7
                        (      -6.532 eV)
   128     128       --         0.088 au  H             1.00      2 S               7
                        (       2.394 eV)
   129     129       --         1.502 au  H             1.00      3 S               7
                        (      40.869 eV)
   130     130       --         0.406 au  H             1.00      1 P:x             7
                        (      11.051 eV)
   131     131       --         0.406 au  H             1.00      1 P:y             7
                        (      11.051 eV)
   132     132       --         0.406 au  H             1.00      1 P:z             7
                        (      11.051 eV)
   133     133       --         2.569 au  H             1.00      1 D:z2            7
                        (      69.917 eV)
   134     134       --         2.569 au  H             1.00      1 D:x2-y2         7
                        (      69.917 eV)
   135     135       --         2.569 au  H             1.00      1 D:xy            7
                        (      69.917 eV)
   136     136       --         2.569 au  H             1.00      1 D:xz            7
                        (      69.917 eV)
   137     137       --         2.569 au  H             1.00      1 D:yz            7
                        (      69.917 eV)
   138     138      1.000      -0.240 au  H             1.00      1 S               8
                        (      -6.532 eV)
   139     139       --         0.088 au  H             1.00      2 S               8
                        (       2.394 eV)
   140     140       --         1.502 au  H             1.00      3 S               8
                        (      40.869 eV)
   141     141       --         0.406 au  H             1.00      1 P:x             8
                        (      11.051 eV)
   142     142       --         0.406 au  H             1.00      1 P:y             8
                        (      11.051 eV)
   143     143       --         0.406 au  H             1.00      1 P:z             8
                        (      11.051 eV)
   144     144       --         2.569 au  H             1.00      1 D:z2            8
                        (      69.917 eV)
   145     145       --         2.569 au  H             1.00      1 D:x2-y2         8
                        (      69.917 eV)
   146     146       --         2.569 au  H             1.00      1 D:xy            8
                        (      69.917 eV)
   147     147       --         2.569 au  H             1.00      1 D:xz            8
                        (      69.917 eV)
   148     148       --         2.569 au  H             1.00      1 D:yz            8
                        (      69.917 eV)
   149     149      1.000      -0.240 au  H             1.00      1 S               9
                        (      -6.532 eV)
   150     150       --         0.088 au  H             1.00      2 S               9
                        (       2.394 eV)
   151     151       --         1.502 au  H             1.00      3 S               9
                        (      40.869 eV)
   152     152       --         0.406 au  H             1.00      1 P:x             9
                        (      11.051 eV)
   153     153       --         0.406 au  H             1.00      1 P:y             9
                        (      11.051 eV)
   154     154       --         0.406 au  H             1.00      1 P:z             9
                        (      11.051 eV)
   155     155       --         2.569 au  H             1.00      1 D:z2            9
                        (      69.917 eV)
   156     156       --         2.569 au  H             1.00      1 D:x2-y2         9
                        (      69.917 eV)
   157     157       --         2.569 au  H             1.00      1 D:xy            9
                        (      69.917 eV)
   158     158       --         2.569 au  H             1.00      1 D:xz            9
                        (      69.917 eV)
   159     159       --         2.569 au  H             1.00      1 D:yz            9
                        (      69.917 eV)
   160     160      1.000      -0.240 au  H             1.00      1 S              10
                        (      -6.532 eV)
   161     161       --         0.088 au  H             1.00      2 S              10
                        (       2.394 eV)
   162     162       --         1.502 au  H             1.00      3 S              10
                        (      40.869 eV)
   163     163       --         0.406 au  H             1.00      1 P:x            10
                        (      11.051 eV)
   164     164       --         0.406 au  H             1.00      1 P:y            10
                        (      11.051 eV)
   165     165       --         0.406 au  H             1.00      1 P:z            10
                        (      11.051 eV)
   166     166       --         2.569 au  H             1.00      1 D:z2           10
                        (      69.917 eV)
   167     167       --         2.569 au  H             1.00      1 D:x2-y2        10
                        (      69.917 eV)
   168     168       --         2.569 au  H             1.00      1 D:xy           10
                        (      69.917 eV)
   169     169       --         2.569 au  H             1.00      1 D:xz           10
                        (      69.917 eV)
   170     170       --         2.569 au  H             1.00      1 D:yz           10
                        (      69.917 eV)
   171     171      2.000    -488.642 au  Br            1.00      1 S              11
                        (  -13296.634 eV)
   172     172      2.000     -63.585 au  Br            1.00      2 S              11
                        (   -1730.246 eV)
   173     173      2.000      -8.709 au  Br            1.00      3 S              11
                        (    -236.987 eV)
   174     174      2.000      -0.733 au  Br            1.00      4 S              11
                        (     -19.946 eV)
   175     175       --         0.224 au  Br            1.00      5 S              11
                        (       6.099 eV)
   176     176       --         2.414 au  Br            1.00      6 S              11
                        (      65.683 eV)
   177     177       --        13.546 au  Br            1.00      7 S              11
                        (     368.609 eV)
   178     178       --       615.209 au  Br            1.00      8 S              11
                        (   16740.684 eV)
   179     179      2.000     -56.116 au  Br            1.00      1 P:x            11
                        (   -1526.987 eV)
   180     180      2.000      -6.365 au  Br            1.00      2 P:x            11
                        (    -173.205 eV)
   181     181      1.667      -0.284 au  Br            1.00      3 P:x            11
                        (      -7.716 eV)
   182     182       --         0.137 au  Br            1.00      4 P:x            11
                        (       3.720 eV)
   183     183       --         1.208 au  Br            1.00      5 P:x            11
                        (      32.874 eV)
   184     184       --         8.734 au  Br            1.00      6 P:x            11
                        (     237.661 eV)
   185     185       --        95.627 au  Br            1.00      7 P:x            11
                        (    2602.141 eV)
   186     186      2.000     -56.116 au  Br            1.00      1 P:y            11
                        (   -1526.987 eV)
   187     187      2.000      -6.365 au  Br            1.00      2 P:y            11
                        (    -173.205 eV)
   188     188      1.667      -0.284 au  Br            1.00      3 P:y            11
                        (      -7.716 eV)
   189     189       --         0.137 au  Br            1.00      4 P:y            11
                        (       3.720 eV)
   190     190       --         1.208 au  Br            1.00      5 P:y            11
                        (      32.874 eV)
   191     191       --         8.734 au  Br            1.00      6 P:y            11
                        (     237.661 eV)
   192     192       --        95.627 au  Br            1.00      7 P:y            11
                        (    2602.141 eV)
   193     193      2.000     -56.116 au  Br            1.00      1 P:z            11
                        (   -1526.987 eV)
   194     194      2.000      -6.365 au  Br            1.00      2 P:z            11
                        (    -173.205 eV)
   195     195      1.667      -0.284 au  Br            1.00      3 P:z            11
                        (      -7.716 eV)
   196     196       --         0.137 au  Br            1.00      4 P:z            11
                        (       3.720 eV)
   197     197       --         1.208 au  Br            1.00      5 P:z            11
                        (      32.874 eV)
   198     198       --         8.734 au  Br            1.00      6 P:z            11
                        (     237.661 eV)
   199     199       --        95.627 au  Br            1.00      7 P:z            11
                        (    2602.141 eV)
   200     200      2.000      -2.452 au  Br            1.00      1 D:z2           11
                        (     -66.719 eV)
   201     201       --         0.270 au  Br            1.00      2 D:z2           11
                        (       7.341 eV)
   202     202       --         2.706 au  Br            1.00      3 D:z2           11
                        (      73.633 eV)
   203     203       --        20.525 au  Br            1.00      4 D:z2           11
                        (     558.519 eV)
   204     204      2.000      -2.452 au  Br            1.00      1 D:x2-y2        11
                        (     -66.719 eV)
   205     205       --         0.270 au  Br            1.00      2 D:x2-y2        11
                        (       7.341 eV)
   206     206       --         2.706 au  Br            1.00      3 D:x2-y2        11
                        (      73.633 eV)
   207     207       --        20.525 au  Br            1.00      4 D:x2-y2        11
                        (     558.519 eV)
   208     208      2.000      -2.452 au  Br            1.00      1 D:xy           11
                        (     -66.719 eV)
   209     209       --         0.270 au  Br            1.00      2 D:xy           11
                        (       7.341 eV)
   210     210       --         2.706 au  Br            1.00      3 D:xy           11
                        (      73.633 eV)
   211     211       --        20.525 au  Br            1.00      4 D:xy           11
                        (     558.519 eV)
   212     212      2.000      -2.452 au  Br            1.00      1 D:xz           11
                        (     -66.719 eV)
   213     213       --         0.270 au  Br            1.00      2 D:xz           11
                        (       7.341 eV)
   214     214       --         2.706 au  Br            1.00      3 D:xz           11
                        (      73.633 eV)
   215     215       --        20.525 au  Br            1.00      4 D:xz           11
                        (     558.519 eV)
   216     216      2.000      -2.452 au  Br            1.00      1 D:yz           11
                        (     -66.719 eV)
   217     217       --         0.270 au  Br            1.00      2 D:yz           11
                        (       7.341 eV)
   218     218       --         2.706 au  Br            1.00      3 D:yz           11
                        (      73.633 eV)
   219     219       --        20.525 au  Br            1.00      4 D:yz           11
                        (     558.519 eV)
   220     220       --         0.857 au  Br            1.00      1 F:z3           11
                        (      23.313 eV)
   221     221       --         0.857 au  Br            1.00      1 F:z            11
                        (      23.313 eV)
   222     222       --         0.857 au  Br            1.00      1 F:xyz          11
                        (      23.313 eV)
   223     223       --         0.857 au  Br            1.00      1 F:z2x          11
                        (      23.313 eV)
   224     224       --         0.857 au  Br            1.00      1 F:z2y          11
                        (      23.313 eV)
   225     225       --         0.857 au  Br            1.00      1 F:x            11
                        (      23.313 eV)
   226     226       --         0.857 au  Br            1.00      1 F:y            11
                        (      23.313 eV)
   227     227      2.000     -14.160 au  N             1.00      1 S              12
                        (    -385.319 eV)
   228     228      2.000      -0.678 au  N             1.00      2 S              12
                        (     -18.450 eV)
   229     229       --         0.517 au  N             1.00      3 S              12
                        (      14.073 eV)
   230     230       --         6.872 au  N             1.00      4 S              12
                        (     186.990 eV)
   231     231       --        63.432 au  N             1.00      5 S              12
                        (    1726.082 eV)
   232     232      1.000      -0.260 au  N             1.00      1 P:x            12
                        (      -7.062 eV)
   233     233       --         0.281 au  N             1.00      2 P:x            12
                        (       7.649 eV)
   234     234       --         3.275 au  N             1.00      3 P:x            12
                        (      89.105 eV)
   235     235      1.000      -0.260 au  N             1.00      1 P:y            12
                        (      -7.062 eV)
   236     236       --         0.281 au  N             1.00      2 P:y            12
                        (       7.649 eV)
   237     237       --         3.275 au  N             1.00      3 P:y            12
                        (      89.105 eV)
   238     238      1.000      -0.260 au  N             1.00      1 P:z            12
                        (      -7.062 eV)
   239     239       --         0.281 au  N             1.00      2 P:z            12
                        (       7.649 eV)
   240     240       --         3.275 au  N             1.00      3 P:z            12
                        (      89.105 eV)
   241     241       --         1.250 au  N             1.00      1 D:z2           12
                        (      34.005 eV)
   242     242       --         1.250 au  N             1.00      1 D:x2-y2        12
                        (      34.005 eV)
   243     243       --         1.250 au  N             1.00      1 D:xy           12
                        (      34.005 eV)
   244     244       --         1.250 au  N             1.00      1 D:xz           12
                        (      34.005 eV)
   245     245       --         1.250 au  N             1.00      1 D:yz           12
                        (      34.005 eV)
   246     246       --         4.013 au  N             1.00      1 F:z3           12
                        (     109.190 eV)
   247     247       --         4.013 au  N             1.00      1 F:z            12
                        (     109.190 eV)
   248     248       --         4.013 au  N             1.00      1 F:xyz          12
                        (     109.190 eV)
   249     249       --         4.013 au  N             1.00      1 F:z2x          12
                        (     109.190 eV)
   250     250       --         4.013 au  N             1.00      1 F:z2y          12
                        (     109.190 eV)
   251     251       --         4.013 au  N             1.00      1 F:x            12
                        (     109.190 eV)
   252     252       --         4.013 au  N             1.00      1 F:y            12
                        (     109.190 eV)



 ================================
 (Slater-type)  F U N C T I O N S  ***  (Basis and Fit)  ***
 ================================
  

 Atom Type    1  (C)
 ==============

 Valence Basis Sets:  10
 -----------------------
   1 S    7.680000
   1 S    5.000000
   2 S    1.280000
   2 S    2.100000
   2 S    4.600000
   2 P    0.820000
   2 P    1.480000
   2 P    2.940000
   3 D    2.200000
   4 F    3.300000

 Atom Type    2  (H)
 ==============

 Valence Basis Sets:   5
 -----------------------
   1 S    0.690000
   1 S    0.920000
   1 S    1.580000
   2 P    1.250000
   3 D    2.500000

 Atom Type    3  (Br)
 ==============

 Valence Basis Sets:  20
 -----------------------
   1 S   41.300000
   1 S   32.800000
   2 S   13.900000
   2 P   19.450000
   2 P   13.100000
   3 S    7.200000
   3 S    4.950000
   3 P    7.900000
   3 P    5.050000
   3 D   10.900000
   3 D    6.050000
   3 D    3.500000
   4 S    4.500000
   4 S    2.800000
   4 S    1.800000
   4 P    3.250000
   4 P    1.950000
   4 P    1.200000
   4 D    1.800000
   4 F    1.800000

 Atom Type    4  (N)
 ==============

 Valence Basis Sets:  10
 -----------------------
   1 S    8.740000
   1 S    5.900000
   2 S    5.150000
   2 S    2.500000
   2 S    1.500000
   2 P    3.680000
   2 P    1.880000
   2 P    1.000000
   3 D    2.200000
   4 F    3.300000


 BAS: List of all Elementary Cartesian Basis Functions
 =====================================================

 The numbering in the list below (to the right of the function characteristics) is referred
 to in print-outs of MO eigenvectors and Mulliken populations in the BAS representation
 (as contrasted to the SFO representation).

 Notes:
 1. The functions are characterized by a polynomial prefactor (powers of x,y,z and r) and
    an exponential decay factor alpha.
 2. Since the basis sets are specific for an atom TYPE, the individual functions occur on
    all atoms of that type.
 3. The word 'Core' in the left margin signals that it is a Core Function (CF) : not a
    degree of freedom in the valence set, but only used to ensure orthogonalization of
    the other valence basis functions on the frozen Core Orbitals.


 (power of) X  Y  Z  R     Alpha  on Atom
            ==========     =====     ==========

 C                                    1    2    3    4
                                  ---------------------------------------------------------------------------
            0  0  0  0     7.680      1   31   61   91
            0  0  0  0     5.000      2   32   62   92
            0  0  0  1     1.280      3   33   63   93
            0  0  0  1     2.100      4   34   64   94
            0  0  0  1     4.600      5   35   65   95
            1  0  0  0     0.820      6   36   66   96
            0  1  0  0     0.820      7   37   67   97
            0  0  1  0     0.820      8   38   68   98
            1  0  0  0     1.480      9   39   69   99
            0  1  0  0     1.480     10   40   70  100
            0  0  1  0     1.480     11   41   71  101
            1  0  0  0     2.940     12   42   72  102
            0  1  0  0     2.940     13   43   73  103
            0  0  1  0     2.940     14   44   74  104
            2  0  0  0     2.200     15   45   75  105
            1  1  0  0     2.200     16   46   76  106
            1  0  1  0     2.200     17   47   77  107
            0  2  0  0     2.200     18   48   78  108
            0  1  1  0     2.200     19   49   79  109
            0  0  2  0     2.200     20   50   80  110
            3  0  0  0     3.300     21   51   81  111
            2  1  0  0     3.300     22   52   82  112
            2  0  1  0     3.300     23   53   83  113
            1  2  0  0     3.300     24   54   84  114
            1  1  1  0     3.300     25   55   85  115
            1  0  2  0     3.300     26   56   86  116
            0  3  0  0     3.300     27   57   87  117
            0  2  1  0     3.300     28   58   88  118
            0  1  2  0     3.300     29   59   89  119
            0  0  3  0     3.300     30   60   90  120

 H                                    5    6    7    8    9   10
                                  ---------------------------------------------------------------------------
            0  0  0  0     0.690    121  133  145  157  169  181
            0  0  0  0     0.920    122  134  146  158  170  182
            0  0  0  0     1.580    123  135  147  159  171  183
            1  0  0  0     1.250    124  136  148  160  172  184
            0  1  0  0     1.250    125  137  149  161  173  185
            0  0  1  0     1.250    126  138  150  162  174  186
            2  0  0  0     2.500    127  139  151  163  175  187
            1  1  0  0     2.500    128  140  152  164  176  188
            1  0  1  0     2.500    129  141  153  165  177  189
            0  2  0  0     2.500    130  142  154  166  178  190
            0  1  1  0     2.500    131  143  155  167  179  191
            0  0  2  0     2.500    132  144  156  168  180  192

 Br                                  11
                                  ---------------------------------------------------------------------------
            0  0  0  0    41.300    193
            0  0  0  0    32.800    194
            0  0  0  1    13.900    195
            1  0  0  0    19.450    196
            0  1  0  0    19.450    197
            0  0  1  0    19.450    198
            1  0  0  0    13.100    199
            0  1  0  0    13.100    200
            0  0  1  0    13.100    201
            0  0  0  2     7.200    202
            0  0  0  2     4.950    203
            1  0  0  1     7.900    204
            0  1  0  1     7.900    205
            0  0  1  1     7.900    206
            1  0  0  1     5.050    207
            0  1  0  1     5.050    208
            0  0  1  1     5.050    209
            2  0  0  0    10.900    210
            1  1  0  0    10.900    211
            1  0  1  0    10.900    212
            0  2  0  0    10.900    213
            0  1  1  0    10.900    214
            0  0  2  0    10.900    215
            2  0  0  0     6.050    216
            1  1  0  0     6.050    217
            1  0  1  0     6.050    218
            0  2  0  0     6.050    219
            0  1  1  0     6.050    220
            0  0  2  0     6.050    221
            2  0  0  0     3.500    222
            1  1  0  0     3.500    223
            1  0  1  0     3.500    224
            0  2  0  0     3.500    225
            0  1  1  0     3.500    226
            0  0  2  0     3.500    227
            0  0  0  3     4.500    228
            0  0  0  3     2.800    229
            0  0  0  3     1.800    230
            1  0  0  2     3.250    231
            0  1  0  2     3.250    232
            0  0  1  2     3.250    233
            1  0  0  2     1.950    234
            0  1  0  2     1.950    235
            0  0  1  2     1.950    236
            1  0  0  2     1.200    237
            0  1  0  2     1.200    238
            0  0  1  2     1.200    239
            2  0  0  1     1.800    240
            1  1  0  1     1.800    241
            1  0  1  1     1.800    242
            0  2  0  1     1.800    243
            0  1  1  1     1.800    244
            0  0  2  1     1.800    245
            3  0  0  0     1.800    246
            2  1  0  0     1.800    247
            2  0  1  0     1.800    248
            1  2  0  0     1.800    249
            1  1  1  0     1.800    250
            1  0  2  0     1.800    251
            0  3  0  0     1.800    252
            0  2  1  0     1.800    253
            0  1  2  0     1.800    254
            0  0  3  0     1.800    255

 N                                   12
                                  ---------------------------------------------------------------------------
            0  0  0  0     8.740    256
            0  0  0  0     5.900    257
            0  0  0  1     5.150    258
            0  0  0  1     2.500    259
            0  0  0  1     1.500    260
            1  0  0  0     3.680    261
            0  1  0  0     3.680    262
            0  0  1  0     3.680    263
            1  0  0  0     1.880    264
            0  1  0  0     1.880    265
            0  0  1  0     1.880    266
            1  0  0  0     1.000    267
            0  1  0  0     1.000    268
            0  0  1  0     1.000    269
            2  0  0  0     2.200    270
            1  1  0  0     2.200    271
            1  0  1  0     2.200    272
            0  2  0  0     2.200    273
            0  1  1  0     2.200    274
            0  0  2  0     2.200    275
            3  0  0  0     3.300    276
            2  1  0  0     3.300    277
            2  0  1  0     3.300    278
            1  2  0  0     3.300    279
            1  1  1  0     3.300    280
            1  0  2  0     3.300    281
            0  3  0  0     3.300    282
            0  2  1  0     3.300    283
            0  1  2  0     3.300    284
            0  0  3  0     3.300    285

 Total number of charge fitting functions (nprimf)       890
 Total number of Cartesian basis functions (naos)        285
 Total number of Cartesian core functions  (ncos)          0

 ***************************************************************************************************



                                              ***********************
                                              *  T E C H N I C A L  *
                                              ***********************
  



 =============================================================
 P A R A L L E L I Z A T I O N  and  V E C T O R I Z A T I O N
 =============================================================
  
 Nr of parallel processes:                                1
 Maximum vector length in NumInt loops:                 128



 =====================
 S C F   U P D A T E S
 =====================
  
 Max. nr. of cycles:                               200
 Convergence criterion:                              0.0000010000
   secondary criterion:                              0.0010000000

 Mix parameter (when DIIS does not apply):           0.2000000000
 Mixed ADIIS+SDIIS will be used                  
    Max number of expansion vectors:                10
    Pure ADIIS when Max([F,P]) is above              0.1000000000
    Pure SDIIS when Max([F,P]) is below              0.0010000000
 Automatic ElectronSmearing (in case of problematic SCF convergence) disabled



 =================
 P R E C I S I O N  ***  (General: NumInt, NeglectFunctionTails, ...)  ***
 =================
  

 NumInt:           Target precision:                 4.0000000000
 -------           Initial precision:                4.0000000000
                   Min. precision (optimization):    4.0000000000

 Neglect Functions:          Basis functions:        0.1000000000E-05
 ------------------          Fit functions:          0.1000000000E-05



 ===========================
 L I N E A R   S C A L I N G
 ===========================
  

 Cut-off radii density fit:                        0.1000000000E-07
 Overlap cut-off criterion AO matrix elements:     0.1000000000E-05
 Cut-offs for Coulomb potential and fitted density:0.1000000000E-07
 Cut-off criterion for Coulomb multipole terms:    0.1000000000E-07
 Progressive Convergence parameter:                 0.000000000    
 ***************************************************************************************************



                                            ***************************
                                            *  C O M P U T A T I O N  *
                                            ***************************
  

 Number of elements of the density matrix on this node (used, total):     40755     40755



 ===========================================
 Numerical Integration : Fuzzy Cells (Becke)
 ===========================================
  
 Becke grid quality: NORMAL         
  
 Lebedev angular grid order:             min:  11 max:  23
 Nr. of radial points:                   min:  46 max:  77

 Total nr. of points:      81418
 Nr. of blocks:              637
 Block length:               128
 Nr. of dummy points:        118


 Test of Precision of the Numerical Integration Grid
 ===================================================

 Integral of the Total Core Density:                   0.00000000000000



 ========================
 Density Fitting (zlmFit)
 ========================
  
 ZlmFit Fit Quality: NORMAL         
  
 Max L-expansion:                        min:   6 max:   7
 Nr. of radial interpolation points:     min:  39 max:  72



 =====
 S C F  ***  ScaSCF  ***
 =====
  
 Initial density matrix is calculated as sum of fragments

 CYCLE    1
 SCF Error: norm([F,P])=      5.550935768400, max([F,P])=      1.440364304495
 orbitals (Q,E):
 ---------------
 A :27...46          ( 2.00    -0.5653)  ( 2.00    -0.5480)  ( 2.00    -0.5379)  ( 2.00    -0.5031)
                     ( 2.00    -0.4868)  ( 2.00    -0.4466)  ( 2.00    -0.4457)  ( 2.00    -0.3590)
                     ( 2.00    -0.2939)  ( 2.00    -0.2938)  ( 0.00    -0.1946)  ( 0.00    -0.1481)
                     ( 0.00    -0.1394)  ( 0.00    -0.0646)  ( 0.00    -0.0380)  ( 0.00    -0.0320)
                     ( 0.00    -0.0164)  ( 0.00     0.0019)  ( 0.00     0.0029)  ( 0.00     0.0143)

 CYCLE    2
   MIX coefficients:  0.8000  0.2000
 SCF Error: norm([F,P])=      1.030161678809, max([F,P])=      0.223678685716
 orbitals (Q,E):
 ---------------
 A :27...37          ( 2.00    -0.5082)  ( 2.00    -0.4883)  ( 2.00    -0.4718)  ( 2.00    -0.4454)
                     ( 2.00    -0.4138)  ( 2.00    -0.3864)  ( 2.00    -0.3856)  ( 2.00    -0.3353)
                     ( 2.00    -0.2890)  ( 2.00    -0.2882)  ( 0.00    -0.1664)

 CYCLE    3
  SDIIS (wt  0.000): -0.4997  1.4997
 A-DIIS (wt  1.000):  0.0000  1.0000
  DIIS coefficients:  0.0000  1.0000
 SCF Error: norm([F,P])=      0.494557046124, max([F,P])=      0.099633493202
 orbitals (Q,E):
 ---------------
 A :27...37          ( 2.00    -0.3712)  ( 2.00    -0.3457)  ( 2.00    -0.3208)  ( 2.00    -0.3018)
                     ( 2.00    -0.2605)  ( 2.00    -0.2480)  ( 2.00    -0.2343)  ( 2.00    -0.2324)
                     ( 2.00    -0.2207)  ( 2.00    -0.2178)  ( 0.00    -0.0876)

 CYCLE    4
  SDIIS (wt  0.000):  0.1622  0.3401  0.4978
 A-DIIS (wt  1.000): -0.0000  0.6178  0.3822
  DIIS coefficients: -0.0000  0.6178  0.3822
 SCF Error: norm([F,P])=      0.653004869408, max([F,P])=      0.154586932177
 orbitals (Q,E):
 ---------------
 A :27...37          ( 2.00    -0.4279)  ( 2.00    -0.4065)  ( 2.00    -0.3906)  ( 2.00    -0.3628)
                     ( 2.00    -0.3191)  ( 2.00    -0.2987)  ( 2.00    -0.2963)  ( 2.00    -0.2809)
                     ( 2.00    -0.2311)  ( 2.00    -0.2294)  ( 0.00    -0.1181)

 CYCLE    5
  SDIIS (wt  0.503): -0.2151  0.4831  0.0091  0.7229
 A-DIIS (wt  0.497):  0.0000  0.0000  0.0000  1.0000
  DIIS coefficients: -0.1082  0.2430  0.0046  0.8606
 SCF Error: norm([F,P])=      0.160778377700, max([F,P])=      0.050202968456
 orbitals (Q,E):
 ---------------
 A :27...37          ( 2.00    -0.4317)  ( 2.00    -0.4076)  ( 2.00    -0.3886)  ( 2.00    -0.3638)
                     ( 2.00    -0.3138)  ( 2.00    -0.3064)  ( 2.00    -0.3024)  ( 2.00    -0.2922)
                     ( 2.00    -0.2545)  ( 2.00    -0.2527)  ( 0.00    -0.1198)

 CYCLE    6
  SDIIS (wt  0.000): -0.0077  0.1141  0.0407  0.5547  0.2982
 A-DIIS (wt  1.000):  0.0000  0.0000  0.0000  0.6441  0.3559
  DIIS coefficients:  0.0000  0.0000  0.0000  0.6441  0.3559
 SCF Error: norm([F,P])=      0.251350722711, max([F,P])=      0.090644019729
 orbitals (Q,E):
 ---------------
 A :27...37          ( 2.00    -0.4345)  ( 2.00    -0.4115)  ( 2.00    -0.3948)  ( 2.00    -0.3685)
                     ( 2.00    -0.3274)  ( 2.00    -0.3103)  ( 2.00    -0.3082)  ( 2.00    -0.2906)
                     ( 2.00    -0.2465)  ( 2.00    -0.2448)  ( 0.00    -0.1226)

 CYCLE    7
  SDIIS (wt  0.846): -0.0060  0.0695  0.0302  0.4192  0.2079  0.2791
 A-DIIS (wt  0.154):  0.0000  0.0000  0.0000  0.0500  0.0000  0.9500
  DIIS coefficients: -0.0050  0.0588  0.0255  0.3623  0.1758  0.3826
 SCF Error: norm([F,P])=      0.048647497168, max([F,P])=      0.016272097976
 orbitals (Q,E):
 ---------------
 A :27...37          ( 2.00    -0.4337)  ( 2.00    -0.4105)  ( 2.00    -0.3941)  ( 2.00    -0.3675)
                     ( 2.00    -0.3208)  ( 2.00    -0.3051)  ( 2.00    -0.3026)  ( 2.00    -0.2875)
                     ( 2.00    -0.2418)  ( 2.00    -0.2400)  ( 0.00    -0.1221)

 CYCLE    8
  SDIIS (wt  0.903): -0.0066  0.0248  0.0095  0.2031  0.0824  0.3543  0.3324
 A-DIIS (wt  0.097):  0.0000  0.0000  0.0000  0.0000  0.0000  0.2877  0.7123
  DIIS coefficients: -0.0059  0.0224  0.0086  0.1835  0.0744  0.3478  0.3692
 SCF Error: norm([F,P])=      0.029509816924, max([F,P])=      0.010577654965
 orbitals (Q,E):
 ---------------
 A :27...37          ( 2.00    -0.4327)  ( 2.00    -0.4101)  ( 2.00    -0.3931)  ( 2.00    -0.3669)
                     ( 2.00    -0.3222)  ( 2.00    -0.3053)  ( 2.00    -0.3029)  ( 2.00    -0.2876)
                     ( 2.00    -0.2427)  ( 2.00    -0.2409)  ( 0.00    -0.1212)

 CYCLE    9
  SDIIS (wt  0.989): -0.0033  0.0084  0.0020  0.0669  0.0277  0.1496  0.2200  0.5286
 A-DIIS (wt  0.011):  0.0000  0.0000  0.0000  0.0000  0.0000  0.0000  0.0159  0.9841
  DIIS coefficients: -0.0033  0.0083  0.0020  0.0662  0.0274  0.1480  0.2179  0.5334
 SCF Error: norm([F,P])=      0.005026520815, max([F,P])=      0.002042818431
 orbitals (Q,E):
 ---------------
 A :27...37          ( 2.00    -0.4329)  ( 2.00    -0.4101)  ( 2.00    -0.3933)  ( 2.00    -0.3670)
                     ( 2.00    -0.3224)  ( 2.00    -0.3056)  ( 2.00    -0.3033)  ( 2.00    -0.2877)
                     ( 2.00    -0.2427)  ( 2.00    -0.2409)  ( 0.00    -0.1214)

 CYCLE   10
  SDIIS (wt  1.000): -0.0006  0.0013  0.0003  0.0113  0.0056  0.0332  0.0581  0.2327  0.6583
  DIIS coefficients: -0.0006  0.0013  0.0003  0.0113  0.0056  0.0332  0.0581  0.2327  0.6583
 SCF Error: norm([F,P])=      0.000620371137, max([F,P])=      0.000240352439
 orbitals (Q,E):
 ---------------
 A :27...37          ( 2.00    -0.4329)  ( 2.00    -0.4101)  ( 2.00    -0.3933)  ( 2.00    -0.3670)
                     ( 2.00    -0.3223)  ( 2.00    -0.3056)  ( 2.00    -0.3032)  ( 2.00    -0.2877)
                     ( 2.00    -0.2427)  ( 2.00    -0.2409)  ( 0.00    -0.1214)

 CYCLE   11
  SDIIS (wt  1.000): -0.0000  0.0000 -0.0000  0.0006  0.0007  0.0035  0.0099  0.0636  0.2779  0.6439
  DIIS coefficients: -0.0000  0.0000 -0.0000  0.0006  0.0007  0.0035  0.0099  0.0636  0.2779  0.6439
 SCF Error: norm([F,P])=      0.000122766117, max([F,P])=      0.000034029007
 orbitals (Q,E):
 ---------------
 A :27...37          ( 2.00    -0.4329)  ( 2.00    -0.4101)  ( 2.00    -0.3933)  ( 2.00    -0.3670)
                     ( 2.00    -0.3223)  ( 2.00    -0.3056)  ( 2.00    -0.3032)  ( 2.00    -0.2877)
                     ( 2.00    -0.2427)  ( 2.00    -0.2409)  ( 0.00    -0.1214)

 CYCLE   12
  SDIIS (wt  1.000): -0.0000 -0.0000 -0.0001  0.0001  0.0003  0.0020  0.0179  0.0860  0.2626  0.6313
  DIIS coefficients: -0.0000 -0.0000 -0.0001  0.0001  0.0003  0.0020  0.0179  0.0860  0.2626  0.6313
 SCF Error: norm([F,P])=      0.000023815198, max([F,P])=      0.000004593313
 orbitals (Q,E):
 ---------------
 A :27...37          ( 2.00    -0.4329)  ( 2.00    -0.4101)  ( 2.00    -0.3933)  ( 2.00    -0.3670)
                     ( 2.00    -0.3223)  ( 2.00    -0.3056)  ( 2.00    -0.3032)  ( 2.00    -0.2877)
                     ( 2.00    -0.2427)  ( 2.00    -0.2409)  ( 0.00    -0.1214)

 CYCLE   13
  SDIIS (wt  1.000):  0.0000  0.0000  0.0000  0.0001  0.0004  0.0045  0.0208  0.0762  0.3415  0.5565
  DIIS coefficients:  0.0000  0.0000  0.0000  0.0001  0.0004  0.0045  0.0208  0.0762  0.3415  0.5565
 SCF Error: norm([F,P])=      0.000010443687, max([F,P])=      0.000002588700
 orbitals (Q,E):
 ---------------
 A :27...37          ( 2.00    -0.4329)  ( 2.00    -0.4101)  ( 2.00    -0.3933)  ( 2.00    -0.3670)
                     ( 2.00    -0.3223)  ( 2.00    -0.3056)  ( 2.00    -0.3032)  ( 2.00    -0.2877)
                     ( 2.00    -0.2427)  ( 2.00    -0.2409)  ( 0.00    -0.1214)

 CYCLE   14
  SDIIS (wt  1.000): -0.0000  0.0000 -0.0000 -0.0001  0.0004  0.0022  0.0132  0.0894  0.1971  0.6978
  DIIS coefficients: -0.0000  0.0000 -0.0000 -0.0001  0.0004  0.0022  0.0132  0.0894  0.1971  0.6978
 SCF Error: norm([F,P])=      0.000001432552, max([F,P])=      0.000000365303
 orbitals (Q,E):
 ---------------
 A :27...37          ( 2.00    -0.4329)  ( 2.00    -0.4101)  ( 2.00    -0.3933)  ( 2.00    -0.3670)
                     ( 2.00    -0.3223)  ( 2.00    -0.3056)  ( 2.00    -0.3032)  ( 2.00    -0.2877)
                     ( 2.00    -0.2427)  ( 2.00    -0.2409)  ( 0.00    -0.1214)

 SCF CONVERGED

 CYCLE   15
 ***************************************************************************************************



                                                *******************
                                                *  R E S U L T S  *
                                                *******************
  
 *** Using FIT density in Focky
  SDIIS (wt  1.000):  0.0000 -0.0000  0.0000  0.0003  0.0011  0.0053  0.0320  0.0751  0.3255  0.5607
  DIIS coefficients:  0.0000 -0.0000  0.0000  0.0003  0.0011  0.0053  0.0320  0.0751  0.3255  0.5607
 SCF Error: norm([F,P])=      0.000000628265, max([F,P])=      0.000000234329

 Scaled ZORA Orbital Energies, per Irrep and Spin:
 =================================================
                        Occup              E (au)              E (eV)       Diff (eV) with prev. cycle
                        -----      --------------------        ------       --------------------------
 A
              27        2.000     -0.43286316481860E+00       -11.779              -1.24E-06
              28        2.000     -0.41009448817129E+00       -11.159              -1.53E-06
              29        2.000     -0.39327113647553E+00       -10.701              -1.22E-06
              30        2.000     -0.36695467521273E+00        -9.985              -1.17E-06
              31        2.000     -0.32231486441517E+00        -8.771              -7.67E-07
              32        2.000     -0.30560712943965E+00        -8.316              -6.49E-07
              33        2.000     -0.30321921295932E+00        -8.251              -8.84E-07
              34        2.000     -0.28773652770082E+00        -7.830               2.77E-07
              35        2.000     -0.24270344509870E+00        -6.604               1.38E-06
              36        2.000     -0.24093691805704E+00        -6.556               1.34E-06
              37        0.000     -0.12137783127529E+00        -3.303
              38        0.000     -0.36347606639959E-01        -0.989
              39        0.000     -0.23622080937889E-01        -0.643
              40        0.000     -0.17079695528744E-01        -0.465
              41        0.000      0.27233290394453E-02         0.074
              42        0.000      0.11780535405546E-01         0.321
              43        0.000      0.20826891572934E-01         0.567
              44        0.000      0.55601191468591E-01         1.513
              45        0.000      0.58829217392864E-01         1.601
              46        0.000      0.80178899031144E-01         2.182
  
 HOMO :       36 A                -0.24093691805704E+00
 LUMO :       37 A                -0.12137783127529E+00
  


 All Electron Calculation, thus no Orbital Energies of the Core Orbitals are calculated


 Fit test: (difference of exact and fit density, squared integrated, result summed over spins)
         Sum-of-Fragments:                             0.00000000387818
         Orthogonalized Fragments:                     0.00103215356473
         SCF:                                          0.00112136739723



 ==========================
 Electron Density at Nuclei
 ==========================
  
 The electron density is calculated at points on a small sphere around the center of a nucleus.
 The printed electron density is the average electron density on these points.
 The radius of the sphere is the printed approximate finite nuclear radius.
 Note: ZORA-4 density is used, which includes small component density

         Atom        Nuclear Radius (Angstrom)             Electron Density (a.u.)
         ----        -------------------------             -----------------------
     1)   C                 0.0000320678                              127.26539
     2)   H                 0.0000181514                                0.50097
     3)   Br                0.0000536685                            33512.90964
     4)   C                 0.0000320678                              126.98825
     5)   H                 0.0000181514                                0.51552
     6)   H                 0.0000181514                                0.50732
     7)   C                 0.0000320678                              126.99621
     8)   H                 0.0000181514                                0.50848
     9)   H                 0.0000181514                                0.50709
    10)   H                 0.0000181514                                0.50984
    11)   C                 0.0000320678                              127.40361
    12)   N                 0.0000333706                              206.95207



 =======================================
 M U L L I K E N   P O P U L A T I O N S
 =======================================
  
 The survey below gives for each atom:
 a) the total charge (Z minus electrons)
 b) the net spin polarization (nr of electrons spin-A minus spin-B)
 c) for each spin the atomic electron valence density (integrated) per L-value.

 Atom              Charge    Spin density          S         P         D         F
 ----              ------    ------------       ------    ------    ------    ------
 1 C               0.3025                       3.1574    2.4707    0.0654    0.0041
 2 H              -0.1023                       1.0132    0.0829    0.0062    0.0000
 3 Br             -0.3033                       7.9957   17.2621   10.0346    0.0109
 4 C               0.4267                       2.9237    2.5858    0.0606    0.0033
 5 H              -0.1162                       1.0295    0.0810    0.0057    0.0000
 6 H              -0.1539                       1.0685    0.0794    0.0061    0.0000
 7 C               0.6963                       2.8145    2.4452    0.0418    0.0022
 8 H              -0.1823                       1.0938    0.0825    0.0061    0.0000
 9 H              -0.1732                       1.0831    0.0839    0.0062    0.0000
 10 H             -0.2232                       1.1325    0.0846    0.0062    0.0000
 11 C              0.0761                       3.0959    2.7562    0.0631    0.0087
 12 N             -0.2470                       3.7286    3.4582    0.0557    0.0044

 Populations of individual BAS functions
 ----------------------------------------
 1 C            0.5062  1.4834  0.2926  0.9137 -0.0385  0.0629 -0.1527 -0.1515  0.5403  0.8195
                0.8491  0.1095  0.1902  0.2034 -0.0076  0.0101  0.0093  0.0189  0.0173  0.0173
               -0.0015 -0.0032 -0.0033  0.0015  0.0003  0.0010  0.0037  0.0019  0.0009  0.0028
 4 C            0.5077  1.4812  0.0739  0.8995 -0.0386 -0.1334 -0.1295 -0.1027  0.8282  0.7867
                0.7683  0.2024  0.1829  0.1828  0.0028  0.0096  0.0110  0.0139  0.0136  0.0095
               -0.0022 -0.0018 -0.0008  0.0014  0.0002  0.0015  0.0034  0.0002 -0.0005  0.0019
 7 C            0.5073  1.4817 -0.0510  0.9180 -0.0414 -0.2034 -0.1582 -0.1299  0.8081  0.7963
                0.7478  0.1993  0.1994  0.1857  0.0049  0.0045  0.0083  0.0052  0.0095  0.0094
               -0.0005 -0.0009 -0.0011 -0.0002  0.0003  0.0013 -0.0001 -0.0001  0.0017  0.0019
 11 C           0.5050  1.4812  0.2906  0.8500 -0.0308  0.0854  0.0817  0.0021  0.6611  0.6679
                0.6953  0.1596  0.1713  0.2318 -0.0173  0.0037  0.0194 -0.0056  0.0165  0.0463
               -0.0058 -0.0025 -0.0057 -0.0005  0.0010  0.0082 -0.0037 -0.0027  0.0083  0.0121
 2 H            0.0396  0.6562  0.3174  0.0381  0.0232  0.0215  0.0057  0.0015  0.0013 -0.0003
                0.0007 -0.0027
 5 H            0.0930  0.6054  0.3311  0.0239  0.0239  0.0332 -0.0053  0.0005  0.0008 -0.0004
                0.0017  0.0084
 6 H            0.0930  0.6652  0.3102  0.0323  0.0222  0.0249  0.0078  0.0013  0.0014 -0.0053
                0.0008  0.0002
 8 H            0.1168  0.6645  0.3125  0.0262  0.0340  0.0223 -0.0041  0.0018  0.0003  0.0119
                0.0018 -0.0056
 9 H            0.1031  0.6655  0.3145  0.0310  0.0277  0.0251  0.0010  0.0009  0.0013 -0.0013
                0.0010  0.0032
 10 H           0.1720  0.6518  0.3087  0.0353  0.0252  0.0241  0.0122  0.0020  0.0017 -0.0064
                0.0003 -0.0037
 3 Br           0.7968  1.1334  2.0967  0.8030  0.8037  0.8037  1.1707  1.1697  1.1697  1.6446
                0.2371  1.1593  1.1731  1.1730  0.8751  0.8629  0.8630  0.2684  0.4023  0.4023
                0.2682  0.4026  0.2682  0.7643  1.1479  1.1479  0.7663  1.1493  0.7662  0.3031
                0.4499  0.4499  0.2977  0.4480  0.2978  0.4385  1.2464  0.4022  0.4428  0.6462
                0.6440  0.7442  1.0241  1.0209  0.1297  0.2939  0.2895  0.0292  0.0070  0.0078
               -0.0053  0.0014 -0.0057  0.0283  0.0145  0.0159 -0.0117  0.0006 -0.0110 -0.0091
               -0.0028 -0.0034 -0.0105
 12 N           0.5468  1.4321 -0.0257  1.0244  0.7510  0.1523  0.1586  0.2108  0.6839  0.6980
                0.8363  0.2508  0.2421  0.2253 -0.0032  0.0035  0.0156  0.0026  0.0155  0.0217
               -0.0049 -0.0021 -0.0047 -0.0004  0.0006  0.0063 -0.0029 -0.0024  0.0060  0.0090

 Gross Charges per Atom (Z minus electrons)
 ==========================================
             0.3025   -0.1023   -0.3033    0.4267   -0.1162   -0.1539    0.6963   -0.1823   -0.1732   -0.2232
             0.0761   -0.2470
 Net Total:  0.00000000


 Atom-Atom Population Matrix (off-diagonal elements not doubled)
 ===============================================================

     1 :     4.5112
     2 :    -0.0424    0.8839
     3 :     0.2214   -0.0352   35.2172
     4 :     0.3918    0.4038   -0.0271    4.1834
     5 :     0.3870    0.0054   -0.0332   -0.0568    0.9151
     6 :    -0.0506   -0.0643    0.0181    0.3419   -0.0101    0.9817
     7 :     0.3887   -0.0037   -0.0315   -0.0194   -0.0406   -0.0128    3.9407
     8 :    -0.0181    0.0005   -0.0172    0.0067   -0.0360   -0.0002    0.3701    0.9721
     9 :    -0.0300    0.0033   -0.0243   -0.0132    0.0152   -0.0075    0.3827   -0.0378    0.9553
    10 :    -0.0386   -0.0058    0.0205   -0.0119   -0.0132   -0.0001    0.3275   -0.0570   -0.0701    1.0712
    11 :    -0.0201   -0.0376   -0.0042    0.3779   -0.0153   -0.0368    0.0019   -0.0007   -0.0003    0.0010
             4.7370
    12 :    -0.0028   -0.0055   -0.0010   -0.0039   -0.0012   -0.0053    0.0002    0.0001   -0.0000   -0.0001
             0.9212    6.3452



 =================================================
 H I R S H F E L D   C H A R G E   A N A L Y S I S
 =================================================
  
 For each fragment: the (numerical) integral of rho(scf) * rho(fragment)/rho(sum-of-fragments)
 (nuclear charges are included, electrons are counted negative)

 The fragments and their ordering are defined in the early G E O M E T R Y output section.
 If you use single-atom fragments, this usually implies that all atoms of the same
 chemical type are grouped together. This may not be the order in which you listed them
 in the input file!

  Fragment                       Charge
 ------------------------------------------
    1  C                         0.0605
    2  C                        -0.0346
    3  C                        -0.0988
    4  C                         0.0753
    5  H                         0.0657
    6  H                         0.0571
    7  H                         0.0682
    8  H                         0.0511
    9  H                         0.0483
   10  H                         0.0493
   11  Br                       -0.1304
   12  N                        -0.2120

 Sum of these charges =         -0.00013806
 (accuracy NumInt/Tails)



 =============================
 V O R O N O I   C H A R G E S
 =============================
  
 For each atom: the (numerical) integral of the total electronic charge density in its Voronoi cell,
 i.e. the region of space that is closer to that atom than to any other atom.
 (cf. Wigner-Seitz cells in crystals)

[...]
                                   11.01%     1 S              -6.532  1.00     5 H
                                    7.84%     2 S               2.394  0.00     5 H
                                   -5.46%     2 P:z             4.589  0.00     1 C
                                   -4.63%     2 P:y             4.589  0.00     2 C
                                   -4.06%     2 P:y             4.589  0.00     3 C
                                   -3.57%     1 P:y            -5.239  0.67     1 C
                                   -3.19%     2 P:z             4.589  0.00     2 C
                                   -2.66%     3 S              10.158  0.00     1 C
                                   -2.63%     3 S              10.158  0.00     3 C
                                    2.02%     1 P:z            -5.239  0.67     1 C
                                    1.74%     2 S             -13.620  2.00     1 C
                                   -1.60%     1 P:y            -5.239  0.67     2 C
                                    1.45%     1 P:z            -5.239  0.67     2 C
                                    1.37%     1 P:x            -5.239  0.67     1 C
                                    1.34%     1 P:y            11.051  0.00     6 H
                                   -1.25%     3 S              10.158  0.00     2 C
                                    1.06%     2 S             -13.620  2.00     2 C
                                   -1.03%     4 P:y             3.720  0.00    11 Br
                                    1.01%     2 P:y             4.589  0.00     4 C
       0.321  0.00    42 A         30.45%     1 S              -6.532  1.00     6 H
                                  -22.38%     2 P:z             4.589  0.00     1 C
                                   22.15%     1 S              -6.532  1.00     9 H
                                   21.79%     2 S               2.394  0.00     9 H
                                   20.01%     2 S               2.394  0.00     6 H
                                   11.94%     2 P:z             4.589  0.00     2 C
                                    6.49%     2 S               2.394  0.00    10 H
                                    5.79%     1 P:y            -5.239  0.67     1 C
                                   -4.79%     1 P:z            -5.239  0.67     1 C
                                    4.74%     2 S               2.394  0.00     7 H
                                   -4.70%     2 P:z             4.589  0.00     3 C
                                    4.43%     1 S              -6.532  1.00     7 H
                                    3.86%     1 S              -6.532  1.00    10 H
                                    2.64%     2 P:z             4.589  0.00     4 C
                                   -2.50%     3 S              14.073  0.00    12 N
                                   -2.46%     3 S              10.158  0.00     3 C
                                   -1.99%     2 P:y             4.589  0.00     1 C
                                    1.82%     2 P:y             4.589  0.00     2 C
                                    1.63%     2 S             -13.620  2.00     3 C
                                   -1.60%     2 S             -13.620  2.00     4 C
                                   -1.55%     3 S              10.158  0.00     4 C
                                   -1.50%     1 P:z            -5.239  0.67     3 C
                                   -1.33%     3 S              10.158  0.00     1 C
                                    1.33%     1 P:y            -5.239  0.67     4 C
                                   -1.27%     2 P:y             4.589  0.00     4 C
                                   -1.17%     2 P:x             4.589  0.00     2 C
                                    1.15%     2 P:x             4.589  0.00     4 C
                                    1.13%     1 P:z            -5.239  0.67     2 C
                                    1.01%     3 P:z            54.789  0.00     1 C
                                    1.01%     2 S             -13.620  2.00     1 C
                                    1.01%     2 S               2.394  0.00     8 H
       0.567  0.00    43 A         28.96%     2 S               2.394  0.00     5 H
                                  -28.24%     2 P:x             4.589  0.00     3 C
                                   22.72%     1 S              -6.532  1.00    10 H
                                  -18.70%     2 P:x             4.589  0.00     2 C
                                   17.32%     2 S               2.394  0.00    10 H
                                   13.47%     1 S              -6.532  1.00     5 H
                                   11.88%     2 P:x             4.589  0.00     1 C
                                   10.33%     2 S               2.394  0.00     9 H
                                    5.22%     1 S              -6.532  1.00     9 H
                                    5.11%     1 P:x            -5.239  0.67     4 C
                                    4.87%     1 P:x            -5.239  0.67     1 C
                                    4.60%     1 S              -6.532  1.00     8 H
                                    2.99%     2 P:x             4.589  0.00     4 C
                                    2.88%     1 P:x            -5.239  0.67     3 C
                                    2.45%     1 P:x            -7.062  1.00    12 N
                                   -2.19%     5 S               6.099  0.00    11 Br
                                    2.15%     1 S              -6.532  1.00     7 H
                                    2.05%     2 S               2.394  0.00     8 H
                                    1.91%     3 S              40.869  0.00    10 H
                                    1.39%     2 P:y             4.589  0.00     4 C
                                    1.28%     2 S               2.394  0.00     7 H
                                   -1.25%     2 P:x             7.649  0.00    12 N
                                    1.09%     4 P:x             3.720  0.00    11 Br
       1.513  0.00    44 A         43.28%     1 S              -6.532  1.00     8 H
                                  -21.04%     2 P:y             4.589  0.00     3 C
                                   11.25%     1 S              -6.532  1.00    10 H
                                   10.61%     2 S               2.394  0.00     8 H
                                    9.66%     2 S               2.394  0.00     6 H
                                   -9.10%     2 P:x             4.589  0.00     2 C
                                    9.06%     1 S              -6.532  1.00     7 H
                                    8.49%     1 P:y            -5.239  0.67     3 C
                                    8.38%     1 S              -6.532  1.00     6 H
                                    6.72%     1 S              -6.532  1.00     9 H
                                   -4.73%     2 P:x             4.589  0.00     3 C
                                    4.66%     2 S               2.394  0.00     5 H
                                   -4.51%     2 P:z             4.589  0.00     1 C
                                    4.35%     1 P:z            -5.239  0.67     3 C
                                    2.68%     3 S              40.869  0.00     8 H
                                    2.35%     1 P:x            -5.239  0.67     4 C
                                    1.94%     1 S              -6.532  1.00     5 H
                                    1.90%     3 S              40.869  0.00     7 H
                                    1.88%     1 P:y            -5.239  0.67     4 C
                                    1.66%     2 S               2.394  0.00     7 H
                                    1.63%     1 P:x            -5.239  0.67     3 C
                                    1.62%     1 P:y            -5.239  0.67     2 C
                                   -1.57%     3 S              10.158  0.00     1 C
                                   -1.37%     2 P:y             4.589  0.00     4 C
                                    1.31%     4 P:y             3.720  0.00    11 Br
                                   -1.10%     2 P:z             4.589  0.00     3 C
                                    1.08%     1 P:y            -7.062  1.00    12 N
                                    1.03%     1 P:x            -7.062  1.00    12 N
       1.601  0.00    45 A         28.73%     1 S              -6.532  1.00     9 H
                                   25.67%     1 S              -6.532  1.00     5 H
                                  -18.32%     2 P:x             4.589  0.00     2 C
                                   14.35%     1 S              -6.532  1.00    10 H
                                  -12.59%     2 P:x             4.589  0.00     3 C
                                    9.64%     2 S               2.394  0.00     9 H
                                    8.45%     1 S              -6.532  1.00     7 H
                                   -8.06%     2 P:y             4.589  0.00     3 C
                                    7.33%     2 S               2.394  0.00     7 H
                                    6.80%     1 P:x            -5.239  0.67     3 C
                                    5.28%     1 P:x            -5.239  0.67     2 C
                                    4.52%     2 P:x             4.589  0.00     4 C
                                    4.38%     2 S               2.394  0.00     8 H
                                    2.93%     1 S              -6.532  1.00     8 H
                                    2.84%     3 S              40.869  0.00     9 H
                                    2.79%     1 P:x            -5.239  0.67     4 C
                                    2.68%     1 S              -6.532  1.00     6 H
                                   -2.35%     2 P:y             4.589  0.00     2 C
                                   -2.07%     2 P:z             4.589  0.00     3 C
                                    1.67%     1 P:z            -5.239  0.67     2 C
                                    1.47%     2 P:z             4.589  0.00     2 C
                                    1.15%     3 S              40.869  0.00     5 H
                                    1.11%     3 S              40.869  0.00     7 H
                                    1.04%     2 S               2.394  0.00     5 H
                                    1.01%     1 P:y            -5.239  0.67     3 C
                                    1.00%     3 S              40.869  0.00    10 H



 =======================================================================
 Electrostatic potential at the Nuclei due to electrons and other nuclei
 =======================================================================
  
         Atom                  Potential
         ----                  ---------
     1)   C                  14.68911108
     2)   H                   1.04617178
     3)   Br                180.54912204
     4)   C                  14.70976893
     5)   H                   1.05273144
     6)   H                   1.04440917
     7)   C                  14.75419633
     8)   H                   1.08199048
     9)   H                   1.07774514
    10)   H                   1.07226740
    11)   C                  14.75141241
    12)   N                  18.42771090
 Mulliken charges used for AMS results%charges...


    =====================
     CALCULATION RESULTS
    =====================

Energy (hartree)            -2.36745492


--------------
Atomic charges
--------------
  Index   Atom    Charge
      1      C    0.3025
      2      H   -0.1023
      3     Br   -0.3033
      4      C    0.4267
      5      H   -0.1162
      6      H   -0.1539
      7      C    0.6963
      8      H   -0.1823
      9      H   -0.1732
     10      H   -0.2232
     11      C    0.0761
     12      N   -0.2470


Dipole moment vector    (Debye):    -2.07285327   -1.66001365    4.35835219
              magnitude (Debye):     5.10368493


-----------------------
Molecular orbitals info
-----------------------
n orbitals:              252
n spin:                    1

Note: only printing virtual orbitals with
      energy smaller than HOMO + 100. eV

HOMO (eV):              -6.5562
LUMO (eV):              -3.3029
HOMO-LUMO gap (eV):      3.2534

   Index   Energy (eV)    Occupation
     166       91.8433         0.000       
     165       91.6282         0.000       
     164       90.1208         0.000       
     163       88.7425         0.000       
     162       87.1043         0.000       
     161       85.7973         0.000       
     160       83.7518         0.000       
     159       83.3189         0.000       
     158       82.3026         0.000       
     157       81.6835         0.000       
     156       80.8377         0.000       
     155       80.6471         0.000       
     154       79.5500         0.000       
     153       78.8646         0.000       
     152       77.6118         0.000       
     151       77.2784         0.000       
     150       77.0775         0.000       
     149       76.7020         0.000       
     148       76.2298         0.000       
     147       75.9353         0.000       
     146       74.7875         0.000       
     145       73.5443         0.000       
     144       73.2972         0.000       
     143       71.5678         0.000       
     142       69.9375         0.000       
     141       67.9687         0.000       
     140       65.9249         0.000       
     139       65.7159         0.000       
     138       64.9387         0.000       
     137       62.5593         0.000       
     136       62.3507         0.000       
     135       61.6722         0.000       
     134       60.8742         0.000       
     133       59.4647         0.000       
     132       58.1584         0.000       
     131       57.5325         0.000       
     130       56.4599         0.000       
     129       54.7551         0.000       
     128       54.2209         0.000       
     127       52.2296         0.000       
     126       51.4390         0.000       
     125       51.0700         0.000       
     124       48.5500         0.000       
     123       48.3527         0.000       
     122       48.0349         0.000       
     121       46.5746         0.000       
     120       45.3448         0.000       
     119       44.3213         0.000       
     118       43.7682         0.000       
     117       43.3216         0.000       
     116       42.9050         0.000       
     115       42.5853         0.000       
     114       39.8396         0.000       
     113       38.3235         0.000       
     112       37.9117         0.000       
     111       37.1237         0.000       
     110       36.5444         0.000       
     109       36.0023         0.000       
     108       35.3267         0.000       
     107       34.8559         0.000       
     106       34.2873         0.000       
     105       33.5642         0.000       
     104       33.1385         0.000       
     103       31.6752         0.000       
     102       31.5440         0.000       
     101       30.3725         0.000       
     100       30.0585         0.000       
      99       29.7506         0.000       
      98       29.1956         0.000       
      97       29.1070         0.000       
      96       28.6848         0.000       
      95       27.8906         0.000       
      94       27.3910         0.000       
      93       26.8919         0.000       
      92       25.9094         0.000       
      91       25.5335         0.000       
      90       24.9193         0.000       
      89       24.8896         0.000       
      88       24.8081         0.000       
      87       23.9635         0.000       
      86       23.1929         0.000       
      85       23.0432         0.000       
      84       22.3001         0.000       
      83       21.5549         0.000       
      82       21.0841         0.000       
      81       19.3517         0.000       
      80       18.2801         0.000       
      79       17.4958         0.000       
      78       16.9079         0.000       
      77       16.1967         0.000       
      76       15.0301         0.000       
      75       13.9816         0.000       
      74       13.2757         0.000       
      73       12.3426         0.000       
      72       12.0520         0.000       
      71       11.3114         0.000       
      70       11.0792         0.000       
      69       10.6033         0.000       
      68       10.0781         0.000       
      67        9.9226         0.000       
      66        9.5167         0.000       
      65        9.0761         0.000       
      64        8.8509         0.000       
      63        8.6336         0.000       
      62        8.1758         0.000       
      61        8.0186         0.000       
      60        7.6110         0.000       
      59        6.7181         0.000       
      58        6.5184         0.000       
      57        6.1239         0.000       
      56        5.3940         0.000       
      55        5.3219         0.000       
      54        5.0279         0.000       
      53        4.8050         0.000       
      52        4.2966         0.000       
      51        4.2481         0.000       
      50        3.5707         0.000       
      49        3.4958         0.000       
      48        3.2045         0.000       
      47        2.4672         0.000       
      46        2.1818         0.000       
      45        1.6008         0.000       
      44        1.5130         0.000       
      43        0.5667         0.000       
      42        0.3206         0.000       
      41        0.0741         0.000       
      40       -0.4648         0.000       
      39       -0.6428         0.000       
      38       -0.9891         0.000       
      37       -3.3029         0.000 < LUMO
      36       -6.5562         2.000 < HOMO
      35       -6.6043         2.000       
      34       -7.8297         2.000       
      33       -8.2510         2.000       
      32       -8.3160         2.000       
      31       -8.7706         2.000       
      30       -9.9853         2.000       
      29      -10.7015         2.000       
      28      -11.1592         2.000       
      27      -11.7788         2.000       
      26      -12.5897         2.000       
      25      -13.7356         2.000       
      24      -15.6802         2.000       
      23      -18.7009         2.000       
      22      -19.1530         2.000       
      21      -21.3324         2.000       
      20      -22.6377         2.000       
      19      -65.1876         2.000       
      18      -65.1885         2.000       
      17      -65.4152         2.000       
      16      -65.4192         2.000       
      15      -65.4921         2.000       
      14     -171.7598         2.000       
      13     -171.7653         2.000       
      12     -172.0710         2.000       
      11     -235.6370         2.000       
      10     -270.8706         2.000       
       9     -271.3607         2.000       
       8     -272.0504         2.000       
       7     -272.7831         2.000       
       6     -381.8228         2.000       
       5    -1525.8760         2.000       
       4    -1525.8781         2.000       
       3    -1525.9836         2.000       
       2    -1729.0002         2.000       
       1   -13295.4993         2.000       

AMS application finished. Exiting.
NORMAL TERMINATION
     Total cpu time:      35.24
  Total system time:       0.33
 Total elapsed time:      35.72
NORMAL TERMINATION
