
                                 *****************
                                 * O   R   C   A *
                                 *****************

                                            #,                                       
                                            ###                                      
                                            ####                                     
                                            #####                                    
                                            ######                                   
                                           ########,                                 
                                     ,,################,,,,,                         
                               ,,#################################,,                 
                          ,,##########################################,,             
                       ,#########################################, ''#####,          
                    ,#############################################,,   '####,        
                  ,##################################################,,,,####,       
                ,###########''''           ''''###############################       
              ,#####''   ,,,,##########,,,,          '''####'''          '####       
            ,##' ,,,,###########################,,,                        '##       
           ' ,,###''''                  '''############,,,                           
         ,,##''                                '''############,,,,        ,,,,,,###''
      ,#''                                            '''#######################'''  
     '                                                          ''''####''''         
             ,#######,   #######,   ,#######,      ##                                
            ,#'     '#,  ##    ##  ,#'     '#,    #''#        ,####,    ,#,          
            ##       ##  ##   ,#'  ##            #'  '#       #'       ,# #          
            ##       ##  #######   ##           ,######,      #####,      #          
            '#,     ,#'  ##    ##  '#,     ,#' ,#      #,     #,   #      #          
             '#######'   ##     ##  '#######'  #'      '#     '####' #    #          



                #########################################################
                #                        -***-                          #
                #          Department of theory and spectroscopy        #
                #                                                       #
                #                      Frank Neese                      #
                #                                                       #
                #     Directorship, Architecture, Infrastructure        #
                #                    SHARK, DRIVERS                     #
                #        Core code/Algorithms in most modules           #
                #                                                       #
                #        Max Planck Institute fuer Kohlenforschung      #
                #                Kaiser Wilhelm Platz 1                 #
                #                 D-45470 Muelheim/Ruhr                 #
                #                      Germany                          #
                #                                                       #
                #                  All rights reserved                  #
                #                        -***-                          #
                #########################################################


                         Program Version 6.1.1  -  RELEASE   -
                                (GIT: $487d211c$)
                          ($2025-11-21 10:33:24 +0100$)


 With contributions from (in alphabetic order):
[Max-Planck-Institut fuer Kohlenforschung]                               
  Daniel Aravena         : Magnetic Suceptibility                        
  Michael Atanasov       : Ab Initio Ligand Field Theory (pilot matlab implementation)
  Alexander A. Auer      : GIAO ZORA, VPT2 properties, NMR spectrum      
  Ute Becker             : All parallelization in ORCA, NUMFREQ, NUMCALC 
  Giovanni Bistoni       : ED, misc. LED, open-shell LED, HFLD           
  Dmytro Bykov           : pre 5.0 version of the SCF Hessian            
  Marcos Casanova-Páez   : Triplet and SCS-CIS(D). UHF-(DLPNO)-IP/EA/STEOM-CCSD. UHF-CVS-IP/STEOM-CCSD   
  Vijay G. Chilkuri      : MRCI spin determinant printing, contributions to CSF-ICE 
  Pauline Colinet        : FMM embedding                                 
  Dipayan Datta          : RHF DLPNO-CCSD density                        
  Achintya Kumar Dutta   : EOM-CC, STEOM-CC                              
  Nicolas Foglia         : Exact transition moments, OPA infrastructure, MCD improvements    
  Dmitry Ganyushin       : Spin-Orbit,Spin-Spin,Magnetic field MRCI      
  Miquel Garcia-Rates    : C-PCM and meta-GGA Hessian, CCSD/C-PCM, Gaussian charge scheme 
  Tiago L. C. Gouveia    : GS-ROHF, GS-ROCIS                             
  Yang Guo               : DLPNO-NEVPT2, F12-NEVPT2, CIM, IAO-localization        
  Andreas Hansen         : Spin unrestricted coupled pair/coupled cluster methods 
  Ingolf Harden          : AUTO-CI MPn and infrastructure                
  Benjamin Helmich-Paris : MC-RPA, TRAH-(SCF,CASSCF), AVAS, COSX integrals, SCF dyn. polar., MC-PDFT, srDFT 
  Lee Huntington         : MR-EOM, pCC                                   
  Robert Izsak           : Overlap fitted RIJCOSX, COSX-SCS-MP3, EOM     
  Riya Kayal             : Wick's Theorem for AUTO-CI, AUTO-CI UHF-CCSDT 
  Emily Kempfer          : AUTO-CI RHF CISDT and CCSDT, approximate NEVPT4
  Christian Kollmar      : KDIIS, OOCD, Brueckner-CCSD(T), CCSD density, CASPT2, CASPT2-K, improved NEVPT2 
  Axel Koslowski         : Symmetry handling                             
  Simone Kossmann        : meta-GGA functionals, TD-DFT gradient, OOMP2, (MP2 Hessian; deprecated post 5.0) 
  Lucas Lang             : DCDCAS, Hyperfine gauge corrections, ICE-SOC+SSC
  Marvin Lechner         : AUTO-CI (C++ implementation), FIC-MRCC        
  Spencer Leger          : CASSCF response                               
  Dagmar Lenk            : GEPOL surface, SMD, ORCA-2-JSON               
  Dimitrios Liakos       : Extrapolation schemes; Compound Job, Property file
  Dimitrios Manganas     : Further ROCIS development; embedding schemes. LFT, Crystal Embedding 
  Dimitrios Pantazis     : SARC Basis sets                               
  Anastasios Papadopoulos: AUTO-CI, single reference methods and gradients 
  Taras Petrenko         : pre 6.0 DFT Hessian and TD-DFT gradient,  ECA, NRVS 
  Petra Pikulova         : Analytic Raman intensities                    
  Peter Pinski           : DLPNO-MP2, DLPNO-MP2 Gradient                 
  Shashank Vittal Rao    : ES-AILFT, MagRelax                            
  Christoph Reimann      : Effective Core Potentials                     
  Marius Retegan         : Local ZFS, SOC                                
  Christoph Riplinger    : Optimizer, TS searches, QM/MM, DLPNO-CCSD(T), (RO)-DLPNO pert. Triples 
  Michael Roemelt        : Original ROCIS implementation, recursive CI coupling coefficients
  Masaaki Saitow         : Open-shell DLPNO-CCSD energy and density      
  Barbara Sandhoefer     : DKH picture change effects                    
  Yorick L. A. Schmerwitz: GMF and freeze-and-release deltaSCF, NEB S-IDPP initial path                    
  Kantharuban Sivalingam : CASSCF convergence/infrastructure, NEVPT2, NEVPT3, NEVPT4(SD), FIC-MRCI and CEPA variants
  Bernardo de Souza      : ESD, SOC TD-DFT                               
  Georgi L. Stoychev     : AutoAux, RI-MP2 NMR, DLPNO-MP2 response, X2C  
  Van Anh Tran           : RI-MP2 g-tensors                              
  Willem Van den Heuvel  : Paramagnetic NMR                              
  Zikuan Wang            : NOTCH, Electric field optimization            
  Frank Wennmohs         : Technical directorship and infrastructure     
  Hang Xu                : AUTO-CI-Response properties                   
                                                                         
[FACCTs GmbH]                                                            
  Markus Bursch, Nicolas Foglia, Miquel Garcia-Rates, Ingolf Harden, Hagen Neugebauer, Anastasios Papadopoulos, 
  Christoph Riplinger, Bernardo de Souza, Georgi L. Stoychev                                                    
                                                                 
  APM, various basis sets, CI-OPT, improved COSX, DLPNO-Multilevel,           
  DOCKER, DRACO, updates on ESD, Fragmentator, GOAT, IRC, LR-CPCM, L-BFGS, MBIS, meta-GGA TD-DFT gradient, ML-optimized integration grids, 
  MM, NACMEs, nearIR, NEB, NEB-TS, NL-DFT gradient (VV10), 2- and 3-layer-ONIOM, interface openCOSMO-RS, QMMM,   
  Crystal-QMMM, RESP, rigid body optimization, SF, symmetry and pop. for TD-DFT, various functionals, SOLVATOR                                   
                                                                         
[Other institutions]                                                     
  V. Asgeirsson          : NEB                                           
  Christoph Bannwarth    : sTDA-DFT, sTD-DFT, PBEh-3c, B97-3c, D3        
  Giovanni Bistoni       : ETS/NOCV, ADLD/ADEX, COVALED                  
  Martin Brehm           : Molecular dynamics                            
  Ronald Cardenas        : ETS/NOCV                                      
  Martina Colucci        : COVALED                                       
  Sebastian Ehlert       : rSCAN, r2SCAN, r2SCAN-3c, D4, dhf basis sets  
  Marvin Friede          : D4 for Fr, Ra, Ac-Lr                          
  Lars Goerigk           : TD-DFT with DH, B97 family of functionals     
  Stefan Grimme          : VdW corrections, initial TS optimization, DFT functionals, gCP, sTDA/sTD-DF 
  Waldemar Hujo          : DFT-NL                                        
  H. Jonsson             : NEB                                           
  Holger Kruse           : gCP                                           
  Marcel Mueller         : wB97X-3c, vDZP basis set                      
  Hagen Neugebauer       : wr2SCAN, Native XTB                           
  Gianluca Regni         : ADLD/ADEX                                     
  Tobias Risthaus        : pre 6.0 range-separated hybrid DFT and stability analysis
  Lukas Wittmann         : regularized MP2, r2SCAN double-hybrids, wr2SCAN        
                                                                         
We gratefully acknowledge several colleagues who have allowed us to      
interface, adapt or use parts of their codes:                            
  Ed Valeev, F. Pavosevic, A. Kumar             : LibInt (2-el integral package), F12 methods 
  Garnet Chan, S. Sharma, J. Yang, R. Olivares  : DMRG                   
  Ulf Ekstrom                                   : XCFun DFT Library      
  Mihaly Kallay                                 : mrcc  (arbitrary order and MRCC methods)
  Frank Weinhold                                : gennbo (NPA and NBO analysis)           
  Simon Mueller                                 : openCOSMO-RS                            
  Christopher J. Cramer and Donald G. Truhlar   : smd solvation model                     
  S Lehtola, MJT Oliveira, MAL Marques          : LibXC Library                           
  Liviu Ungur et al                             : ANISO software                          


 Your calculation uses the libint2 library for the computation of 2-el integrals
 For citations please refer to: http://libint.valeyev.net

 Your ORCA version has been built with support for libXC version: 7.0.0
 For citations please refer to: https://libxc.gitlab.io

 This ORCA versions uses:
   CBLAS   interface :  Fast vector & matrix operations
   LAPACKE interface :  Fast linear algebra routines
   SCALAPACK package :  Parallel linear algebra routines
   Shared memory     :  Shared parallel matrices
   BLAS/LAPACK       :  OpenBLAS 0.3.29  USE64BITINT DYNAMIC_ARCH NO_AFFINITY SkylakeX SINGLE_THREADED
        Core in use  :  SkylakeX
   Copyright (c) 2011-2014, The OpenBLAS Project


  ***********************************
  * Starting time: Sat May 23 01:15:37 2026
  * Host name:     n047.hpc
  * Process ID:    3184278
  * Working dir.:  /gpfs/home1/yeseo1ee/projects/v1-claisen-asr/runs/br/orca
  ***********************************

NOTE: MaxCore=4000 MB was set to SCF,MP2,MDCI,CIPSI,MRCI,RASCI and CIS
      => If you want to overwrite this, your respective input block should be placed after the MaxCore statement


***************************************
The coordinates will be read from file: ts_guess.xyz
***************************************


Your calculation utilizes the atom-pairwise dispersion correction
based on EEQ partial charges (D4)


================================================================================

cite the ECPs for C  [vDZP-ECP], Br [vDZP-ECP], O  [vDZP-ECP] as follows:
   B-Ne (ecp-2-mwb), Al-Ar (ecp-10-mwb), Ga-Kr (ecp-28-mwb), Y-Cd (ecp-28-mwb), In-Xe (ecp-46-mwb):
     A. Bergner, M. Dolg, W. Küchle, H. Stoll, and H. Preuß, Mol. Phys. 80, 1431 (1993)., T. Leininger, A. Berning, A. Nicklass, H. Stoll, H.-J. Werner, and H.-J.Flad, Chem. Phys. 217, 19 (1997).
   Na-Mg, K-Ca, Rb-Sr, Cs-Ba (CRENBL):
     L. Fernandez Pacios and P. A. Christiansen, J. Chem. Phys. 82, 2664 (1985)., M. M. Hurley, L. F. Pacios, P. A. Christiansen, R. B. Ross, and W. C. Ermler, J. Chem. Phys. 84, 6840 (1986)., L. A. LaJohn, P. A. Christiansen, R. B. Ross, T. Atashroo, and W. C. Ermler, J. Chem. Phys. 87, 2812 (1987)., R. B. Ross, J. M. Powers, T. Atashroo, W. C. Ermler, L. A. LaJohn, and P. A. Christiansen, J. Chem. Phys. 93, 6654 (1990). 
   Sc-Zn (ecp-10-mdf):
     M. Dolg, U. Wedig, H. Stoll, and H. Preuss, J. Chem. Phys. 86, 866 (1986). 
   Y-Cd (ecp-28-mwb), Hf-Hg (ecp-60-mwb):
     D. Andrae, U. Häußermann, M. Dolg, H. Stoll, and H. Preuß, Theor. Chim. Acta 77, 123 (1990). 
   La (ecp-46-mwb):
     M. Dolg, H. Stoll, and H. Preuss, J. Chem. Phys. 90, 1730 (1989)., M. Dolg, H. Stoll, and H. Preuss, Theor. Chim. Acta 85, 441 (1993).
   Ce-Lu (SBKJC-ecp):
     T. R. Cundari and W. J. Stevens, J. Chem. Phys. 98, 5555 (1993).
   Tl-Rn (ecp-78-mwb):
     W. Küchle, M. Dolg, H. Stoll, and H. Preuss, Mol. Phys. 74, 1245 (1991).

ECP parameters for C  [vDZP-ECP], Br [vDZP-ECP], O  [vDZP-ECP] have been obtained from:
MM, AH, SG, J. Chem. Phys. 158, 014103 (2023), 10.1063/5.0133026

----- Orbital basis set information -----
Your calculation utilizes the basis: vDZP
   Marcel Mueller, Andreas Hansen, Stefan Grimme 
   J. Chem. Phys. 158, 014103 (2023). DOI: 10.1063/5.0133026

----- AuxJ basis set information -----
Your calculation utilizes the auxiliary basis: def2/J
   H-Rn: F. Weigend, Phys. Chem. Chem. Phys. 8, 1057 (2006).
   Fr-Lr: K. Eichkorn, F. Weigend, O. Treutler, R. Ahlrichs; Theor. Chem. Acc. 97, 119 (1997).

================================================================================
                                        WARNINGS
                       Please study these warnings very carefully!
================================================================================

WARNING: Frozen-Core approximation turned on, but there are no core electrons.
  ===> : Turning off frozen-core approximation


WARNING: Geometry Optimization
  ===> : Switching off AutoStart
         For restart on a previous wavefunction, please use MOREAD

================================================================================
                                       INPUT FILE
================================================================================
NAME = ts.inp
|  1> ! wB97X-3c OptTS Freq TightSCF
|  2> %pal nprocs 8 end
|  3> %maxcore 4000
|  4> %geom
|  5>   Calc_Hess true
|  6>   Recalc_Hess 5
|  7> end
|  8> * xyzfile 0 1 ts_guess.xyz
|  9> 
| 10>                          ****END OF INPUT****
================================================================================

                       *****************************
                       * Geometry Optimization Run *
                       *****************************

Geometry optimization settings:
Update method            Update   .... Bofill
Choice of coordinates    CoordSys .... (2022) Redundant Internals
Initial Hessian          InHess   .... Almloef's Model
Max. no of cycles        MaxIter  .... 50

Convergence Tolerances:
Energy Change            TolE     ....  5.0000e-06 Eh
Max. Gradient            TolMAXG  ....  3.0000e-04 Eh/bohr
RMS Gradient             TolRMSG  ....  1.0000e-04 Eh/bohr
Max. Displacement        TolMAXD  ....  4.0000e-03 bohr
RMS Displacement         TolRMSD  ....  2.0000e-03 bohr
Strict Convergence                .... False

------------------------------------------------------------------------------
                        ORCA OPTIMIZATION COORDINATE SETUP
------------------------------------------------------------------------------

The optimization will be done in redundant internal coordinates (2022)
Making redundant internal coordinates   ...  (2022 redundants) done
Following TS mode number                ...     0
Evaluating the initial hessian          ...  (Is done on the fly) done
Evaluating the coordinates              ...  done
Calculating the B-matrix                .... done
Calculating the G-matrix                .... done
The number of degrees of freedom        ....   50

    -----------------------------------------------------------------
                    Redundant Internal Coordinates


    -----------------------------------------------------------------
         Definition                    Initial Value    d2E/dq (diagonal element)
    -----------------------------------------------------------------
      1. B(C   1,C   0)                  1.3388         0.000000   
      2. B(Br  2,C   1)                  1.9258         0.000000   
      3. B(O   3,C   1)                  1.3046         0.000000   
      4. B(C   4,O   3)                  1.5361         0.000000   
      5. B(C   5,C   4)                  1.4543         0.000000   
      6. B(C   6,C   5)                  1.3454         0.000000   
      7. B(H   7,C   0)                  1.0775         0.000000   
      8. B(H   8,C   0)                  1.0798         0.000000   
      9. B(H   9,C   4)                  1.0875         0.000000   
     10. B(H  10,C   4)                  1.0828         0.000000   
     11. B(H  11,C   5)                  1.0829         0.000000   
     12. B(H  12,C   6)                  1.0832         0.000000   
     13. B(H  13,C   6)                  1.0813         0.000000   
     14. A(H   7,C   0,H   8)          117.9271         0.000000   
     15. A(C   1,C   0,H   7)          118.5320         0.000000   
     16. A(C   1,C   0,H   8)          120.5481         0.000000   
     17. A(C   0,C   1,Br  2)          118.7759         0.000000   
     18. A(Br  2,C   1,O   3)          115.2292         0.000000   
     19. A(C   0,C   1,O   3)          123.2019         0.000000   
     20. A(C   1,O   3,C   4)          112.1837         0.000000   
     21. A(H   9,C   4,H  10)          110.7470         0.000000   
     22. A(C   5,C   4,H  10)          115.6265         0.000000   
     23. A(O   3,C   4,H  10)          102.9344         0.000000   
     24. A(C   5,C   4,H   9)          114.8102         0.000000   
     25. A(O   3,C   4,H   9)          104.8991         0.000000   
     26. A(O   3,C   4,C   5)          106.3873         0.000000   
     27. A(C   4,C   5,H  11)          117.9371         0.000000   
     28. A(C   4,C   5,C   6)          118.0442         0.000000   
     29. A(C   6,C   5,H  11)          119.7548         0.000000   
     30. A(H  12,C   6,H  13)          115.3904         0.000000   
     31. A(C   5,C   6,H  13)          121.3645         0.000000   
     32. A(C   5,C   6,H  12)          120.6832         0.000000   
     33. D(Br  2,C   1,C   0,H   8)     14.7521         0.000000   
     34. D(O   3,C   1,C   0,H   8)    174.9029         0.000000   
     35. D(Br  2,C   1,C   0,H   7)    174.7827         0.000000   
     36. D(O   3,C   1,C   0,H   7)    -25.0666         0.000000   
     37. D(C   4,O   3,C   1,Br  2)     84.5189         0.000000   
     38. D(C   4,O   3,C   1,C   0)    -76.2731         0.000000   
     39. D(C   5,C   4,O   3,C   1)     56.9790         0.000000   
     40. D(H  10,C   4,O   3,C   1)    178.9906         0.000000   
     41. D(H   9,C   4,O   3,C   1)    -65.0832         0.000000   
     42. D(H  11,C   5,C   4,H   9)   -154.2694         0.000000   
     43. D(H  11,C   5,C   4,O   3)     90.1868         0.000000   
     44. D(C   6,C   5,C   4,H  10)    179.8419         0.000000   
     45. D(C   6,C   5,C   4,H   9)     48.9533         0.000000   
     46. D(C   6,C   5,C   4,O   3)    -66.5905         0.000000   
     47. D(H  12,C   6,C   5,C   4)    167.8738         0.000000   
     48. D(H  13,C   6,C   5,H  11)    172.5438         0.000000   
     49. D(H  13,C   6,C   5,C   4)    -31.1130         0.000000   
     50. D(H  12,C   6,C   5,H  11)     11.5306         0.000000   
    -----------------------------------------------------------------

Number of atoms                         .... 14
Number of degrees of freedom            .... 50


         *************************************************************
         *                GEOMETRY OPTIMIZATION CYCLE   1            *
         *************************************************************
---------------------------------
CARTESIAN COORDINATES (ANGSTROEM)
---------------------------------
  C      1.074950    1.164587   -0.155784
  C      1.417318   -0.103249    0.104559
  Br     2.102663   -0.538526    1.850830
  O      0.982795   -1.117767   -0.590999
  C     -0.470640   -1.476796   -0.247166
  C     -1.256082   -0.275044   -0.479410
  C     -1.039656    0.786155    0.318800
  H      0.773007    1.420736   -1.157847
  H      1.393530    1.964055    0.496340
  H     -0.439325   -1.808516    0.788052
  H     -0.678412   -2.307426   -0.909995
  H     -1.679883   -0.128558   -1.465098
  H     -1.449493    1.757561    0.070171
  H     -0.730772    0.662786    1.347679

----------------------------
CARTESIAN COORDINATES (A.U.)
----------------------------
  NO LB      ZA    FRAG     MASS         X           Y           Z
   0 C     4.0000*   0    12.011    2.031362    2.200751   -0.294389
   1 C     4.0000*   0    12.011    2.678342   -0.195113    0.197588
   2 Br    7.0000*   0    79.900    3.973457   -1.017666    3.497562
   3 O     6.0000*   0    15.999    1.857214   -2.112273   -1.116826
   4 C     4.0000*   0    12.011   -0.889381   -2.790740   -0.467077
   5 C     4.0000*   0    12.011   -2.373651   -0.519758   -0.905954
   6 C     4.0000*   0    12.011   -1.964665    1.485617    0.602444
   7 H     1.0000    0     1.008    1.460771    2.684803   -2.188013
   8 H     1.0000    0     1.008    2.633391    3.711526    0.937947
   9 H     1.0000    0     1.008   -0.830205   -3.417599    1.489202
  10 H     1.0000    0     1.008   -1.282013   -4.360404   -1.719641
  11 H     1.0000    0     1.008   -3.174519   -0.242939   -2.768635
  12 H     1.0000    0     1.008   -2.739145    3.321309    0.132605
  13 H     1.0000    0     1.008   -1.380959    1.252484    2.546744
* core charge reduced due to ECP

--------------------------------
INTERNAL COORDINATES (ANGSTROEM)
--------------------------------
 C      0   0   0     0.000000000000     0.00000000     0.00000000
 C      1   0   0     1.338806634256     0.00000000     0.00000000
 Br     2   1   0     1.925779080151   118.77589352     0.00000000
 O      2   1   3     1.304552227624   123.20193016   160.15073813
 C      4   2   1     1.536097999651   112.18374530   283.72693835
 C      5   4   2     1.454325878954   106.38729280    56.97904447
 C      6   5   4     1.345407580714   118.04416167   293.40946856
 H      1   2   3     1.077456196844   118.53196117   174.78267926
 H      1   2   3     1.079771992345   120.54813408    14.75213641
 H      5   4   2     1.087517996407   104.89912554   294.91676862
 H      5   4   2     1.082800782349   102.93435816   178.99059528
 H      6   5   4     1.082888124956   117.93710168    90.18675123
 H      7   6   5     1.083242093356   120.68316219   167.87377520
 H      7   6   5     1.081305400286   121.36451260   328.88696394

---------------------------
INTERNAL COORDINATES (A.U.)
---------------------------
 C      0   0   0     0.000000000000     0.00000000     0.00000000
 C      1   0   0     2.529977885020     0.00000000     0.00000000
 Br     2   1   0     3.639195055921   118.77589352     0.00000000
 O      2   1   3     2.465246437606   123.20193016   160.15073813
 C      4   2   1     2.902804534204   112.18374530   283.72693835
 C      5   4   2     2.748277620697   106.38729280    56.97904447
 C      6   5   4     2.542451866050   118.04416167   293.40946856
 H      1   2   3     2.036097133332   118.53196117   174.78267926
 H      1   2   3     2.040473352611   120.54813408    14.75213641
 H      5   4   2     2.055111178921   104.89912554   294.91676862
 H      5   4   2     2.046196936236   102.93435816   178.99059528
 H      6   5   4     2.046361989843   117.93710168    90.18675123
 H      7   6   5     2.047030893178   120.68316219   167.87377520
 H      7   6   5     2.043371073671   121.36451260   328.88696394

---------------------
BASIS SET INFORMATION
---------------------
There are 4 groups of distinct atoms

 Group   1 Type C   : 6s6p2d contracted to 2s2p1d pattern {42/42/2}
 Group   2 Type Br  : 6s6p2d contracted to 2s2p1d pattern {42/42/2}
 Group   3 Type O   : 6s6p2d contracted to 2s2p1d pattern {42/42/2}
 Group   4 Type H   : 8s2p contracted to 2s1p pattern {53/2}

Atom   0C    basis set group =>   1
Atom   1C    basis set group =>   1
Atom   2Br   basis set group =>   2
Atom   3O    basis set group =>   3
Atom   4C    basis set group =>   1
Atom   5C    basis set group =>   1
Atom   6C    basis set group =>   1
Atom   7H    basis set group =>   4
Atom   8H    basis set group =>   4
Atom   9H    basis set group =>   4
Atom  10H    basis set group =>   4
Atom  11H    basis set group =>   4
Atom  12H    basis set group =>   4
Atom  13H    basis set group =>   4
---------------------------------
AUXILIARY/J BASIS SET INFORMATION
---------------------------------
There are 4 groups of distinct atoms

 Group   1 Type C   : 12s5p4d2f1g contracted to 6s4p3d1f1g pattern {711111/2111/211/2/1}
 Group   2 Type Br  : 19s5p5d3f1g contracted to 8s4p3d2f1g pattern {121111111/2111/311/21/1}
 Group   3 Type O   : 12s5p4d2f1g contracted to 6s4p3d1f1g pattern {711111/2111/211/2/1}
 Group   4 Type H   : 5s2p1d contracted to 3s1p1d pattern {311/2/1}

Atom   0C    basis set group =>   1
Atom   1C    basis set group =>   1
Atom   2Br   basis set group =>   2
Atom   3O    basis set group =>   3
Atom   4C    basis set group =>   1
Atom   5C    basis set group =>   1
Atom   6C    basis set group =>   1
Atom   7H    basis set group =>   4
Atom   8H    basis set group =>   4
Atom   9H    basis set group =>   4
Atom  10H    basis set group =>   4
Atom  11H    basis set group =>   4
Atom  12H    basis set group =>   4
Atom  13H    basis set group =>   4
-------------------------
ECP PARAMETER INFORMATION
-------------------------

 Group 1, Type C  ECP vDZP-ECP (replacing 2 core electrons, lmax=3)
 Group 2, Type Br ECP vDZP-ECP (replacing 28 core electrons, lmax=4)
 Group 3, Type O  ECP vDZP-ECP (replacing 2 core electrons, lmax=3)

Atom   0C    ECP group =>   1
Atom   1C    ECP group =>   1
Atom   2Br   ECP group =>   2
Atom   3O    ECP group =>   3
Atom   4C    ECP group =>   1
Atom   5C    ECP group =>   1
Atom   6C    ECP group =>   1



           ************************************************************
           *        Program running with 8 parallel MPI-processes     *
           *              working on a common directory               *
           ************************************************************
------------------------------------------------------------------------------
                             ORCA STARTUP CALCULATIONS
                           -- RI-GTO INTEGRALS CHOSEN --
------------------------------------------------------------------------------
------------------------------------------------------------------------------
                   ___                                                        
                  /   \      - P O W E R E D   B Y -                         
                 /     \                                                     
                 |  |  |   _    _      __       _____    __    __             
                 |  |  |  | |  | |    /  \     |  _  \  |  |  /  |          
                  \  \/   | |  | |   /    \    | | | |  |  | /  /          
                 / \  \   | |__| |  /  /\  \   | |_| |  |  |/  /          
                |  |  |   |  __  | /  /__\  \  |    /   |      \           
                |  |  |   | |  | | |   __   |  |    \   |  |\   \          
                \     /   | |  | | |  |  |  |  | |\  \  |  | \   \       
                 \___/    |_|  |_| |__|  |__|  |_| \__\ |__|  \__/        
                                                                              
                      - O R C A' S   B I G   F R I E N D -                    
                                      &                                       
                       - I N T E G R A L  F E E D E R -                       
                                                                              
 v1 FN, 2020, v2 2021, v3 2022-2024                                           
------------------------------------------------------------------------------


----------------------
SHARK INTEGRAL PACKAGE
----------------------

Number of atoms                             ...     14
Number of basis functions                   ...    126
Number of shells                            ...     56
Maximum angular momentum                    ...      2
Integral batch strategy                     ... SHARK/LIBINT Hybrid
RI-J (if used) integral strategy            ... SPLIT-RIJ (Revised 2003 algorithm where possible)
Printlevel                                  ...      1
Contraction scheme used                     ... SEGMENTED contraction
Prescreening option                         ... SCHWARTZ
   Thresh                                   ... 2.500e-11
   Tcut                                     ... 2.500e-12
   Tpresel                                  ... 2.500e-12 
Coulomb Range Separation                    ... NOT USED
Exchange Range Separation                   ... Long Range
   Mu parameter                             ... 3.000e-01
   Scaling (regular/separated)              ... 1.670e-01 8.330e-01
Robust (split-)RI terms used:
  metric    (central integrals)             ... YES
  density   (r.h.s.  integrals)             ... YES
  potential (l.h.s.  integrals)             ... YES
Multipole approximations                    ... NOT USED
Finite Nucleus Model                        ... NOT USED
CABS basis                                  ... NOT available
Auxiliary Coulomb fitting basis             ... AVAILABLE
   # of basis functions in Aux-J            ...    429
   # of shells in Aux-J                     ...    143
   Maximum angular momentum in Aux-J        ...      4
Auxiliary J/K fitting basis                 ... NOT available
Auxiliary Correlation fitting basis         ... NOT available
Auxiliary 'external' fitting basis          ... NOT available

Checking pre-screening integrals            ... done (  0.0 sec) Dimension = 56
   => SHARK Basis and OBASIS are compatible. Storing Pre-screening
Shell pair information
Shell pair cut-off parameter TPreSel        ...   2.5e-12
Total number of shell pairs                 ...      1596
Shell pairs after pre-screening             ...      1596
Total number of primitive shell pairs       ...     14399
Primitive shell pairs kept                  ...     13070
          la=0 lb=0:    406 shell pairs
          la=1 lb=0:    588 shell pairs
          la=1 lb=1:    231 shell pairs
          la=2 lb=0:    196 shell pairs
          la=2 lb=1:    147 shell pairs
          la=2 lb=2:     28 shell pairs

Checking whether 4 symmetric matrices of dimension 126 fit in memory
:Max Core in MB      =   4000.00
 MB in use           =      6.85
 MB left             =   3993.15
 MB needed           =      0.24
 Data fit in memory  = YES
Calculating RI/J V-Matrix + Cholesky decomp.... done (  0.0 sec)
Calculating Nuclear repulsion               ... done (  0.0 sec) ENN=    162.251777892592 Eh

Diagonalization of the overlap matrix:
Smallest eigenvalue                        ... 1.755e-03
Time for diagonalization                   ...    0.002 sec
Threshold for overlap eigenvalues          ... 1.000e-07
Number of eigenvalues below threshold      ... 0
Time for construction of square roots      ...    0.001 sec
Total time needed                          ...    0.004 sec

-------------------
DFT GRID GENERATION
-------------------

General Integration Accuracy     IntAcc      ... 4.388
Radial Grid Type                 RadialGrid  ... OptM3 with GC (2021)
Angular Grid (max. ang.)         AngularGrid ... 4 (Lebedev-302)
Angular grid pruning method      GridPruning ... 4 (adaptive)
Weight generation scheme         WeightScheme... mBecke (2022)
Basis function cutoff            BFCut       ... 1.0000e-11
Integration weight cutoff        WCut        ... 1.0000e-14
Partially contracted basis set               ... off
Rotationally invariant grid construction     ... off
Angular grids for H and He will be reduced by one unit

Total number of grid points                  ...    67710
Total number of batches                      ...     1064
Average number of points per batch           ...       63
Average number of grid points per atom       ...     4836

--------------------
COSX GRID GENERATION
--------------------

GRIDX 1
-------
General Integration Accuracy     IntAcc      ... 3.816
Radial Grid Type                 RadialGrid  ... OptM3 with GC (2021)
Angular Grid (max. ang.)         AngularGrid ... 1 (Lebedev-50)
Angular grid pruning method      GridPruning ... 4 (adaptive)
Weight generation scheme         WeightScheme... mBecke (2022)
Basis function cutoff            BFCut       ... 1.0000e-11
Integration weight cutoff        WCut        ... 1.0000e-14
Partially contracted basis set               ... on
Rotationally invariant grid construction     ... off
Angular grids for H and He will be reduced by one unit

Total number of grid points                  ...    13176
Total number of batches                      ...      111
Average number of points per batch           ...      118
Average number of grid points per atom       ...      941
UseSFitting                                  ... on

GRIDX 2
-------
General Integration Accuracy     IntAcc      ... 4.020
Radial Grid Type                 RadialGrid  ... OptM3 with GC (2021)
Angular Grid (max. ang.)         AngularGrid ... 2 (Lebedev-110)
Angular grid pruning method      GridPruning ... 4 (adaptive)
Weight generation scheme         WeightScheme... mBecke (2022)
Basis function cutoff            BFCut       ... 1.0000e-11
Integration weight cutoff        WCut        ... 1.0000e-14
Partially contracted basis set               ... on
Rotationally invariant grid construction     ... off
Angular grids for H and He will be reduced by one unit

Total number of grid points                  ...    21773
Total number of batches                      ...      179
Average number of points per batch           ...      121
Average number of grid points per atom       ...     1555
UseSFitting                                  ... on

GRIDX 3
-------
General Integration Accuracy     IntAcc      ... 4.338
Radial Grid Type                 RadialGrid  ... OptM3 with GC (2021)
Angular Grid (max. ang.)         AngularGrid ... 3 (Lebedev-194)
Angular grid pruning method      GridPruning ... 4 (adaptive)
Weight generation scheme         WeightScheme... mBecke (2022)
Basis function cutoff            BFCut       ... 1.0000e-11
Integration weight cutoff        WCut        ... 1.0000e-14
Partially contracted basis set               ... on
Rotationally invariant grid construction     ... off
Angular grids for H and He will be reduced by one unit

Total number of grid points                  ...    41010
Total number of batches                      ...      325
Average number of points per batch           ...      126
Average number of grid points per atom       ...     2929
UseSFitting                                  ... on
Grids setup in   0.7 sec
Initializing property integral containers    ... done (  0.0 sec)

SHARK setup successfully completed in   0.8 seconds

Maximum memory used throughout the entire STARTUP-calculation: 21.8 MB


           ************************************************************
           *        Program running with 8 parallel MPI-processes     *
           *              working on a common directory               *
           ************************************************************
-------------------------------------------------------------------------------
                                 ORCA GUESS
                   Start orbitals & Density for SCF / CASSCF
-------------------------------------------------------------------------------

------------
SCF SETTINGS
------------
Hamiltonian:
 Density Functional     Method          .... DFT(GTOs)
 Exchange Functional    Exchange        .... WB97X-V
 Correlation Functional Correlation     .... WB97X-V
 Gradients option       PostSCFGGA      .... off
 Hybrid DFT is turned on
   Fraction HF Exchange ScalHFX         ....  0.167000
   Scaling of DF-GGA-X  ScalDFX         ....  0.000000
   Scaling of DF-GGA-C  ScalDFC         ....  1.000000
   Scaling of DF-LDA-C  ScalLDAC        ....  1.000000
   Perturbative correction              ....  0.000000
 Long-range corrected/Screened/Range-Separated Hybrid DFT is turned on
   Amount of maximum screened exact exchange              ....  0.833000
   Range separation parameter mu (erf(mu*r12)/r12)        ....  0.300000
   NL short-range parameter             ....  6.000000
   NL long-range parameter              ....  0.010000
 RI-approximation to the Coulomb term is turned on
   Number of AuxJ basis functions       .... 429
   RIJ-COSX (HFX calculated with COS-X)).... on


General Settings:
 Integral files         IntName         .... ts
 Hartree-Fock type      HFTyp           .... RHF
 Total Charge           Charge          ....    0
 Multiplicity           Mult            ....    1
 Number of Electrons    NEL             ....   40
 Basis Dimension        Dim             ....  126
 Nuclear Repulsion      ENuc            ....    162.2517778926 Eh

Convergence Acceleration:
 AO-DIIS                CNVDIIS         .... on
   Start iteration      DIISMaxIt       ....    12
   Startup error        DIISStart       ....  0.200000
   # of expansion vecs  DIISMaxEq       ....     5
   Bias factor          DIISBfac        ....   1.050
   Max. coefficient     DIISMaxC        ....  10.000
 MO-DIIS                CNVKDIIS        .... off
 Trust-Rad. Augm. Hess. CNVTRAH         .... auto
   Auto Start mean grad. ratio tolernc. ....  1.125000
   Auto Start start iteration           ....    50
   Auto Start num. interpolation iter.  ....    10
   Max. Number of Micro iterations      ....    24
   Max. Number of Macro iterations      .... Maxiter - #DIIS iter
   Number of Davidson start vectors     ....     2
   Converg. threshold    (grad. norm)   ....   1.000e-05
   Grad. Scal. Fac. for Micro threshold ....   0.100
   Minimum threshold for Micro iter.    ....   1.000e-02
   NR start threshold (gradient norm)   ....   1.000e-04
   Initial trust radius                 ....   0.400
   Minimum AH scaling param. (alpha)    ....   1.000
   Maximum AH scaling param. (alpha)    .... 1000.000
   Quad. conv. algorithm                .... NR
   White noise on init. David. guess    .... on
   Maximum white noise                  ....   0.010
   Pseudo random numbers                .... off
   Inactive MOs                         .... canonical
   Orbital update algorithm             .... Taylor
   Preconditioner                       .... Diag
   Full preconditioner red. dimension   ....   250
 SOSCF                 CNVSOSCF           .... on
   Start iteration     SOSCFMaxIt         ....   150
   Startup grad/error  SOSCFStart         ....  0.003300
   Hessian update      SOSCFHessUp        .... L-BFGS
   Autom. constraints  SOSCFAutoConstrain .... off
 Level Shifting         CNVShift        .... on
   Level shift para.    LevelShift      ....    0.2500
   Turn off err/grad.   ShiftErr        ....    0.0010
 Zerner damping         CNVZerner       .... off
 Static damping         CNVDamp         .... on
   Fraction old density DampFac         ....    0.7000
   Max. Damping (<1)    DampMax         ....    0.9800
   Min. Damping (>=0)   DampMin         ....    0.0000
   Turn off err/grad.   DampErr         ....    0.1000

SCF Procedure:
 Maximum # iterations   MaxIter         ....   125
 SCF integral mode      SCFMode         .... Direct
   Integral package                     .... SHARK and LIBINT hybrid scheme
 Reset frequency        DirectResetFreq ....    20
 Integral Threshold     Thresh          ....  2.500e-11 Eh
 Primitive CutOff       TCut            ....  2.500e-12 Eh

Convergence Tolerance:
 Convergence Check Mode ConvCheckMode   .... Total+1el-Energy
 Convergence forced     ConvForced      .... 0
 Energy Change          TolE            ....  1.000e-08 Eh
 1-El. energy change                    ....  1.000e-05 Eh
 Orbital Gradient       TolG            ....  1.000e-05
 Orbital Rotation angle TolX            ....  1.000e-05
 DIIS Error             TolErr          ....  5.000e-07

------------------------------
INITIAL GUESS: MODEL POTENTIAL
------------------------------
Loading Hartree-Fock densities                     ... done
Atomic calculation to generate a density for atom 0 (C  with ECP)
  Multiplicity assumed   :    1
  Atomic configuration   : 1s2 2s2 2p2 
  Number of open shells  : 1
  Command: /home1/yeseo1ee/orca6/orca_6_1_1/orca ts_atom6.inp "" > ts_atom6.out
Returned from the atomic calculation with res=0
Atomic calculation to generate a density for atom 2 (Br with ECP)
  Multiplicity assumed   :    2
  Atomic configuration   : 1s2 2s2 2p6 3s2 3p6 4s2 3d10 4p5 
  Number of open shells  : 1
  Command: /home1/yeseo1ee/orca6/orca_6_1_1/orca ts_atom35.inp "" > ts_atom35.out
Returned from the atomic calculation with res=0
Atomic calculation to generate a density for atom 3 (O  with ECP)
  Multiplicity assumed   :    3
  Atomic configuration   : 1s2 2s2 2p4 
  Number of open shells  : 1
  Command: /home1/yeseo1ee/orca6/orca_6_1_1/orca ts_atom8.inp "" > ts_atom8.out
Returned from the atomic calculation with res=0
Calculating cut-offs                               ... done
Initializing the effective Hamiltonian             ... done
Setting up the integral package (SHARK)            ... done
Starting the Coulomb interaction                   ... done (   0.0 sec)
Making the grid                                    ... done (   0.1 sec)
Mapping shells                                     ... done
Starting the XC term evaluation                    ... done (   0.0 sec)
  promolecular density results
     # of electrons  =     79.995774580
     EX              =    -93.333546983
     EC              =     -4.115391557
     EX+EC           =    -97.448938540
Transforming the Hamiltonian                       ... done (   0.0 sec)
Diagonalizing the Hamiltonian                      ... done (   0.0 sec)
Back transforming the eigenvectors                 ... done (   0.0 sec)
Now organizing SCF variables                       ... done
                      ------------------
                      INITIAL GUESS DONE (   1.4 sec)
                      ------------------
             **** ENERGY FILE WAS UPDATED (ts.en.tmp) ****
Finished Guess after   1.6 sec
Maximum memory used throughout the entire GUESS-calculation: 9.8 MB


           ************************************************************
           *        Program running with 8 parallel MPI-processes     *
           *              working on a common directory               *
           ************************************************************

-------------------------------------------------------------------------------------------
                                      ORCA LEAN-SCF
                              memory conserving SCF solver
-------------------------------------------------------------------------------------------

----------------------------------------D-I-I-S--------------------------------------------
Iteration    Energy (Eh)           Delta-E    RMSDP     MaxDP     DIISErr   Damp  Time(sec)
-------------------------------------------------------------------------------------------
               ***  Starting incremental Fock matrix formation  ***
    1    -61.7817175513107770     0.00e+00  1.28e-02  6.94e-02  1.70e-01  0.700   2.1
    2    -61.8832976914111441    -1.02e-01  9.70e-03  5.58e-02  1.02e-01  0.700   1.3
                               ***Turning on AO-DIIS***
    3    -61.9355530121917184    -5.23e-02  5.56e-03  4.66e-02  5.19e-02  0.700   1.3
    4    -61.9663802287212775    -3.08e-02  1.28e-02  1.23e-01  3.20e-02  0.000   1.3
    5    -62.0322845178081366    -6.59e-02  1.42e-03  1.18e-02  4.27e-03  0.000   1.3
                              *** Initializing SOSCF ***
---------------------------------------S-O-S-C-F--------------------------------------
Iteration    Energy (Eh)           Delta-E    RMSDP     MaxDP     MaxGrad    Time(sec)
--------------------------------------------------------------------------------------
    6    -62.0327172711563435    -4.33e-04  7.93e-04  4.28e-03  2.13e-03     1.3
               *** Restarting incremental Fock matrix formation ***
    7    -62.0327832515901889    -6.60e-05  5.36e-04  3.65e-03  1.59e-03     2.1
    8    -62.0328302113881023    -4.70e-05  5.53e-04  3.36e-03  6.91e-04     1.9
    9    -62.0328493694908047    -1.92e-05  1.32e-04  6.21e-04  2.85e-04     1.9
   10    -62.0328513247117144    -1.96e-06  4.21e-05  2.84e-04  1.06e-04     1.7
   11    -62.0328514278751868    -1.03e-07  1.75e-05  1.13e-04  4.55e-05     1.6
   12    -62.0328515116564461    -8.38e-08  4.75e-06  2.13e-05  7.74e-06     1.6
   13    -62.0328515154272111    -3.77e-09  1.90e-06  1.08e-05  3.08e-06     1.4
                 **** Energy Check signals convergence ****

               *****************************************************
               *                     SUCCESS                       *
               *           SCF CONVERGED AFTER  13 CYCLES          *
               *****************************************************

Recomputing exchange energy using gridx3       ... done (    3.365 sec)
Old exchange energy                            :     -7.668351809 Eh
New exchange energy                            :     -7.668344815 Eh
Exchange energy change after final integration :      0.000006994 Eh
Total energy after final integration           :    -62.032844521 Eh
             **** ENERGY FILE WAS UPDATED (ts.en.tmp) ****

----------------
TOTAL SCF ENERGY
----------------

Total Energy       :        -62.03284452055185 Eh           -1687.99952 eV

Components:
Nuclear Repulsion  :        162.25177789259183 Eh            4415.09534 eV
Electronic Energy  :       -224.28462940672961 Eh           -6103.09504 eV
One Electron Energy:       -417.57031755032926 Eh          -11362.66601 eV
Two Electron Energy:        193.28568814359966 Eh            5259.57097 eV

Virial components:
Potential Energy   :       -104.50816741354518 Eh           -2843.81181 eV
Kinetic Energy     :         42.47532289299334 Eh            1155.81230 eV
Virial Ratio       :          2.46044433086075

DFT components:
N(Alpha)           :       20.000016757961 electrons
N(Beta)            :       20.000016757961 electrons
N(Total)           :       40.000033515922 electrons
E(X)               :       -8.268518790328 Eh       
E(C)               :       -1.499263469515 Eh       
E(XC)              :       -9.767782259843 Eh       

---------------
SCF CONVERGENCE
---------------

  Last Energy change         ...    3.7708e-09  Tolerance :   1.0000e-08
  Last MAX-Density change    ...    1.0757e-05  Tolerance :   1.0000e-07
  Last RMS-Density change    ...    1.9017e-06  Tolerance :   5.0000e-09
  Last DIIS Error            ...    2.1302e-03  Tolerance :   5.0000e-07
  Last Orbital Gradient      ...    3.0762e-06  Tolerance :   1.0000e-05
  Last Orbital Rotation      ...    9.8035e-06  Tolerance :   1.0000e-05


----------------
ORBITAL ENERGIES
----------------

  NO   OCC          E(Eh)            E(eV) 
   0   2.0000      -1.210108       -32.9287 
   1   2.0000      -0.965643       -26.2765 
   2   2.0000      -0.951334       -25.8871 
   3   2.0000      -0.896130       -24.3849 
   4   2.0000      -0.825563       -22.4647 
   5   2.0000      -0.725665       -19.7464 
   6   2.0000      -0.685614       -18.6565 
   7   2.0000      -0.623910       -16.9774 
   8   2.0000      -0.615792       -16.7565 
   9   2.0000      -0.600530       -16.3413 
  10   2.0000      -0.574992       -15.6463 
  11   2.0000      -0.557081       -15.1590 
  12   2.0000      -0.511763       -13.9258 
  13   2.0000      -0.492955       -13.4140 
  14   2.0000      -0.487182       -13.2569 
  15   2.0000      -0.426088       -11.5944 
  16   2.0000      -0.410941       -11.1823 
  17   2.0000      -0.398716       -10.8496 
  18   2.0000      -0.390446       -10.6246 
  19   2.0000      -0.321182        -8.7398 
  20   0.0000       0.043230         1.1764 
  21   0.0000       0.074390         2.0243 
  22   0.0000       0.087982         2.3941 
  23   0.0000       0.095715         2.6045 
  24   0.0000       0.108450         2.9511 
  25   0.0000       0.108805         2.9607 
  26   0.0000       0.134843         3.6693 
  27   0.0000       0.143405         3.9023 
  28   0.0000       0.159567         4.3420 
  29   0.0000       0.170740         4.6461 
  30   0.0000       0.209947         5.7129 
*Only the first 10 virtual orbitals were printed.

                    ********************************
                    * MULLIKEN POPULATION ANALYSIS *
                    ********************************

-----------------------
MULLIKEN ATOMIC CHARGES
-----------------------
   0 C :   -0.031805
   1 C :    0.064181
   2 Br:   -0.098442
   3 O :   -0.288205
   4 C :    0.104337
   5 C :   -0.021927
   6 C :   -0.072525
   7 H :    0.069485
   8 H :    0.049171
   9 H :    0.048774
  10 H :    0.054802
  11 H :    0.024034
  12 H :    0.049578
  13 H :    0.048541
Sum of atomic charges:   -0.0000000

--------------------------------
MULLIKEN REDUCED ORBITAL CHARGES
--------------------------------
  0 C s       :     1.001869  s :     1.001869
      pz      :     1.040984  p :     2.956607
      px      :     0.945941
      py      :     0.969682
      dz2     :     0.015032  d :     0.073329
      dxz     :     0.005304
      dyz     :     0.021559
      dx2y2   :     0.015541
      dxy     :     0.015894

  1 C s       :     1.131532  s :     1.131532
      pz      :     0.737789  p :     2.610124
      px      :     0.972931
      py      :     0.899404
      dz2     :     0.046717  d :     0.194163
      dxz     :     0.023004
      dyz     :     0.048014
      dx2y2   :     0.034209
      dxy     :     0.042219

  2 Brs       :     1.938381  s :     1.938381
      pz      :     1.341212  p :     5.106732
      px      :     1.843945
      py      :     1.921575
      dz2     :     0.022828  d :     0.053329
      dxz     :     0.016445
      dyz     :     0.008676
      dx2y2   :     0.002411
      dxy     :     0.002969

  3 O s       :     1.728864  s :     1.728864
      pz      :     1.636151  p :     4.516434
      px      :     1.349070
      py      :     1.531212
      dz2     :     0.006354  d :     0.042907
      dxz     :     0.007581
      dyz     :     0.010047
      dx2y2   :     0.011633
      dxy     :     0.007292

  4 C s       :     1.024132  s :     1.024132
      pz      :     1.056758  p :     2.742864
      px      :     0.680582
      py      :     1.005524
      dz2     :     0.022960  d :     0.128667
      dxz     :     0.018419
      dyz     :     0.024299
      dx2y2   :     0.036510
      dxy     :     0.026479

  5 C s       :     1.020892  s :     1.020892
      pz      :     1.000151  p :     2.912008
      px      :     0.987502
      py      :     0.924355
      dz2     :     0.024033  d :     0.089027
      dxz     :     0.011131
      dyz     :     0.019945
      dx2y2   :     0.014547
      dxy     :     0.019372

  6 C s       :     1.035202  s :     1.035202
      pz      :     1.019371  p :     2.953663
      px      :     0.931252
      py      :     1.003040
      dz2     :     0.030123  d :     0.083660
      dxz     :     0.008889
      dyz     :     0.012102
      dx2y2   :     0.016147
      dxy     :     0.016399

  7 H s       :     0.880004  s :     0.880004
      pz      :     0.025358  p :     0.050511
      px      :     0.015132
      py      :     0.010021

  8 H s       :     0.901647  s :     0.901647
      pz      :     0.016349  p :     0.049183
      px      :     0.014425
      py      :     0.018408

  9 H s       :     0.907029  s :     0.907029
      pz      :     0.024863  p :     0.044197
      px      :     0.008587
      py      :     0.010746

 10 H s       :     0.903161  s :     0.903161
      pz      :     0.015740  p :     0.042037
      px      :     0.007321
      py      :     0.018976

 11 H s       :     0.926827  s :     0.926827
      pz      :     0.022479  p :     0.049140
      px      :     0.016407
      py      :     0.010253

 12 H s       :     0.903539  s :     0.903539
      pz      :     0.010920  p :     0.046883
      px      :     0.013654
      py      :     0.022310

 13 H s       :     0.902070  s :     0.902070
      pz      :     0.025217  p :     0.049389
      px      :     0.013918
      py      :     0.010253



                     *******************************
                     * LOEWDIN POPULATION ANALYSIS *
                     *******************************

----------------------
LOEWDIN ATOMIC CHARGES
----------------------
   0 C :   -0.062337
   1 C :   -0.234197
   2 Br:    0.132046
   3 O :   -0.048785
   4 C :   -0.006353
   5 C :   -0.087896
   6 C :   -0.025719
   7 H :    0.050530
   8 H :    0.045852
   9 H :    0.050301
  10 H :    0.061442
  11 H :    0.034781
  12 H :    0.047191
  13 H :    0.043144

-------------------------------
LOEWDIN REDUCED ORBITAL CHARGES
-------------------------------
  0 C s       :     0.820759  s :     0.820759
      pz      :     1.056749  p :     3.001387
      px      :     0.892608
      py      :     1.052030
      dz2     :     0.049342  d :     0.240191
      dxz     :     0.017256
      dyz     :     0.075803
      dx2y2   :     0.052657
      dxy     :     0.045133

  1 C s       :     0.819227  s :     0.819227
      pz      :     0.880398  p :     2.836268
      px      :     0.949979
      py      :     1.005891
      dz2     :     0.139366  d :     0.578702
      dxz     :     0.071363
      dyz     :     0.154262
      dx2y2   :     0.101634
      dxy     :     0.112077

  2 Brs       :     1.762568  s :     1.762568
      pz      :     1.348072  p :     5.027350
      px      :     1.808558
      py      :     1.870720
      dz2     :     0.034730  d :     0.078037
      dxz     :     0.024048
      dyz     :     0.012382
      dx2y2   :     0.003122
      dxy     :     0.003755

  3 O s       :     1.420498  s :     1.420498
      pz      :     1.630476  p :     4.518336
      px      :     1.345480
      py      :     1.542380
      dz2     :     0.017090  d :     0.109950
      dxz     :     0.017690
      dyz     :     0.022290
      dx2y2   :     0.029680
      dxy     :     0.023201

  4 C s       :     0.780614  s :     0.780614
      pz      :     1.075447  p :     2.836632
      px      :     0.738044
      py      :     1.023141
      dz2     :     0.071836  d :     0.389107
      dxz     :     0.054247
      dyz     :     0.078587
      dx2y2   :     0.110693
      dxy     :     0.073745

  5 C s       :     0.801220  s :     0.801220
      pz      :     1.037376  p :     2.987336
      px      :     0.953859
      py      :     0.996100
      dz2     :     0.077101  d :     0.299341
      dxz     :     0.040402
      dyz     :     0.069582
      dx2y2   :     0.056719
      dxy     :     0.055536

  6 C s       :     0.817753  s :     0.817753
      pz      :     1.043115  p :     2.942793
      px      :     0.841141
      py      :     1.058537
      dz2     :     0.099702  d :     0.265173
      dxz     :     0.025235
      dyz     :     0.041249
      dx2y2   :     0.053377
      dxy     :     0.045609

  7 H s       :     0.792926  s :     0.792926
      pz      :     0.069911  p :     0.156544
      px      :     0.050032
      py      :     0.036601

  8 H s       :     0.801253  s :     0.801253
      pz      :     0.052299  p :     0.152895
      px      :     0.047431
      py      :     0.053165

  9 H s       :     0.804295  s :     0.804295
      pz      :     0.072487  p :     0.145404
      px      :     0.032054
      py      :     0.040863

 10 H s       :     0.798940  s :     0.798940
      pz      :     0.052171  p :     0.139618
      px      :     0.029579
      py      :     0.057869

 11 H s       :     0.808412  s :     0.808412
      pz      :     0.068912  p :     0.156806
      px      :     0.049945
      py      :     0.037949

 12 H s       :     0.803386  s :     0.803386
      pz      :     0.040868  p :     0.149424
      px      :     0.044830
      py      :     0.063726

 13 H s       :     0.802127  s :     0.802127
      pz      :     0.068817  p :     0.154729
      px      :     0.047495
      py      :     0.038417



                      *****************************
                      * MAYER POPULATION ANALYSIS *
                      *****************************

  NA   - Mulliken gross atomic population
  ZA   - Total nuclear charge
  QA   - Mulliken gross atomic charge
  VA   - Mayer's total valence
  BVA  - Mayer's bonded valence
  FA   - Mayer's free valence

  ATOM       NA         ZA         QA         VA         BVA        FA
  0 C      4.0318     4.0000    -0.0318     3.9626     3.9626    -0.0000
  1 C      3.9358     4.0000     0.0642     4.0898     4.0898     0.0000
  2 Br     7.0984     7.0000    -0.0984     1.0872     1.0872    -0.0000
  3 O      6.2882     6.0000    -0.2882     2.0048     2.0048    -0.0000
  4 C      3.8957     4.0000     0.1043     3.9627     3.9627     0.0000
  5 C      4.0219     4.0000    -0.0219     3.9470     3.9470     0.0000
  6 C      4.0725     4.0000    -0.0725     4.0154     4.0154    -0.0000
  7 H      0.9305     1.0000     0.0695     1.0204     1.0204     0.0000
  8 H      0.9508     1.0000     0.0492     1.0449     1.0449    -0.0000
  9 H      0.9512     1.0000     0.0488     1.0377     1.0377     0.0000
 10 H      0.9452     1.0000     0.0548     1.0304     1.0304     0.0000
 11 H      0.9760     1.0000     0.0240     1.0436     1.0436     0.0000
 12 H      0.9504     1.0000     0.0496     1.0298     1.0298    -0.0000
 13 H      0.9515     1.0000     0.0485     1.0355     1.0355    -0.0000

  Mayer bond orders larger than 0.100000
B(  0-C ,  1-C ) :   1.7161 B(  0-C ,  6-C ) :   0.1956 B(  0-C ,  7-H ) :   0.9850 
B(  0-C ,  8-H ) :   0.9876 B(  1-C ,  2-Br) :   1.0233 B(  1-C ,  3-O ) :   1.1935 
B(  3-O ,  4-C ) :   0.7389 B(  4-C ,  5-C ) :   1.1158 B(  4-C ,  9-H ) :   0.9952 
B(  4-C , 10-H ) :   1.0088 B(  5-C ,  6-C ) :   1.7309 B(  5-C , 11-H ) :   1.0013 
B(  6-C , 12-H ) :   0.9962 B(  6-C , 13-H ) :   0.9957 

-------
TIMINGS
-------

Total SCF time: 0 days 0 hours 0 min 25 sec 

Total time                  ....      25.779 sec
Sum of individual times     ....      24.405 sec  ( 94.7%)

SCF preparation             ....       0.297 sec  (  1.2%)
Fock matrix formation       ....      23.800 sec  ( 92.3%)
  Startup                   ....       0.010 sec  (  0.0% of F)
  Split-RI-J                ....       0.885 sec  (  3.7% of F)
  Chain of spheres X        ....      22.396 sec  ( 94.1% of F)
  XC integration            ....       1.640 sec  (  6.9% of F)
    Basis function eval.    ....       0.572 sec  ( 34.9% of XC)
    Density eval.           ....       0.241 sec  ( 14.7% of XC)
    XC-Functional eval.     ....       0.321 sec  ( 19.6% of XC)
    XC-Potential eval.      ....       0.314 sec  ( 19.2% of XC)
Diagonalization             ....       0.000 sec  (  0.0%)
Density matrix formation    ....       0.041 sec  (  0.2%)
Total Energy calculation    ....       0.022 sec  (  0.1%)
Population analysis         ....       0.012 sec  (  0.0%)
Orbital Transformation      ....       0.014 sec  (  0.1%)
Orbital Orthonormalization  ....       0.000 sec  (  0.0%)
DIIS solution               ....       0.113 sec  (  0.4%)
SOSCF solution              ....       0.109 sec  (  0.4%)
Finished LeanSCF after  25.8 sec

Maximum memory used throughout the entire LEANSCF-calculation: 15.2 MB


           ************************************************************
           *        Program running with 8 parallel MPI-processes     *
           *              working on a common directory               *
           ************************************************************

------------------------------------------------------------------------------
                         ORCA PROPERTY INTEGRAL CALCULATIONS
------------------------------------------------------------------------------

GBWName                                   ... ts.gbw
Number of atoms                           ...     14
Number of basis functions                 ...    126
Max core memory                           ...   4000 MB

Dipole integrals                          ... YES
Quadrupole integrals                      ...  NO
Linear momentum integrals                 ...  NO
Angular momentum integrals                ...  NO
Higher moments length integrals           ...  NO
Higher moments velocity integrals         ...  NO
Kinetic energy integrals                  ...  NO
GIAO right hand sides                     ...  NO
GIAO dipole derivative integrals          ...  NO
SOC integrals                             ...  NO
EPR diamagnetic integrals (GIAO)          ...  NO
EPR gauge integrals                       ...  NO
Field gradient integrals                  ...  NO (   0 nuclei)
Spin-dipole/Fermi contact integrals       ...  NO (   0 nuclei)
Contact density integrals                 ...  NO (   0 nuclei)
Nucleus-orbit integrals                   ...  NO (   0 nuclei)
Geometric perturbations                   ...  NO (  14 nuclei)

Choice of electric origin   ... Center of mass
Position of electric origin ... (  2.0589, -0.6746,  1.5311) 
Choice of magnetic origin   ... GIAO
Position of magnetic origin ... (  0.0000,  0.0000,  0.0000) 

Calculating integrals                     ... Electric Dipole (Length)     done (  0.0 sec)

Property integrals calculated in   0.0 sec

Maximum memory used throughout the entire PROPINT-calculation: 9.9 MB


-------------------------------------------------------------------------------
                          DFT DISPERSION CORRECTION                            
                                                                               
                                DFTD4 V3.4.0                                   
-------------------------------------------------------------------------------
The wB97X-3c composite method is recognized
Using three-body term ABC
Active option DFTDOPT                   ...         5   

-------------------------   ----------------
Dispersion correction           -0.017513893
-------------------------   ----------------


-------------------------   --------------------
FINAL SINGLE POINT ENERGY       -62.050358413508
-------------------------   --------------------



           ************************************************************
           *        Program running with 8 parallel MPI-processes     *
           *              working on a common directory               *
           ************************************************************
------------------------------------------------------------------------------
                         ORCA SCF GRADIENT CALCULATION
------------------------------------------------------------------------------

Nuc. rep. gradient        (SHARK) ... done (  0.0 sec)
HCore & Overlap gradient  (SHARK) ... done (  0.0 sec)
ECP gradient              (SHARK) ... done (  0.2 sec)
Split-RIJ-J gradient      (SHARK) ... done (  0.4 sec)
COSX-gradient                     ... done (  7.4 sec)
XC gradient                       ... done (  0.4 sec)
Dispersion correction             ... done (  0.0 sec)

-------------------
DISPERSION GRADIENT
-------------------

   1   C   :    0.000246356    0.000609939   -0.000223633
   2   C   :    0.000461393   -0.000039709   -0.000019110
   3   Br  :    0.000966905   -0.000260864    0.001020371
   4   O   :    0.000155360   -0.000379132   -0.000343984
   5   C   :   -0.000275479   -0.000478334   -0.000163537
   6   C   :   -0.000604963   -0.000084127   -0.000190227
   7   C   :   -0.000549884    0.000404031    0.000072530
   8   H   :    0.000092163    0.000152559   -0.000123146
   9   H   :    0.000102936    0.000184405   -0.000002241
  10   H   :   -0.000079902   -0.000179531    0.000011781
  11   H   :   -0.000041708   -0.000141460   -0.000062034
  12   H   :   -0.000150924   -0.000008755   -0.000101495
  13   H   :   -0.000147956    0.000123056    0.000017754
  14   H   :   -0.000174299    0.000097921    0.000106971

Difference to translation invariance:
           :   -0.0000000000   -0.0000000000    0.0000000000

Difference to rotation invariance:
           :   -0.0000000000   -0.0000000000    0.0000000000

Norm of the Dispersion gradient    ...    0.0021253782
RMS gradient                       ...    0.0003279530
MAX gradient                       ...    0.0010203707

------------------
CARTESIAN GRADIENT
------------------

   1   C   :   -0.028680756   -0.005120645    0.006442756
   2   C   :    0.000027793   -0.000079324   -0.000023698
   3   Br  :   -0.000010946    0.000012838   -0.000039383
   4   O   :   -0.000011253    0.000019277    0.000090858
   5   C   :    0.000013402    0.000042666    0.000015384
   6   C   :   -0.000002211   -0.000068826   -0.000006274
   7   C   :    0.028675632    0.005169464   -0.006451076
   8   H   :   -0.000003450   -0.000000875    0.000002197
   9   H   :   -0.000002708    0.000006993   -0.000008750
  10   H   :    0.000013213   -0.000011352   -0.000002678
  11   H   :    0.000000066    0.000020922   -0.000029638
  12   H   :   -0.000015049    0.000018311    0.000009218
  13   H   :    0.000001134   -0.000000387    0.000002351
  14   H   :   -0.000004868   -0.000009061   -0.000001267

Difference to translation invariance:
           :    0.0000000000    0.0000000000   -0.0000000000

Difference to rotation invariance:
           :   -0.0000296872    0.0000500838   -0.0000147877

Norm of the Cartesian gradient     ...    0.0422016025
RMS gradient                       ...    0.0065118486
MAX gradient                       ...    0.0286807563

-------
TIMINGS
-------

Total SCF gradient time     ....        8.478 sec

Densities                   ....       0.000 sec  (  0.0%)
One electron gradient       ....       0.040 sec  (  0.5%)
RI-J Coulomb gradient       ....       0.356 sec  (  4.2%)
COSX gradient               ....       7.402 sec  ( 87.3%)
XC gradient                 ....       0.448 sec  (  5.3%)

Maximum memory used throughout the entire SCFGRAD-calculation: 29.9 MB


           ************************************************************
           *        Program running with 8 parallel MPI-processes     *
           *              working on a common directory               *
           ************************************************************

------------------------------------------------------------------------------
                         ORCA PROPERTY INTEGRAL CALCULATIONS
------------------------------------------------------------------------------

GBWName                                   ... ts.gbw
Number of atoms                           ...     14
Number of basis functions                 ...    126
Max core memory                           ...   4000 MB

Dipole integrals                          ...  NO
Quadrupole integrals                      ...  NO
Linear momentum integrals                 ...  NO
Angular momentum integrals                ...  NO
Higher moments length integrals           ...  NO
Higher moments velocity integrals         ...  NO
Kinetic energy integrals                  ...  NO
GIAO right hand sides                     ...  NO
GIAO dipole derivative integrals          ...  NO
SOC integrals                             ...  NO
EPR diamagnetic integrals (GIAO)          ...  NO
EPR gauge integrals                       ...  NO
Field gradient integrals                  ...  NO (   0 nuclei)
Spin-dipole/Fermi contact integrals       ...  NO (   0 nuclei)
Contact density integrals                 ...  NO (   0 nuclei)
Nucleus-orbit integrals                   ...  NO (   0 nuclei)
Geometric perturbations                   ... YES (  14 nuclei)

Choice of electric origin   ... Center of mass
Position of electric origin ... (  2.0589, -0.6746,  1.5311) 
Choice of magnetic origin   ... GIAO
Position of magnetic origin ... (  0.0000,  0.0000,  0.0000) 

Calculating integrals                     ... Geometrical perturbation right hand sides

-----------------------
GEOMETRIC PERTURBATIONS (14 nuclei)
-----------------------

MaxCore                            ...   4000 MB
Number of batches                  ...      1

BATCH   0: Atoms    0 -   13 ( 42 perturbations)
   => H(core) and overlap derivative integrals     ... done (     0.1 sec)
   => Making and storing internal U-coefficients   ... done (     0.0 sec)
   => RI-J derivative integrals                    ... done (     0.7 sec)
   => RI-J response operators                      ... done (     0.2 sec)
   => Chain of spheres derivative integrals        ... done (     4.2 sec)
   => Chain of spheres response operator           ... done (     3.0 sec)
   => ECP derivative integrals                     ... done (     3.6 sec)
   => XC derivative integrals                      ... done (     6.3 sec)
   => XC response operators                        ... done (     1.7 sec)
   => Completing and storing right hand sides      ... done (     0.0 sec)
   => Total time for right hand sides =  19.9 sec

  geometrical perturbations done ( 19.9 sec)

Property integrals calculated in  19.9 sec

Maximum memory used throughout the entire PROPINT-calculation: 79.4 MB


           ************************************************************
           *        Program running with 8 parallel MPI-processes     *
           *              working on a common directory               *
           ************************************************************
------------------------------------------------------------------------------
                            ORCA SCF RESPONSE CALCULATION
------------------------------------------------------------------------------

GBWName                                 ... ts.gbw
Number of atoms                         ...     14
Number of basis functions               ...    126
Max core memory                         ...   4000 MB

Electric field perturbation             ...  NO
Quadrupolar field perturbation          ...  NO
Magnetic field perturbation (no GIAO)   ...  NO
Magnetic field perturbation (with GIAO) ...  NO
Linear momentum (velocity) perturbation ...  NO
Spin-orbit coupling perturbation        ...  NO
Choice of electric origin               ... Center of mass
Position of electric origin             ...     2.058867    -0.674572     1.531112
Choice of magnetic origin               ... GIAO
Position of magnetic origin             ...     0.000000     0.000000     0.000000
Nuclear geometric perturbations         ... YES (  42 perturbations)
Nucleus-orbit perturbations             ...  NO (   0 perturbations)
Spin-dipole/Fermi contact perturbations ...  NO (   0 perturbations)

Total number of real perturbations      ...     42
Total number of imaginary perturbations ...      0
Total number of triplet perturbations   ...      0
Total number of SOC perturbations       ...      0

Using XC Grid                  ... (ts.grid_cpscf.tmp) 
Recalculating density on grid  ... (ts.grho_cpscf0.tmp) done
Calculating the xc-kernel      ... (ts.fxc_cpscf0.tmp) done

                                **********************
                                * REAL PERTURBATIONS *
                                **********************



-------------------
SHARK CP-SCF DRIVER
-------------------

Dimension of the orbital basis          ...    126
Dimension of the CPSCF-problem          ...   2120
Number of operators                     ...      1
Max. number of iterations               ...    128
Convergence Tolerance                   ... 1.0e-04
Number of perturbations                 ...     42
Perturbation type                       ... REAL

----------------------------
POPLE LINEAR EQUATION SOLVER
----------------------------

  ITERATION   0:   ||err||_max =   2.2604e-01 (   1.9 sec   0/ 42 done)
  ITERATION   1:   ||err||_max =   7.5905e-02 (   2.0 sec   0/ 42 done)
  ITERATION   2:   ||err||_max =   3.8380e-02 (   2.0 sec   0/ 42 done)
  ITERATION   3:   ||err||_max =   1.2228e-02 (   2.0 sec   0/ 42 done)
  ITERATION   4:   ||err||_max =   4.5524e-03 (   2.0 sec   0/ 42 done)
  ITERATION   5:   ||err||_max =   1.6374e-03 (   2.0 sec   0/ 42 done)
  ITERATION   6:   ||err||_max =   4.4663e-04 (   2.0 sec  16/ 42 done)
  ITERATION   7:   ||err||_max =   1.6414e-04 (   1.6 sec  40/ 42 done)
  ITERATION   8:   ||err||_max =   4.9099e-05 (   0.9 sec  42/ 42 done)

CP-SCF equations solved in  16.8 sec
Response densities calculated in   0.0 sec

Maximum memory used throughout the entire SCFRESP-calculation: 80.9 MB


           ************************************************************
           *        Program running with 8 parallel MPI-processes     *
           *              working on a common directory               *
           ************************************************************

------------------------------------------------------------------------------
                              ORCA PROPERTY CALCULATIONS
------------------------------------------------------------------------------

GBWName                                 ... ts.gbw
Number of atoms                         ...     14
Number of basis functions               ...    126
Max core memory                         ...   4000 MB

Electric properties:
Dipole moment                           ...  NO
Quadrupole moment                       ...  NO
Static polarizability (Dipole/Dipole)   ...  NO
Static polarizability (Dipole/Quad.)    ...  NO
Static polarizability (Quad./Quad.)     ...  NO
Static polarizability (Velocity)        ...  NO
Static hyperpolarizability              ...  NO

Atomic electric properties:
Dipole moment                           ...  NO
Quadrupole moment                       ...  NO
Static polarizability                   ...  NO

Choice of electric origin               ... Center of mass
Position of electric origin             ...     2.058867    -0.674572     1.531112

General magnetic properties:
Magnetizability                         ...  NO

EPR properties:
g-Tensor (aka g-matrix)                 ...  NO
Zero-Field splitting spin-orbit         ...  NO
Zero-field splitting spin-spin          ...  NO
Hyperfine couplings                     ...  NO (   0 nuclei)
Quadrupole couplings                    ...  NO (   0 nuclei)
Contact density                         ...  NO (   0 nuclei)

NMR properties:
Chemical shifts                         ...  NO (   0 nuclei)
Spin-rotation constants                 ...  NO (   0 nuclei)
Spin-spin couplings                     ...  NO (   0 nuclei,    0 pairs)

Choice of magnetic origin               ... GIAO
Position of magnetic origin             ...     0.000000     0.000000     0.000000

Properties with geometric perturbations:
SCF Hessian                             ... YES
IR spectrum                             ... YES
VCD spectrum                            ...  NO
X-ray spectroscopy properties:
SCF XES/XAS/RIXS spectra                ...  NO

SCF SOC stabilization energy            ...  NO
Diagonal Born-Oppenheimer correction    ...  NO

-----------
SCF HESSIAN
-----------

Occupied/Occupied contributions to the Hessian:
   => Occupied/Occupied contributions              ... done (  0.0 sec)
Perturbed density contributions to the Hessian:
   => Perturbed density contributions              ... done (  0.0 sec)
Explicit contributions to the Hessian:
   => Nuclear repulsion Hessian                    ... done (  0.0 sec)
   => HCore and overlap Hessian                    ... done (  0.9 sec)
   => ECP Hessian                                  ... done ( 12.0 sec)
   => RI-J Hessian                                 ... done (  1.1 sec)
   => COSX Hessian                                 ... done ( 78.2 sec)
   => XC-Hessian                                   ... done (  3.8 sec)
   => Van der Waals-Hessian                        ... done (  0.5 sec)
   => Explicit contributions done
Dipole derivatives                                 ... done (  0.0 sec)
Mass weighting the Hessian           ... done
Calculating normal modes             ... done
Scaling frequencies                  ... done

-----------------------
VIBRATIONAL FREQUENCIES
-----------------------

Scaling factor for frequencies =  1.000000000  (already applied!)

     0:       0.00 cm**-1
     1:       0.00 cm**-1
     2:       0.00 cm**-1
     3:       0.00 cm**-1
     4:       0.00 cm**-1
     5:       0.00 cm**-1
     6:    -223.85 cm**-1  ***imaginary mode***
     7:      79.30 cm**-1
     8:     159.87 cm**-1
     9:     341.27 cm**-1
    10:     350.45 cm**-1
    11:     365.90 cm**-1
    12:     402.83 cm**-1
    13:     513.81 cm**-1
    14:     590.32 cm**-1
    15:     636.23 cm**-1
    16:     715.46 cm**-1
    17:     788.18 cm**-1
    18:     845.61 cm**-1
    19:     926.18 cm**-1
    20:     950.44 cm**-1
    21:    1016.92 cm**-1
    22:    1032.96 cm**-1
    23:    1050.82 cm**-1
    24:    1086.77 cm**-1
    25:    1183.84 cm**-1
    26:    1205.78 cm**-1
    27:    1271.14 cm**-1
    28:    1322.74 cm**-1
    29:    1367.15 cm**-1
    30:    1448.37 cm**-1
    31:    1477.80 cm**-1
    32:    1540.51 cm**-1
    33:    1648.50 cm**-1
    34:    1707.84 cm**-1
    35:    3164.59 cm**-1
    36:    3202.52 cm**-1
    37:    3241.09 cm**-1
    38:    3242.06 cm**-1
    39:    3264.47 cm**-1
    40:    3298.99 cm**-1
    41:    3350.29 cm**-1


[...]
      7      -0.000001   0.000007  -0.000000  -0.000008  -0.000002   0.000001
      8      -0.000007  -0.000013  -0.000003   0.000018  -0.000010   0.000068
      9       0.000071   0.000378   0.000082   0.000116   0.000016   0.000263
     10       0.000558   0.000444   0.000094  -0.000097  -0.000143   0.000424
     11       0.000008   0.000245   0.000026  -0.000104  -0.000454   0.000375
     12       0.009499  -0.000785   0.003749   0.000926   0.014060   0.000123
     13      -0.060638   0.001051  -0.003336   0.001615   0.037862   0.000499
     14       0.029445  -0.000438   0.011415   0.004189   0.090842   0.000769
     15       0.000069   0.000616  -0.031794  -0.003834   0.003769  -0.000043
     16       0.003109  -0.000632   0.013435   0.001485  -0.002301   0.000042
     17       0.004991   0.000814  -0.078528  -0.009420   0.008504   0.000140
     18      -0.000356   0.000486   0.004409  -0.035139   0.001083  -0.000320
     19       0.005063  -0.000033   0.001253   0.064577  -0.002638   0.000301
     20       0.003099  -0.001241   0.015641  -0.066815   0.002067  -0.000066
     21      -0.001857  -0.184324  -0.004000  -0.002141  -0.000839   0.160528
     22       0.002459   0.163574   0.002404   0.000235   0.001234  -0.152562
     23      -0.010498  -0.702011  -0.012585  -0.000655  -0.004279   0.622451
     24       0.002727   0.187357   0.002676  -0.001654  -0.002152   0.209986
     25       0.007746   0.486891   0.007626  -0.004480  -0.005333   0.551833
     26       0.006475   0.411090   0.007081  -0.003866  -0.004460   0.452360
     27      -0.139451   0.002775  -0.020088  -0.002511  -0.108364  -0.000636
     28       0.204153  -0.002735   0.029727   0.005183   0.165072   0.001326
     29      -0.739776   0.010477  -0.105221  -0.022084  -0.564979  -0.004609
     30       0.051212  -0.000617  -0.004993  -0.004222  -0.060939  -0.000350
     31       0.456731  -0.006699  -0.024608  -0.030798  -0.595687  -0.005474
     32       0.402448  -0.006000  -0.023564  -0.025833  -0.511383  -0.004695
     33      -0.028104  -0.005074   0.346813   0.038713  -0.036418   0.000582
     34       0.013403   0.002272  -0.168293  -0.016893   0.020433  -0.000014
     35      -0.072539  -0.012231   0.897115   0.102581  -0.093366   0.000531
     36       0.023400  -0.005127  -0.003024   0.247802  -0.007487   0.001672
     37      -0.062333   0.008534   0.002760  -0.657101   0.021430  -0.004097
     38       0.014105  -0.001796  -0.002071   0.152390  -0.005235   0.000846
     39      -0.014977   0.004161  -0.040660   0.172456  -0.007284  -0.000749
     40       0.007250  -0.002589   0.025246  -0.102557   0.002460  -0.000998
     41      -0.048388   0.015512  -0.150503   0.647171  -0.024757   0.003221


-----------
IR SPECTRUM
-----------

 Mode   freq       eps      Int      T**2         TX        TY        TZ
       cm**-1   L/(mol*cm) km/mol    a.u.
----------------------------------------------------------------------------
  7:    101.14   0.000277    1.40  0.000855  (-0.021561 -0.001189 -0.019719)
  8:    144.59   0.000194    0.98  0.000418  (-0.010771  0.007045 -0.015897)
  9:    293.63   0.007413   37.46  0.007878  ( 0.085389  0.006203  0.023415)
 10:    341.41   0.000550    2.78  0.000503  (-0.014660  0.010854 -0.013053)
 11:    361.99   0.004379   22.13  0.003775  (-0.056404  0.014330  0.019712)
 12:    376.71   0.000068    0.34  0.000056  ( 0.004850 -0.005580  0.001320)
 13:    427.50   0.000944    4.77  0.000689  (-0.024724 -0.000970 -0.008784)
 14:    490.70   0.000485    2.45  0.000309  ( 0.011738  0.005680  0.011776)
 15:    602.79   0.024609  124.36  0.012740  (-0.072585  0.019044 -0.084314)
 16:    696.43   0.000594    3.00  0.000266  ( 0.007197  0.014568 -0.001524)
 17:    761.20   0.004958   25.06  0.002033  ( 0.035028  0.027527 -0.006929)
 18:    808.23   0.000572    2.89  0.000221  ( 0.013479 -0.000870 -0.006194)
 19:    876.44   0.014921   75.40  0.005313  (-0.069119  0.007265  0.021966)
 20:    926.33   0.000372    1.88  0.000125  ( 0.005292 -0.008822  0.004430)
 21:    986.16   0.000753    3.80  0.000238  ( 0.014668 -0.003799  0.002927)
 22:   1034.95   0.002413   12.20  0.000728  ( 0.017820  0.006950  0.019022)
 23:   1044.75   0.003716   18.78  0.001110  (-0.031343 -0.010549 -0.004034)
 24:   1071.17   0.003774   19.07  0.001099  (-0.025487  0.019295 -0.008807)
 25:   1086.82   0.000270    1.36  0.000077  (-0.008250  0.002330  0.001987)
 26:   1140.02   0.006678   33.75  0.001828  (-0.006845  0.008186 -0.041404)
 27:   1270.09   0.045112  227.98  0.011084  (-0.061538  0.000187 -0.085423)
 28:   1281.23   0.005940   30.02  0.001447  (-0.024592 -0.018219 -0.022587)
 29:   1326.27   0.000277    1.40  0.000065  ( 0.002941 -0.000937 -0.007461)
 30:   1449.39   0.003244   16.40  0.000699  ( 0.004630  0.025059 -0.007010)
 31:   1490.81   0.011924   60.26  0.002496  (-0.016390 -0.006532 -0.046741)
 32:   1556.31   0.001734    8.76  0.000348  (-0.004245  0.005485 -0.017309)
 33:   1587.17   0.005317   26.87  0.001045  ( 0.030382 -0.007963 -0.007674)
 34:   1704.53   0.019279   97.43  0.003530  ( 0.000871  0.052758  0.027302)
 35:   3213.48   0.000848    4.29  0.000082  ( 0.001598 -0.006948 -0.005616)
 36:   3219.57   0.000944    4.77  0.000092  (-0.004440 -0.008398  0.001123)
 37:   3235.12   0.000219    1.11  0.000021  (-0.003680  0.001544  0.002274)
 38:   3250.04   0.000774    3.91  0.000074  (-0.006598 -0.000016 -0.005547)
 39:   3315.82   0.000008    0.04  0.000001  ( 0.000789  0.000097  0.000353)
 40:   3325.50   0.000023    0.12  0.000002  (-0.000661  0.001229 -0.000474)
 41:   3349.13   0.000189    0.95  0.000018  ( 0.001360  0.002647  0.002952)

* The epsilon (eps) is given for a Dirac delta lineshape.
** The dipole moment derivative (T) already includes vibrational overlap.

The first frequency considered to be a vibration is 7
The total number of vibrations considered is 35


--------------------------
THERMOCHEMISTRY AT 298.15K
--------------------------

Temperature         ...   298.15 K
Pressure            ...     1.00 atm
Total Mass          ...   163.01 AMU
Quasi RRHO          ...     True
Cut-Off Frequency   ...     1.00 cm^-1

Throughout the following assumptions are being made:
  (1) The electronic state is orbitally nondegenerate
  (2) There are no thermally accessible electronically excited states
  (3) Hindered rotations indicated by low frequency modes are not
      treated as such but are treated as vibrations and this may
      cause some error
  (4) All equations used are the standard statistical mechanics
      equations for an ideal gas
  (5) All vibrations are strictly harmonic

freq.     101.14  E(vib)   ...       0.46 
freq.     144.59  E(vib)   ...       0.41 
freq.     293.63  E(vib)   ...       0.27 
freq.     341.41  E(vib)   ...       0.23 
freq.     361.99  E(vib)   ...       0.22 
freq.     376.71  E(vib)   ...       0.21 
freq.     427.50  E(vib)   ...       0.18 
freq.     490.70  E(vib)   ...       0.15 
freq.     602.79  E(vib)   ...       0.10 
freq.     696.43  E(vib)   ...       0.07 
freq.     761.20  E(vib)   ...       0.06 
freq.     808.23  E(vib)   ...       0.05 
freq.     876.44  E(vib)   ...       0.04 
freq.     926.33  E(vib)   ...       0.03 
freq.     986.16  E(vib)   ...       0.02 
freq.    1034.95  E(vib)   ...       0.02 
freq.    1044.75  E(vib)   ...       0.02 
freq.    1071.17  E(vib)   ...       0.02 
freq.    1086.82  E(vib)   ...       0.02 
freq.    1140.02  E(vib)   ...       0.01 
freq.    1270.09  E(vib)   ...       0.01 
freq.    1281.23  E(vib)   ...       0.01 
freq.    1326.27  E(vib)   ...       0.01 
freq.    1449.39  E(vib)   ...       0.00 
freq.    1490.81  E(vib)   ...       0.00 
freq.    1556.31  E(vib)   ...       0.00 
freq.    1587.17  E(vib)   ...       0.00 
freq.    1704.53  E(vib)   ...       0.00 
freq.    3213.48  E(vib)   ...       0.00 
freq.    3219.57  E(vib)   ...       0.00 
freq.    3235.12  E(vib)   ...       0.00 
freq.    3250.04  E(vib)   ...       0.00 
freq.    3315.82  E(vib)   ...       0.00 
freq.    3325.50  E(vib)   ...       0.00 
freq.    3349.13  E(vib)   ...       0.00 

------------
INNER ENERGY
------------

The inner energy is: U= E(el) + E(ZPE) + E(vib) + E(rot) + E(trans)
    E(el)   - is the total energy from the electronic structure calculation
              = E(kin-el) + E(nuc-el) + E(el-el) + E(nuc-nuc)
    E(ZPE)  - the the zero temperature vibrational energy from the frequency calculation
    E(vib)  - the the finite temperature correction to E(ZPE) due to population
              of excited vibrational states
    E(rot)  - is the rotational thermal energy
    E(trans)- is the translational thermal energy

Summary of contributions to the inner energy U:
Electronic energy                ...    -62.04921746 Eh
Zero point energy                ...      0.10968786 Eh      68.83 kcal/mol
Thermal vibrational correction   ...      0.00415972 Eh       2.61 kcal/mol
Thermal rotational correction    ...      0.00141627 Eh       0.89 kcal/mol
Thermal translational correction ...      0.00141627 Eh       0.89 kcal/mol
-----------------------------------------------------------------------
Total thermal energy                    -61.93253733 Eh


Summary of corrections to the electronic energy:
(perhaps to be used in another calculation)
Total thermal correction                  0.00699227 Eh       4.39 kcal/mol
Non-thermal (ZPE) correction              0.10968786 Eh      68.83 kcal/mol
-----------------------------------------------------------------------
Total correction                          0.11668013 Eh      73.22 kcal/mol


--------
ENTHALPY
--------

The enthalpy is H = U + kB*T
                kB is Boltzmann's constant
Total thermal energy              ...    -61.93253733 Eh 
Thermal Enthalpy correction       ...      0.00094421 Eh       0.59 kcal/mol
-----------------------------------------------------------------------
Total Enthalpy                    ...    -61.93159312 Eh


Note: Only C1 symmetry has been detected, increase convergence thresholds 
      if your molecule has a higher symmetry. Symmetry factor of 1.0 is   
      used for the rotational entropy correction. 
 

Note: Rotational entropy computed according to Herzberg 
Infrared and Raman Spectra, Chapter V,1, Van Nostrand Reinhold, 1945 
Point Group:  C1, Symmetry Number:   1  
Rotational constants in cm-1:     0.112285     0.036526     0.034359 

Vibrational entropy computed according to the QRRHO of S. Grimme
Chem.Eur.J. 2012 18 9955 using a reference frequency of 100.0 cm-1


-------
ENTROPY
-------

The entropy contributions are T*S = T*(S(el)+S(vib)+S(rot)+S(trans))
     S(el)   - electronic entropy
     S(vib)  - vibrational entropy
     S(rot)  - rotational entropy
     S(trans)- translational entropy
The entropies will be listed as multiplied by the temperature to get
units of energy

Electronic entropy                ...      0.00000000 Eh      0.00 kcal/mol
Vibrational entropy               ...      0.00678824 Eh      4.26 kcal/mol
Rotational entropy                ...      0.01369700 Eh      8.59 kcal/mol
Translational entropy             ...      0.01956329 Eh     12.28 kcal/mol
-----------------------------------------------------------------------
Final entropy term                ...      0.04004853 Eh     25.13 kcal/mol

In case the symmetry of your molecule has not been determined correctly
or in case you have a reason to use a different symmetry number we print 
out the resulting rotational entropy values for sn=1,12:

 non-linear molecules -----------------------------------
|  sn= 1 | S(rot)=       0.01369700 Eh      8.59 kcal/mol|
|  sn= 2 | S(rot)=       0.01304254 Eh      8.18 kcal/mol|
|  sn= 3 | S(rot)=       0.01265971 Eh      7.94 kcal/mol|
|  sn= 4 | S(rot)=       0.01238808 Eh      7.77 kcal/mol|
|  sn= 5 | S(rot)=       0.01217740 Eh      7.64 kcal/mol|
|  sn= 6 | S(rot)=       0.01200525 Eh      7.53 kcal/mol|
|  sn= 7 | S(rot)=       0.01185971 Eh      7.44 kcal/mol|
|  sn= 8 | S(rot)=       0.01173363 Eh      7.36 kcal/mol|
|  sn= 9 | S(rot)=       0.01162242 Eh      7.29 kcal/mol|
|  sn=10 | S(rot)=       0.01152294 Eh      7.23 kcal/mol|
|  sn=11 | S(rot)=       0.01143295 Eh      7.17 kcal/mol|
|  sn=12 | S(rot)=       0.01135080 Eh      7.12 kcal/mol|
 linear molecules ---------------------------------------
|  Dinfh | S(rot)=       0.00850854 Eh      5.34 kcal/mol|
|  Cinfv | S(rot)=       0.00916300 Eh      5.75 kcal/mol|
 --------------------------------------------------------


-------------------
GIBBS FREE ENERGY
-------------------

The Gibbs free energy is G = H - T*S

Total enthalpy                    ...    -61.93159312 Eh 
Total entropy correction          ...     -0.04004853 Eh    -25.13 kcal/mol
-----------------------------------------------------------------------
Final Gibbs free energy         ...    -61.97164165 Eh

For completeness - the Gibbs free energy minus the electronic energy
G-E(el)                           ...      0.07757581 Eh     48.68 kcal/mol


Maximum memory used throughout the entire PROP-calculation: 53.4 MB

--------------------------------
SUGGESTED CITATIONS FOR THIS RUN
--------------------------------

Below you find a list of papers that are relevant to this ORCA run
We neither can nor want to force you to cite these papers, but we appreciate if you do
You receive ORCA, which is the product of decades of hard work by many enthusiastic individuals, for free
The only thing we kindly ask in return is that you cite our papers,
We deeply appreciate it, if you show your appreciation for ORCA by not just citing the generic ORCA reference.

Please note that relegating all ORCA citations to the supporting information does *not* help us.
SI sections are not indexed - citations you put there will not count into any citation statistics
But we need these citations in order to attract the funding resources that allow us to do what we are doing

Therefore, if you are a happy ORCA user, please consider citing a few of the papers listed below in the main body of your paper

In addition to the list printed below, the program has created the file ts.bibtex that contains the list in bibtex format
You can import this file easily into all common literature databanks and citation aid programs

It goes without saying that in many instances, there are alternative algorithms to achieve similar
results as the ones you have gotten from ORCA. It is, of course, also the case that in some instances
ORCA just re-implements algorithms worked out by others. We are fully aware of that and we are also
fully appreciative of our colleagues work. Hence this citation list should not be read as indicating
that the listed papers, which are focused on our own work, are the only ones worth citing. It simply
meant to make it easier for users to cite ORCA specific papers. It is not a substitute for doing your
own literature research and citing the relevant literature in a scientifically appropriate manner.

List of essential papers. We consider these as the minimum necessary citations

  1. Mueller, M.; Hansen, A.; Grimme, S.
     wB97X-3c: A composite range-separated hybrid DFT method with a molecule-optimized polarized valence double-zeta basis set
     J. Chem. Phys. 2023 158 , 014103
     doi.org/10.1063/5.0133026
  2. Neese, F.
     Software update: the ORCA program system, version 6.0
     WIRES Comput. Molec. Sci. 2025 15(1), e70019
     doi.org/10.1002/wcms.70019

List of papers to cite with high priority. The work reported in these papers was absolutely
necessary for this run to complete.
Our perspective: the developers of density functionals and basis sets usually get cited in chemistry papers
Good! But without the algorithms to do something with them, the functionals or basis sets would not do anything.
Hence, in our opinion, the algorithm design and method developments papers are equally worthy of getting cited

  1. Neese, F.
     An improvement of the resolution of the identity approximation for the formation of the Coulomb matrix
     J. Comp. Chem. 2003 24(14), 1740-1747
     doi.org/10.1002/jcc.10318
  2. Neese, F.; Wennmohs, F.; Hansen, A.; Becker, U.
     Efficient, approximate and parallel Hartree-Fock and hybrid DFT calculations. A 'chain-of-spheres' algorithm for the Hartree-Fock exchange
     Chem. Phys. 2009 356(1-3), 98-109
     doi.org/10.1016/j.chemphys.2008.10.036
  3. Bykov, D.; Petrenko, T.; Izsak, R.; Kossmann, S.; Becker, U.; Valeev, E.; Neese, F.
     Efficient implementation of the analytic second derivatives of Hartree-Fock and hybrid DFT energies: a detailed analysis of different approximations
     Molec. Phys. 2015 113 , 1961-1977
     doi.org/10.1080/00268976.2015.1025114
  4. Caldeweyher, E.; Bannwarth, C.; Grimme, S.
     Extension of the D3 dispersion coefficient model
     J. Chem. Phys. 2017 147 , 034112
     doi.org/10.1063/1.4993215
  5. Caldeweyher, E.; Ehlert, S.; Hansen, A.; Neugebauer, H.; Spicher, S.; Bannwarth, C.; Grimme, S.
     A generally applicable atomic-charge dependent London dispersion correction
     J. Chem. Phys. 2019 150 , 154122
     doi.org/10.1063/1.5090222
  6. Helmich-Paris, B.; de Souza, B.; Neese, F.; Izsák, R.
     An improved chain of spheres for exchange algorithm
     J. Chem. Phys. 2021 155(10), 104109
     doi.org/10.1063/5.0058766
  7. Neese, F.
     The SHARK Integral Generation and Digestion System
     J. Comp. Chem. 2022 44(3), 381
     doi.org/10.1002/jcc.26942

List of suggested additional citations. These are papers that are important in the 'surrounding' of 
of this run, or papers that preceded the highly important papers. If you like your results we are grateful for a citation.

  1. Izsak, R.; Neese, F.
     An overlap fitted chain of spheres exchange method
     J. Chem. Phys. 2011 135 , 144105
     doi.org/10.1063/1.3646921
  2. Izsak, R.; Hansen, A.; Neese, F.
     The resolution of identity and chain of spheres approximations for the LPNO-CCSD singles Fock term
     Molec. Phys. 2012 110 , 2413-2417
     doi.org/10.1080/00268976.2012.687466
  3. Neese, F.
     The ORCA program system
     WIRES Comput. Molec. Sci. 2012 2(1), 73-78
     doi.org/10.1002/wcms.81
  4. Izsak, R.; Neese, F.; Klopper, W.
     Robust fitting techniques in the chain of spheres approximation to the Fock exchange: The role of the complementary space
     J. Chem. Phys. 2013 139 , 
     doi.org/10.1063/1.4819264
  5. Neese, F.
     Software update: the ORCA program system, version 4.0
     WIRES Comput. Molec. Sci. 2018 8(1), 1-6
     doi.org/10.1002/wcms.1327
  6. Neese, F.; Wennmohs, F.; Becker, U.; Riplinger, C.
     The ORCA quantum chemistry program package
     J. Chem. Phys. 2020 152(22), 224108
     doi.org/10.1063/5.0004608
  7. Neese, F.
     Software update: The ORCA program system—Version 5.0
     WIRES Comput. Molec. Sci. 2022 12(1), e1606
     doi.org/10.1002/wcms.1606

List of optional additional citations

  1. Neese, F.
     Approximate second-order SCF convergence for spin unrestricted wavefunctions
     Chem. Phys. Lett. 2000 325(1-3), 93-98
     doi.org/10.1016/s0009-2614(00)00662-x

Timings for individual modules:

Sum of individual times          ...      405.485 sec (=   6.758 min)
Startup calculation              ...       10.156 sec (=   0.169 min)   2.5 %
SCF iterations                   ...      191.547 sec (=   3.192 min)  47.2 %
Property integrals               ...       23.044 sec (=   0.384 min)   5.7 %
SCF Response                     ...       17.463 sec (=   0.291 min)   4.3 %
Property calculations            ...       93.361 sec (=   1.556 min)  23.0 %
SCF Gradient evaluation          ...       69.838 sec (=   1.164 min)  17.2 %
Geometry relaxation              ...        0.077 sec (=   0.001 min)   0.0 %
                             ****ORCA TERMINATED NORMALLY****
TOTAL RUN TIME: 0 days 0 hours 11 minutes 16 seconds 66 msec
