14
Coordinates from ORCA-job ts_scan Relaxed Surface Scan Step 1 E -62.083448332946
  C       1.444760      0.891193     -0.305608
  C       1.454045     -0.116214      0.549829
  Br      2.811172     -0.288062      1.860925
  O       0.569660     -1.108684      0.676348
  C      -0.384931     -1.270522     -0.355569
  C      -1.444109     -0.221775     -0.379589
  C      -1.470038      0.840537      0.402477
  H       0.665921      1.012516     -1.037311
  H       2.254044      1.602851     -0.290182
  H      -0.824940     -2.251144     -0.182897
  H       0.135324     -1.303146     -1.317609
  H      -2.208216     -0.366504     -1.135779
  H      -2.270076      1.563439      0.315250
  H      -0.732618      1.015514      1.169845
>
14
Coordinates from ORCA-job ts_scan Relaxed Surface Scan Step 2 E -62.080754073457
  C       1.397875      0.901840     -0.289432
  C       1.439068     -0.119277      0.548358
  Br      2.796004     -0.268016      1.862054
  O       0.580527     -1.135979      0.662745
  C      -0.386490     -1.289988     -0.358751
  C      -1.426686     -0.223129     -0.380531
  C      -1.420326      0.846225      0.392223
  H       0.630540      1.008871     -1.033448
  H       2.188992      1.633678     -0.259247
  H      -0.838946     -2.262973     -0.176550
  H       0.124550     -1.334756     -1.325415
  H      -2.194716     -0.351411     -1.135635
  H      -2.204803      1.586092      0.300800
  H      -0.685588      1.008821      1.162959
>
14
Coordinates from ORCA-job ts_scan Relaxed Surface Scan Step 3 E -62.077092045454
  C       1.349969      0.911840     -0.277384
  C       1.424324     -0.121169      0.543259
  Br      2.774744     -0.239432      1.866304
  O       0.594916     -1.163379      0.644789
  C      -0.389511     -1.310382     -0.361094
  C      -1.407840     -0.223069     -0.380632
  C      -1.369277      0.849111      0.387272
  H       0.600963      1.000921     -1.040084
  H       2.119636      1.665833     -0.228955
  H      -0.854034     -2.274791     -0.164912
  H       0.107605     -1.370537     -1.334356
  H      -2.172335     -0.326487     -1.142929
  H      -2.132682      1.610255      0.287644
  H      -0.646477      0.991285      1.171208
>
14
Coordinates from ORCA-job ts_scan Relaxed Surface Scan Step 4 E -62.072297464182
  C       1.301446      0.921999     -0.269251
  C       1.410629     -0.121876      0.533683
  Br      2.745710     -0.203067      1.874661
  O       0.613839     -1.190839      0.620463
  C      -0.394240     -1.331832     -0.362965
  C      -1.388106     -0.222292     -0.379607
  C      -1.316514      0.849128      0.387238
  H       0.579230      0.989974     -1.057492
  H       2.044904      1.700694     -0.197706
  H      -0.870365     -2.286075     -0.146439
  H       0.082383     -1.411489     -1.345133
  H      -2.141667     -0.293389     -1.156169
  H      -2.052658      1.635754      0.276342
  H      -0.614591      0.963308      1.192507
>
14
Coordinates from ORCA-job ts_scan Relaxed Surface Scan Step 5 E -62.066310467080
  C       1.251920      0.933080     -0.267568
  C       1.398192     -0.120523      0.517132
  Br      2.702745     -0.154870      1.889829
  O       0.640040     -1.218669      0.585048
  C      -0.401706     -1.355339     -0.364363
  C      -1.366744     -0.220424     -0.377556
  C      -1.260702      0.844577      0.394923
  H       0.569360      0.975035     -1.090652
  H       1.960538      1.740979     -0.165580
  H      -0.888222     -2.296448     -0.116069
  H       0.043512     -1.462093     -1.358528
  H      -2.097179     -0.247401     -1.178397
  H      -1.958685      1.663710      0.269825
  H      -0.593069      0.918387      1.232086
>
14
Coordinates from ORCA-job ts_scan Relaxed Surface Scan Step 6 E -62.059173459235
  C       1.201732      0.948197     -0.271836
  C       1.388600     -0.116250      0.490965
  Br      2.641424     -0.096742      1.912199
  O       0.677766     -1.246279      0.530429
  C      -0.413294     -1.381867     -0.365514
  C      -1.343575     -0.217889     -0.375853
  C      -1.200852      0.834438      0.409815
  H       0.574589      0.960111     -1.138276
  H       1.862154      1.790626     -0.129505
  H      -0.907062     -2.303655     -0.064665
  H      -0.016900     -1.530424     -1.374381
  H      -2.034604     -0.187589     -1.210566
  H      -1.845808      1.693861      0.269381
  H      -0.584171      0.853460      1.287937
>
14
Coordinates from ORCA-job ts_scan Relaxed Surface Scan Step 7 E -62.051170388577
  C       1.152179      0.975132     -0.274371
  C       1.384728     -0.108109      0.452301
  Br      2.567131     -0.045165      1.934598
  O       0.733729     -1.271211      0.441904
  C      -0.431475     -1.413247     -0.365391
  C      -1.319630     -0.217140     -0.380132
  C      -1.138622      0.818366      0.423954
  H       0.593699      0.966069     -1.187371
  H       1.749033      1.852943     -0.074741
  H      -0.922541     -2.301490      0.026957
  H      -0.112077     -1.632958     -1.387213
  H      -1.953318     -0.120556     -1.253994
  H      -1.714923      1.722737      0.268146
  H      -0.587913      0.774627      1.345484
>
14
Coordinates from ORCA-job ts_scan Relaxed Surface Scan Step 8 E -62.056115890142
  C       1.124506      1.167865     -0.151209
  C       1.419912     -0.102225      0.113605
  Br      2.129308     -0.567873      1.838874
  O       0.969426     -1.115937     -0.592371
  C      -0.450716     -1.469707     -0.246501
  C      -1.260126     -0.271916     -0.487127
  C      -1.095360      0.785935      0.313896
  H       0.778744      1.429290     -1.137003
  H       1.456303      1.959978      0.502784
  H      -0.438599     -1.794379      0.792363
  H      -0.670365     -2.307708     -0.897081
  H      -1.696560     -0.143846     -1.469942
  H      -1.520910      1.748953      0.058980
  H      -0.745562      0.681569      1.330863
>
14
Coordinates from ORCA-job ts_scan Relaxed Surface Scan Step 9 E -62.050359629547
  C       1.074950      1.164587     -0.155784
  C       1.417318     -0.103249      0.104559
  Br      2.102663     -0.538526      1.850830
  O       0.982795     -1.117767     -0.590999
  C      -0.470640     -1.476796     -0.247166
  C      -1.256082     -0.275044     -0.479410
  C      -1.039656      0.786155      0.318800
  H       0.773007      1.420736     -1.157847
  H       1.393530      1.964055      0.496340
  H      -0.439325     -1.808516      0.788052
  H      -0.678412     -2.307426     -0.909995
  H      -1.679883     -0.128558     -1.465098
  H      -1.449493      1.757561      0.070171
  H      -0.730772      0.662786      1.347679
>
14
Coordinates from ORCA-job ts_scan Relaxed Surface Scan Step 10 E -62.080771351200
  C       1.055290      1.273463     -0.172568
  C       1.736954      0.018654      0.078241
  Br      2.289997     -0.179647      1.976865
  O       1.909171     -0.882441     -0.665423
  C      -1.146428     -1.671015     -0.217818
  C      -1.266727     -0.389864     -0.546632
  C      -0.895403      0.695545      0.347822
  H       0.996558      1.517104     -1.226599
  H       1.284454      2.089784      0.496247
  H      -0.780514     -1.973034      0.755625
  H      -1.409162     -2.456528     -0.912592
  H      -1.619232     -0.120521     -1.535199
  H      -1.396725      1.644180      0.201847
  H      -0.758231      0.434317      1.390316
>
14
Coordinates from ORCA-job ts_scan Relaxed Surface Scan Step 11 E -62.092511331858
  C       1.007124      1.265888     -0.156377
  C       1.768153      0.039245      0.062258
  Br      2.295562     -0.203211      1.959222
  O       2.020760     -0.809208     -0.716458
  C      -1.198057     -1.677134     -0.194911
  C      -1.233494     -0.401462     -0.555363
  C      -0.845738      0.694550      0.334006
  H       0.965836      1.531944     -1.206625
  H       1.239275      2.079013      0.517118
  H      -0.890336     -1.973230      0.800504
  H      -1.472980     -2.464183     -0.883249
  H      -1.532130     -0.137286     -1.563296
  H      -1.380914      1.626825      0.193187
  H      -0.743063      0.428247      1.380116
>
14
Coordinates from ORCA-job ts_scan Relaxed Surface Scan Step 12 E -62.104779614629
  C       0.958867      1.258277     -0.139869
  C       1.791897      0.061126      0.036186
  Br      2.282869     -0.250740      1.928584
  O       2.125490     -0.717364     -0.781878
  C      -1.247027     -1.679767     -0.163538
  C      -1.192358     -0.416958     -0.559567
  C      -0.795905      0.693747      0.320653
  H       0.931381      1.556468     -1.182799
  H       1.199805      2.063723      0.541673
  H      -1.010019     -1.962193      0.855048
  H      -1.527914     -2.471205     -0.844578
  H      -1.424169     -0.168711     -1.589331
  H      -1.367004      1.606057      0.179235
  H      -0.725913      0.427538      1.370312
