
 *******************************************************************************
 *                                                                             *
 *  --------------------------------                                           *
 *   Amsterdam Modeling Suite (AMS)              2026.103                      *
 *  --------------------------------                                           *
 *                                               r260501 2026-05-01 873454b5   *
 *                                                                             *
 *                                                                             *
 *                              =================                              *
 *                              |               |                              *
 *                              |     A M S     |                              *
 *                              |               |                              *
 *                              =================                              *
 *                                                                             *
 *                                                                             *
 *   Online information and documentation:  https://www.scm.com/support/       *
 *   E-mail:  support@scm.com   info@scm.com                                   *
 *                                                                             *
 *   Scientific publications using AMS results must be properly referenced     *
 *   See the User Manuals (or the web site) for recommended citations          *
 *   The terms and conditions of the End User License Agreement apply to       *
 *   the use of AMS, https://www.scm.com/license-terms/                        *
 *                                                                             *
 **********************  x86_64_linux_intel / intelmpi  ************************
 
 Licensed to: Jong-June Jeon / University of Seoul 2026-06-02 13:44:15
 SCM User ID: u30731
  
 AMS 2026.103  RunTime: Jun03-2026 03:29:21  ShM Nodes: 1  Procs: 1

 AMS jobname: c3_eda
 AMS jobid  : 1356598740

 Start   directory: /gpfs/home1/yeseo1ee/projects/eda-asm-prediction/ADF_800/adf_outputs/batch_000/dipolar_001275/
 Results directory: /gpfs/home1/yeseo1ee/projects/eda-asm-prediction/ADF_800/adf_outputs/batch_000/dipolar_001275/c3_eda.results/
 Scratch directory: /tmp/amstmp_c3_eda_kid0.1356598740/

 RNG seed: 128999221 362916694 2132066491 -1160630190 1138418432 -1104351822 -1619747281 2064096248



                      ************************************************************************
                      *  ADF 2026.103  RunTime: Jun03-2026 03:29:21  ShM Nodes: 1  Procs: 1  *
                      ************************************************************************
  

       ****************************
       * SINGLE POINT CALCULATION *
       ****************************

--------
Geometry
--------
Formula: C16H18N2O7
Atoms
  Index Symbol   x (angstrom)   y (angstrom)   z (angstrom)
      1      C    -4.68033000    -0.60826000     2.65797000 adf.f=fA
      2      N    -3.70571000    -0.68962000     1.58580000 adf.f=fA
      3      C    -2.54248000    -0.03388000     1.65128000 adf.f=fA
      4      O    -2.20109000     0.68677000     2.59446000 adf.f=fA
      5      C    -1.60262000    -0.28845000     0.50625000 adf.f=fA
      6      O    -1.99928000    -1.22273000    -0.43622000 adf.f=fA
      7      C    -1.17285000    -1.06690000    -1.55622000 adf.f=fA
      8      O    -1.20716000    -1.86527000    -2.46871000 adf.f=fA
      9      C    -0.43993000     0.14901000    -1.30033000 adf.f=fA
     10      C     0.46793000     0.83428000    -2.21621000 adf.f=fA
     11      O     0.79539000     2.00668000    -2.13116000 adf.f=fA
     12      O     0.91588000     0.01110000    -3.17119000 adf.f=fA
     13      C     1.84568000     0.56906000    -4.11093000 adf.f=fA
     14      N    -0.96476000     0.71698000    -0.16077000 adf.f=fA
     15      C    -0.90400000     2.12676000     0.22534000 adf.f=fA
     16      H    -5.09099000     0.40981000     2.74698000 adf.f=fA
     17      H    -5.49908000    -1.30501000     2.44458000 adf.f=fA
     18      H    -4.21994000    -0.87645000     3.62077000 adf.f=fA
     19      H    -3.90843000    -1.24622000     0.76097000 adf.f=fA
     20      H     2.09030000    -0.24225000    -4.80602000 adf.f=fA
     21      H     1.39048000     1.41026000    -4.65325000 adf.f=fA
     22      H     2.75093000     0.91220000    -3.59089000 adf.f=fA
     23      H     0.11758000     2.50106000     0.15064000 adf.f=fA
     24      H    -1.54308000     2.70523000    -0.45787000 adf.f=fA
     25      H    -1.27114000     2.22203000     1.24919000 adf.f=fA
     26      C     0.72674000    -1.72907000     0.27001000 adf.f=fB
     27      C     2.08844000    -1.25954000     0.79723000 adf.f=fB
     28      O     1.94315000    -1.59927000     2.19981000 adf.f=fB
     29      C     0.73737000    -0.81807000     2.39511000 adf.f=fB
     30      C     1.21331000     0.54290000     1.89620000 adf.f=fB
     31      C     2.06998000     0.26839000     0.89228000 adf.f=fB
     32      C     2.83636000     1.13250000    -0.01354000 adf.f=fB
     33      C     2.98601000     2.58958000     0.32556000 adf.f=fB
     34      O     3.38223000     0.63695000    -0.99829000 adf.f=fB
     35      C    -0.17311000    -1.45554000     1.30321000 adf.f=fB
     36      H     0.61560000    -2.45622000    -0.53107000 adf.f=fB
     37      H     2.97178000    -1.71573000     0.34232000 adf.f=fB
     38      H     0.36718000    -0.87688000     3.42249000 adf.f=fB
     39      H     0.87472000     1.50607000     2.27007000 adf.f=fB
     40      H     3.21657000     3.16142000    -0.58274000 adf.f=fB
     41      H     2.09711000     2.99891000     0.82392000 adf.f=fB
     42      H     3.83145000     2.69068000     1.02799000 adf.f=fB
     43      H    -0.93620000    -2.17027000     1.61548000 adf.f=fB

Total System Charge              0.00000


----------------
ADF Engine Input
----------------
 
   Basis
     Type TZ2P
     Core None
   End
   XC
     GGA BLYP
     Dispersion GRIMME3 BJDAMP
   End
   Symmetry NOSYM
   NumericalQuality Normal
   Unrestricted No
   SCF
     Iterations 200
     Converge 1.0e-6
   End
   fragments
     fA c1_fragA_ts.results/adf.rkf
     fB c2_fragB_ts.results/adf.rkf
   end
   etsnocv
     enocv 0.05
     ekmin 0.5
   end
   print etslowdin
   Save TAPE21
 

 Title: *** (NO TITLE) ***

 *** adf ***



 ===========================
 A T T A C H E D   F I L E S
 ===========================
  



 ===============================
 M O D E L   P A R A M E T E R S
 ===============================
  
 DENSITY FUNCTIONAL POTENTIAL (scf)
    LDA:                               Exchange only                           == Not Default ==
    Gradient Corrections:              Becke88 LYP                             == Not Default ==

 SPIN  (restricted / unrestr.)
    Molecule:                          Restricted                               
    Fragments:                         Restricted                               

 OTHER ASPECTS
    Relativistic Corrections:          scalar (ZORA,MAPA)                       

    Nuclear Charge Density Model:      Point Charge Nuclei                      
    Core Treatment:                    Frozen Orbital(s)                        

    Hyperfine or Zeeman Interaction:   ---                                      

 Settings for Grimme D3 dispersion correction

      damping                        BJ
      s6                          1.000
      s8                          2.700
      a1                          0.430
      a2                          4.236

 Other (technical) parameters

      alpha                      14.000
      version                         4
 


 Fragment File(s)
 ----------------
 fA:
         file : c1_fragA_ts.results/adf.rkf
         jobid: 2092343509
         title: *** adf ***
 fB:
         file : c2_fragB_ts.results/adf.rkf
         jobid: 214524843
         title: *** adf ***



 ===============
 G E O M E T R Y  ***  3D  Molecule  ***
 ===============
  

 ATOMS
 =====                            X Y Z                    CHARGE
                                (Angstrom)             Nucl     +Core       At.Mass
                       --------------------------    ----------------       -------
    1  C              -4.6803   -0.6083    2.6580      6.00      6.00       12.0000
    2  N              -3.7057   -0.6896    1.5858      7.00      7.00       14.0031
    3  C              -2.5425   -0.0339    1.6513      6.00      6.00       12.0000
    4  O              -2.2011    0.6868    2.5945      8.00      8.00       15.9949
    5  C              -1.6026   -0.2884    0.5062      6.00      6.00       12.0000
    6  O              -1.9993   -1.2227   -0.4362      8.00      8.00       15.9949
    7  C              -1.1728   -1.0669   -1.5562      6.00      6.00       12.0000
    8  O              -1.2072   -1.8653   -2.4687      8.00      8.00       15.9949
    9  C              -0.4399    0.1490   -1.3003      6.00      6.00       12.0000
   10  C               0.4679    0.8343   -2.2162      6.00      6.00       12.0000
   11  O               0.7954    2.0067   -2.1312      8.00      8.00       15.9949
   12  O               0.9159    0.0111   -3.1712      8.00      8.00       15.9949
   13  C               1.8457    0.5691   -4.1109      6.00      6.00       12.0000
   14  N              -0.9648    0.7170   -0.1608      7.00      7.00       14.0031
   15  C              -0.9040    2.1268    0.2253      6.00      6.00       12.0000
   16  H              -5.0910    0.4098    2.7470      1.00      1.00        1.0078
   17  H              -5.4991   -1.3050    2.4446      1.00      1.00        1.0078
   18  H              -4.2199   -0.8764    3.6208      1.00      1.00        1.0078
   19  H              -3.9084   -1.2462    0.7610      1.00      1.00        1.0078
   20  H               2.0903   -0.2422   -4.8060      1.00      1.00        1.0078
   21  H               1.3905    1.4103   -4.6532      1.00      1.00        1.0078
   22  H               2.7509    0.9122   -3.5909      1.00      1.00        1.0078
   23  H               0.1176    2.5011    0.1506      1.00      1.00        1.0078
   24  H              -1.5431    2.7052   -0.4579      1.00      1.00        1.0078
   25  H              -1.2711    2.2220    1.2492      1.00      1.00        1.0078
   26  C               0.7267   -1.7291    0.2700      6.00      6.00       12.0000
   27  C               2.0884   -1.2595    0.7972      6.00      6.00       12.0000
   28  O               1.9431   -1.5993    2.1998      8.00      8.00       15.9949
   29  C               0.7374   -0.8181    2.3951      6.00      6.00       12.0000
   30  C               1.2133    0.5429    1.8962      6.00      6.00       12.0000
   31  C               2.0700    0.2684    0.8923      6.00      6.00       12.0000
   32  C               2.8364    1.1325   -0.0135      6.00      6.00       12.0000
   33  C               2.9860    2.5896    0.3256      6.00      6.00       12.0000
   34  O               3.3822    0.6370   -0.9983      8.00      8.00       15.9949
   35  C              -0.1731   -1.4555    1.3032      6.00      6.00       12.0000
   36  H               0.6156   -2.4562   -0.5311      1.00      1.00        1.0078
   37  H               2.9718   -1.7157    0.3423      1.00      1.00        1.0078
   38  H               0.3672   -0.8769    3.4225      1.00      1.00        1.0078
   39  H               0.8747    1.5061    2.2701      1.00      1.00        1.0078
   40  H               3.2166    3.1614   -0.5827      1.00      1.00        1.0078
   41  H               2.0971    2.9989    0.8239      1.00      1.00        1.0078
   42  H               3.8314    2.6907    1.0280      1.00      1.00        1.0078
   43  H              -0.9362   -2.1703    1.6155      1.00      1.00        1.0078


 FRAGMENTS
 =========                                     Atoms in this Fragment     Cart. coord.s (Angstrom)
                                               -------------------------------------------------------
    1  fA                                                1  C           -4.6803   -0.6083    2.6580
                                                         3  C           -2.5425   -0.0339    1.6513
                                                         5  C           -1.6026   -0.2884    0.5062
                                                         7  C           -1.1728   -1.0669   -1.5562
                                                         9  C           -0.4399    0.1490   -1.3003
                                                        10  C            0.4679    0.8343   -2.2162
                                                        13  C            1.8457    0.5691   -4.1109
                                                        15  C           -0.9040    2.1268    0.2253
                                                         2  N           -3.7057   -0.6896    1.5858
                                                        14  N           -0.9648    0.7170   -0.1608
                                                         4  O           -2.2011    0.6868    2.5945
                                                         6  O           -1.9993   -1.2227   -0.4362
                                                         8  O           -1.2072   -1.8653   -2.4687
                                                        11  O            0.7954    2.0067   -2.1312
                                                        12  O            0.9159    0.0111   -3.1712
                                                        16  H           -5.0910    0.4098    2.7470
                                                        17  H           -5.4991   -1.3050    2.4446
                                                        18  H           -4.2199   -0.8764    3.6208
                                                        19  H           -3.9084   -1.2462    0.7610
                                                        20  H            2.0903   -0.2422   -4.8060
                                                        21  H            1.3905    1.4103   -4.6532
                                                        22  H            2.7509    0.9122   -3.5909
                                                        23  H            0.1176    2.5011    0.1506
                                                        24  H           -1.5431    2.7052   -0.4579
                                                        25  H           -1.2711    2.2220    1.2492
    2  fB                                               26  C            0.7267   -1.7291    0.2700
                                                        27  C            2.0884   -1.2595    0.7972
                                                        29  C            0.7374   -0.8181    2.3951
                                                        30  C            1.2133    0.5429    1.8962
                                                        31  C            2.0700    0.2684    0.8923
                                                        32  C            2.8364    1.1325   -0.0135
                                                        33  C            2.9860    2.5896    0.3256
                                                        35  C           -0.1731   -1.4555    1.3032
                                                        28  O            1.9431   -1.5993    2.1998
                                                        34  O            3.3822    0.6370   -0.9983
                                                        36  H            0.6156   -2.4562   -0.5311
                                                        37  H            2.9718   -1.7157    0.3423
                                                        38  H            0.3672   -0.8769    3.4225
                                                        39  H            0.8747    1.5061    2.2701
                                                        40  H            3.2166    3.1614   -0.5827
                                                        41  H            2.0971    2.9989    0.8239
                                                        42  H            3.8314    2.6907    1.0280
                                                        43  H           -0.9362   -2.1703    1.6155



 =====================================
 S Y M M E T R Y ,   E L E C T R O N S
 =====================================
  
 Symmetry: NOSYM

 Irreducible Representations, including subspecies
 -------------------------------------------------
 A


 Configuration of Valence Electrons
 ==================================
 ( determined in the SCF procedure )

 Total:   184

 Net Charge: 0 (Nuclei minus Electrons)

 Aufbau principle for MO occupations will be applied through SCF cycle no.     100
 Thereafter, the program will assign electrons to MOs that are spatially
 similar to the occupied MOs in a "reference" cycle ("KeepOrbitals").
 The reference cycle is always the PREVIOUS cycle: it will evolve with
 the SCF procedure.
 ***************************************************************************************************



                                      ****************************************
                                      *  B U I L D : (Fragments, Functions)  *
                                      ****************************************
  

 The individual fragments are copies of the corresponding 'Master' fragments defined on the fragment files.
 However, they may have been rotated (and translated) with respect to the Master. The local coordinate axes
 of each fragment (which define for instance the spatial orientation in the current molecule of a fragment
 P:x orbital) are not necessarily those of the molecule.
 The local frame (if different from the molecular one) is printed to enable an interpretation of the expan-
 sion of an MO in Fragment Orbitals.



                                              ************************
                                              *  Fragment Type : fA  *
                                              ************************
  

 Fragment no.    1   (in the list of all fragments)
 -----------------
 The local coordinate frame is identical to the molecular frame.

 Check Atomic Coordinates:

                  Master (on file)          After Computed Tranformation               As specified on Input
           ----------------------------     ----------------------------     ---------------------------------
     1)    -4.68033  -0.60826   2.65797     -4.68033  -0.60826   2.65797       1  -4.68033  -0.60826   2.65797
     2)    -2.54248  -0.03388   1.65128     -2.54248  -0.03388   1.65128       3  -2.54248  -0.03388   1.65128
     3)    -1.60262  -0.28845   0.50625     -1.60262  -0.28845   0.50625       5  -1.60262  -0.28845   0.50625
     4)    -1.17285  -1.06690  -1.55622     -1.17285  -1.06690  -1.55622       7  -1.17285  -1.06690  -1.55622
     5)    -0.43993   0.14901  -1.30033     -0.43993   0.14901  -1.30033       9  -0.43993   0.14901  -1.30033
     6)     0.46793   0.83428  -2.21621      0.46793   0.83428  -2.21621      10   0.46793   0.83428  -2.21621
     7)     1.84568   0.56906  -4.11093      1.84568   0.56906  -4.11093      13   1.84568   0.56906  -4.11093
     8)    -0.90400   2.12676   0.22534     -0.90400   2.12676   0.22534      15  -0.90400   2.12676   0.22534
     9)    -3.70571  -0.68962   1.58580     -3.70571  -0.68962   1.58580       2  -3.70571  -0.68962   1.58580
    10)    -0.96476   0.71698  -0.16077     -0.96476   0.71698  -0.16077      14  -0.96476   0.71698  -0.16077
    11)    -2.20109   0.68677   2.59446     -2.20109   0.68677   2.59446       4  -2.20109   0.68677   2.59446
    12)    -1.99928  -1.22273  -0.43622     -1.99928  -1.22273  -0.43622       6  -1.99928  -1.22273  -0.43622
    13)    -1.20716  -1.86527  -2.46871     -1.20716  -1.86527  -2.46871       8  -1.20716  -1.86527  -2.46871
    14)     0.79539   2.00668  -2.13116      0.79539   2.00668  -2.13116      11   0.79539   2.00668  -2.13116
    15)     0.91588   0.01110  -3.17119      0.91588   0.01110  -3.17119      12   0.91588   0.01110  -3.17119
    16)    -5.09099   0.40981   2.74698     -5.09099   0.40981   2.74698      16  -5.09099   0.40981   2.74698
    17)    -5.49908  -1.30501   2.44458     -5.49908  -1.30501   2.44458      17  -5.49908  -1.30501   2.44458
    18)    -4.21994  -0.87645   3.62077     -4.21994  -0.87645   3.62077      18  -4.21994  -0.87645   3.62077
    19)    -3.90843  -1.24622   0.76097     -3.90843  -1.24622   0.76097      19  -3.90843  -1.24622   0.76097
    20)     2.09030  -0.24225  -4.80602      2.09030  -0.24225  -4.80602      20   2.09030  -0.24225  -4.80602
    21)     1.39048   1.41026  -4.65325      1.39048   1.41026  -4.65325      21   1.39048   1.41026  -4.65325
    22)     2.75093   0.91220  -3.59089      2.75093   0.91220  -3.59089      22   2.75093   0.91220  -3.59089
    23)     0.11758   2.50106   0.15064      0.11758   2.50106   0.15064      23   0.11758   2.50106   0.15064
    24)    -1.54308   2.70523  -0.45787     -1.54308   2.70523  -0.45787      24  -1.54308   2.70523  -0.45787
    25)    -1.27114   2.22203   1.24919     -1.27114   2.22203   1.24919      25  -1.27114   2.22203   1.24919



                                              ************************
                                              *  Fragment Type : fB  *
                                              ************************
  

 Fragment no.    2   (in the list of all fragments)
 -----------------
 The local coordinate frame is identical to the molecular frame.

 Check Atomic Coordinates:

                  Master (on file)          After Computed Tranformation               As specified on Input
           ----------------------------     ----------------------------     ---------------------------------
     1)     0.72674  -1.72907   0.27001      0.72674  -1.72907   0.27001      26   0.72674  -1.72907   0.27001
     2)     2.08844  -1.25954   0.79723      2.08844  -1.25954   0.79723      27   2.08844  -1.25954   0.79723
     3)     0.73737  -0.81807   2.39511      0.73737  -0.81807   2.39511      29   0.73737  -0.81807   2.39511
     4)     1.21331   0.54290   1.89620      1.21331   0.54290   1.89620      30   1.21331   0.54290   1.89620
     5)     2.06998   0.26839   0.89228      2.06998   0.26839   0.89228      31   2.06998   0.26839   0.89228
     6)     2.83636   1.13250  -0.01354      2.83636   1.13250  -0.01354      32   2.83636   1.13250  -0.01354
     7)     2.98601   2.58958   0.32556      2.98601   2.58958   0.32556      33   2.98601   2.58958   0.32556
     8)    -0.17311  -1.45554   1.30321     -0.17311  -1.45554   1.30321      35  -0.17311  -1.45554   1.30321
     9)     1.94315  -1.59927   2.19981      1.94315  -1.59927   2.19981      28   1.94315  -1.59927   2.19981
    10)     3.38223   0.63695  -0.99829      3.38223   0.63695  -0.99829      34   3.38223   0.63695  -0.99829
    11)     0.61560  -2.45622  -0.53107      0.61560  -2.45622  -0.53107      36   0.61560  -2.45622  -0.53107
    12)     2.97178  -1.71573   0.34232      2.97178  -1.71573   0.34232      37   2.97178  -1.71573   0.34232
    13)     0.36718  -0.87688   3.42249      0.36718  -0.87688   3.42249      38   0.36718  -0.87688   3.42249
    14)     0.87472   1.50607   2.27007      0.87472   1.50607   2.27007      39   0.87472   1.50607   2.27007
    15)     3.21657   3.16142  -0.58274      3.21657   3.16142  -0.58274      40   3.21657   3.16142  -0.58274
    16)     2.09711   2.99891   0.82392      2.09711   2.99891   0.82392      41   2.09711   2.99891   0.82392
    17)     3.83145   2.69068   1.02799      3.83145   2.69068   1.02799      42   3.83145   2.69068   1.02799
    18)    -0.93620  -2.17027   1.61548     -0.93620  -2.17027   1.61548      43  -0.93620  -2.17027   1.61548



 =======
 S F O s  ***  (Symmetrized Fragment Orbitals)  ***
 =======
  
 SFOs are linear combinations of (valence) Fragment Orbitals (FOs), such that the SFOs transform as the
 irreducible representations of the (molecular) symmetry group. Each SFO is therefore characterized by
 an irrep of the molecule and by a few (or only one) generating FOs.
 The SFOs constitute a symmetry-adapted basis for the Fock matrix. The MO eigenvector coefficients in
 this basis provide a direct interpretation of the MOs in terms of Frontier Orbital Theory.

 The SFOs are combined with auxiliary Core Functions (CFs) to ensure orthogonalization on the (frozen)
 Core Orbitals (COs). The Core-orthogonalized SFOs (CSFOs) constitute the true Fock basis.

 The FOs, and hence also the (C)SFOs are combinations of the elementary basis functions (BAS). The basis
 functions that participate in the description of the SFOs depend on the irrep. The indices of the
 involved functions are printed below for each irrep.
 (The complete list of primitive basis functions is printed in another section)

 Total nr. of (C)SFOs (summation over all irreps) :   848

 NOTE: a (C)SFO that is defined as a combination of more than one FO is usually NOT normalized.



                                       === A ===
 Nr. of SFOs :  848
 Cartesian basis functions that participate in this irrep (total number =   966) :
      1     2     3     4     5     6     9    12     7    10
     13     8    11    14    15    16    17    18    19    20
     21    22    23    24    25    26    27    28    29    30
     31    32    33    34    35    36    39    42    37    40
     43    38    41    44    45    46    47    48    49    50
     51    52    53    54    55    56    57    58    59    60
     61    62    63    64    65    66    69    72    67    70
     73    68    71    74    75    76    77    78    79    80
     81    82    83    84    85    86    87    88    89    90
     91    92    93    94    95    96    99   102    97   100
    103    98   101   104   105   106   107   108   109   110
    111   112   113   114   115   116   117   118   119   120
    121   122   123   124   125   126   129   132   127   130
    133   128   131   134   135   136   137   138   139   140
    141   142   143   144   145   146   147   148   149   150
    151   152   153   154   155   156   159   162   157   160
    163   158   161   164   165   166   167   168   169   170
    171   172   173   174   175   176   177   178   179   180
    181   182   183   184   185   186   189   192   187   190
    193   188   191   194   195   196   197   198   199   200
    201   202   203   204   205   206   207   208   209   210
    211   212   213   214   215   216   219   222   217   220
    223   218   221   224   225   226   227   228   229   230
    231   232   233   234   235   236   237   238   239   240
    241   242   243   244   245   246   249   252   247   250
    253   248   251   254   255   256   257   258   259   260
    261   262   263   264   265   266   267   268   269   270
    271   272   273   274   275   276   279   282   277   280
    283   278   281   284   285   286   287   288   289   290
    291   292   293   294   295   296   297   298   299   300
    301   302   303   304   305   306   309   312   307   310
    313   308   311   314   315   316   317   318   319   320
    321   322   323   324   325   326   327   328   329   330
    331   332   333   334   335   336   339   342   337   340
    343   338   341   344   345   346   347   348   349   350
    351   352   353   354   355   356   357   358   359   360
    361   362   363   364   365   366   369   372   367   370
    373   368   371   374   375   376   377   378   379   380
    381   382   383   384   385   386   387   388   389   390
    391   392   393   394   395   396   399   402   397   400
    403   398   401   404   405   406   407   408   409   410
    411   412   413   414   415   416   417   418   419   420
    421   422   423   424   425   426   429   432   427   430
    433   428   431   434   435   436   437   438   439   440
    441   442   443   444   445   446   447   448   449   450
    451   452   453   454   455   456   457   458   459   460
    461   462   463   464   465   466   467   468   469   470
    471   472   473   474   475   476   477   478   479   480
    481   482   483   484   485   486   487   488   489   490
    491   492   493   494   495   496   497   498   499   500
    501   502   503   504   505   506   507   508   509   510
    511   512   513   514   515   516   517   518   519   520
    521   522   523   524   525   526   527   528   529   530
    531   532   533   534   535   536   537   538   539   540
    541   542   543   544   545   546   547   548   549   550
    551   552   553   554   555   556   557   558   559   560
    561   562   563   564   565   566   567   568   569   570
    571   572   573   574   575   576   579   582   577   580
    583   578   581   584   585   586   587   588   589   590
    591   592   593   594   595   596   597   598   599   600
    601   602   603   604   605   606   609   612   607   610
    613   608   611   614   615   616   617   618   619   620
    621   622   623   624   625   626   627   628   629   630
    631   632   633   634   635   636   639   642   637   640
    643   638   641   644   645   646   647   648   649   650
    651   652   653   654   655   656   657   658   659   660
    661   662   663   664   665   666   669   672   667   670
    673   668   671   674   675   676   677   678   679   680
    681   682   683   684   685   686   687   688   689   690
    691   692   693   694   695   696   699   702   697   700
    703   698   701   704   705   706   707   708   709   710
    711   712   713   714   715   716   717   718   719   720
    721   722   723   724   725   726   729   732   727   730
    733   728   731   734   735   736   737   738   739   740
    741   742   743   744   745   746   747   748   749   750
    751   752   753   754   755   756   759   762   757   760
    763   758   761   764   765   766   767   768   769   770
    771   772   773   774   775   776   777   778   779   780
    781   782   783   784   785   786   789   792   787   790
    793   788   791   794   795   796   797   798   799   800
    801   802   803   804   805   806   807   808   809   810
    811   812   813   814   815   816   819   822   817   820
    823   818   821   824   825   826   827   828   829   830
    831   832   833   834   835   836   837   838   839   840
    841   842   843   844   845   846   849   852   847   850
    853   848   851   854   855   856   857   858   859   860
    861   862   863   864   865   866   867   868   869   870
    871   872   873   874   875   876   877   878   879   880
    881   882   883   884   885   886   887   888   889   890
    891   892   893   894   895   896   897   898   899   900
    901   902   903   904   905   906   907   908   909   910
    911   912   913   914   915   916   917   918   919   920
    921   922   923   924   925   926   927   928   929   930
    931   932   933   934   935   936   937   938   939   940
    941   942   943   944   945   946   947   948   949   950
    951   952   953   954   955   956   957   958   959   960
    961   962   963   964   965   966

    SFO  (index         Fragment          Generating    Expansion in Fragment Orbitals
  indx  incl.CFs)   Occup   Orb.Energy   FragmentType  Coeff.   Orbital     on Fragment
 --------------------------------------------------------------------------------------
     1       1      2.000     -18.882 au  fA            1.00      1 A               1
                        (    -513.818 eV)
     2       2      2.000     -18.841 au  fA            1.00      2 A               1
                        (    -512.692 eV)
     3       3      2.000     -18.782 au  fA            1.00      3 A               1
                        (    -511.096 eV)
     4       4      2.000     -18.781 au  fA            1.00      4 A               1
                        (    -511.068 eV)
     5       5      2.000     -18.774 au  fA            1.00      5 A               1
                        (    -510.863 eV)
     6       6      2.000     -14.146 au  fA            1.00      6 A               1
                        (    -384.941 eV)
     7       7      2.000     -14.076 au  fA            1.00      7 A               1
                        (    -383.038 eV)
     8       8      2.000     -10.053 au  fA            1.00      8 A               1
                        (    -273.563 eV)
     9       9      2.000     -10.049 au  fA            1.00      9 A               1
                        (    -273.452 eV)
    10      10      2.000     -10.047 au  fA            1.00     10 A               1
                        (    -273.385 eV)
    11      11      2.000     -10.047 au  fA            1.00     11 A               1
                        (    -273.382 eV)
    12      12      2.000      -9.984 au  fA            1.00     12 A               1
                        (    -271.690 eV)
    13      13      2.000      -9.983 au  fA            1.00     13 A               1
                        (    -271.646 eV)
    14      14      2.000      -9.976 au  fA            1.00     14 A               1
                        (    -271.468 eV)
    15      15      2.000      -9.975 au  fA            1.00     15 A               1
                        (    -271.422 eV)
    16      16      2.000      -1.062 au  fA            1.00     16 A               1
                        (     -28.906 eV)
    17      17      2.000      -1.019 au  fA            1.00     17 A               1
                        (     -27.736 eV)
    18      18      2.000      -0.971 au  fA            1.00     18 A               1
                        (     -26.416 eV)
    19      19      2.000      -0.947 au  fA            1.00     19 A               1
                        (     -25.767 eV)
    20      20      2.000      -0.932 au  fA            1.00     20 A               1
                        (     -25.371 eV)
    21      21      2.000      -0.918 au  fA            1.00     21 A               1
                        (     -24.993 eV)
    22      22      2.000      -0.871 au  fA            1.00     22 A               1
                        (     -23.694 eV)
    23      23      2.000      -0.737 au  fA            1.00     23 A               1
                        (     -20.053 eV)
    24      24      2.000      -0.705 au  fA            1.00     24 A               1
                        (     -19.197 eV)
    25      25      2.000      -0.683 au  fA            1.00     25 A               1
                        (     -18.594 eV)
    26      26      2.000      -0.657 au  fA            1.00     26 A               1
                        (     -17.864 eV)
    27      27      2.000      -0.600 au  fA            1.00     27 A               1
                        (     -16.336 eV)
    28      28      2.000      -0.578 au  fA            1.00     28 A               1
                        (     -15.741 eV)
    29      29      2.000      -0.557 au  fA            1.00     29 A               1
                        (     -15.145 eV)
    30      30      2.000      -0.540 au  fA            1.00     30 A               1
                        (     -14.689 eV)
    31      31      2.000      -0.516 au  fA            1.00     31 A               1
                        (     -14.044 eV)
    32      32      2.000      -0.481 au  fA            1.00     32 A               1
                        (     -13.102 eV)
    33      33      2.000      -0.477 au  fA            1.00     33 A               1
                        (     -12.983 eV)
    34      34      2.000      -0.460 au  fA            1.00     34 A               1
                        (     -12.516 eV)
    35      35      2.000      -0.442 au  fA            1.00     35 A               1
                        (     -12.025 eV)
    36      36      2.000      -0.433 au  fA            1.00     36 A               1
                        (     -11.794 eV)
    37      37      2.000      -0.426 au  fA            1.00     37 A               1
                        (     -11.587 eV)
    38      38      2.000      -0.422 au  fA            1.00     38 A               1
                        (     -11.496 eV)
    39      39      2.000      -0.416 au  fA            1.00     39 A               1
                        (     -11.311 eV)
    40      40      2.000      -0.399 au  fA            1.00     40 A               1
                        (     -10.852 eV)
    41      41      2.000      -0.392 au  fA            1.00     41 A               1
                        (     -10.669 eV)
    42      42      2.000      -0.388 au  fA            1.00     42 A               1
                        (     -10.551 eV)
    43      43      2.000      -0.380 au  fA            1.00     43 A               1
                        (     -10.338 eV)
    44      44      2.000      -0.375 au  fA            1.00     44 A               1
                        (     -10.206 eV)
    45      45      2.000      -0.366 au  fA            1.00     45 A               1
                        (      -9.960 eV)
    46      46      2.000      -0.362 au  fA            1.00     46 A               1
                        (      -9.839 eV)
    47      47      2.000      -0.357 au  fA            1.00     47 A               1
                        (      -9.712 eV)
    48      48      2.000      -0.326 au  fA            1.00     48 A               1
                        (      -8.865 eV)
    49      49      2.000      -0.316 au  fA            1.00     49 A               1
                        (      -8.601 eV)
    50      50      2.000      -0.307 au  fA            1.00     50 A               1
                        (      -8.364 eV)
    51      51      2.000      -0.269 au  fA            1.00     51 A               1
                        (      -7.313 eV)
    52      52      2.000      -0.250 au  fA            1.00     52 A               1
                        (      -6.812 eV)
    53      53      2.000      -0.249 au  fA            1.00     53 A               1
                        (      -6.768 eV)
    54      54      2.000      -0.240 au  fA            1.00     54 A               1
                        (      -6.524 eV)
    55      55      2.000      -0.232 au  fA            1.00     55 A               1
                        (      -6.303 eV)
    56      56      2.000      -0.201 au  fA            1.00     56 A               1
                        (      -5.480 eV)
    57      57       --        -0.130 au  fA            1.00     57 A               1
                        (      -3.541 eV)
    58      58       --        -0.042 au  fA            1.00     58 A               1
                        (      -1.144 eV)
    59      59       --        -0.030 au  fA            1.00     59 A               1
                        (      -0.818 eV)
    60      60       --        -0.017 au  fA            1.00     60 A               1
                        (      -0.470 eV)
    61      61       --        -0.005 au  fA            1.00     61 A               1
                        (      -0.141 eV)
    62      62       --         0.005 au  fA            1.00     62 A               1
                        (       0.147 eV)
    63      63       --         0.008 au  fA            1.00     63 A               1
                        (       0.218 eV)
    64      64       --         0.028 au  fA            1.00     64 A               1
                        (       0.763 eV)
    65      65       --         0.036 au  fA            1.00     65 A               1
                        (       0.989 eV)
    66      66       --         0.044 au  fA            1.00     66 A               1
                        (       1.188 eV)
    67      67       --         0.045 au  fA            1.00     67 A               1
                        (       1.234 eV)
    68      68       --         0.047 au  fA            1.00     68 A               1
                        (       1.277 eV)
    69      69       --         0.052 au  fA            1.00     69 A               1
                        (       1.410 eV)
    70      70       --         0.057 au  fA            1.00     70 A               1
                        (       1.561 eV)
    71      71       --         0.071 au  fA            1.00     71 A               1
                        (       1.923 eV)
    72      72       --         0.076 au  fA            1.00     72 A               1
                        (       2.066 eV)
    73      73       --         0.079 au  fA            1.00     73 A               1
                        (       2.159 eV)
    74      74       --         0.093 au  fA            1.00     74 A               1
                        (       2.527 eV)
    75      75       --         0.109 au  fA            1.00     75 A               1
                        (       2.953 eV)
    76      76       --         0.120 au  fA            1.00     76 A               1
                        (       3.259 eV)
    77      77       --         0.127 au  fA            1.00     77 A               1
                        (       3.444 eV)
    78      78       --         0.135 au  fA            1.00     78 A               1
                        (       3.682 eV)
    79      79       --         0.139 au  fA            1.00     79 A               1
                        (       3.770 eV)
    80      80       --         0.147 au  fA            1.00     80 A               1
                        (       3.992 eV)
    81      81       --         0.151 au  fA            1.00     81 A               1
                        (       4.119 eV)
    82      82       --         0.157 au  fA            1.00     82 A               1
                        (       4.274 eV)
    83      83       --         0.171 au  fA            1.00     83 A               1
                        (       4.655 eV)
    84      84       --         0.177 au  fA            1.00     84 A               1
                        (       4.804 eV)
    85      85       --         0.184 au  fA            1.00     85 A               1
                        (       5.006 eV)
    86      86       --         0.190 au  fA            1.00     86 A               1
                        (       5.157 eV)
    87      87       --         0.201 au  fA            1.00     87 A               1
                        (       5.482 eV)
    88      88       --         0.215 au  fA            1.00     88 A               1
                        (       5.841 eV)
    89      89       --         0.223 au  fA            1.00     89 A               1
                        (       6.081 eV)
    90      90       --         0.226 au  fA            1.00     90 A               1
                        (       6.161 eV)
    91      91       --         0.237 au  fA            1.00     91 A               1
                        (       6.436 eV)
    92      92       --         0.247 au  fA            1.00     92 A               1
                        (       6.709 eV)
    93      93       --         0.255 au  fA            1.00     93 A               1
                        (       6.948 eV)
    94      94       --         0.261 au  fA            1.00     94 A               1
                        (       7.092 eV)
    95      95       --         0.264 au  fA            1.00     95 A               1
                        (       7.174 eV)
    96      96       --         0.272 au  fA            1.00     96 A               1
                        (       7.413 eV)
    97      97       --         0.289 au  fA            1.00     97 A               1
                        (       7.859 eV)
    98      98       --         0.290 au  fA            1.00     98 A               1
                        (       7.904 eV)
    99      99       --         0.299 au  fA            1.00     99 A               1
                        (       8.145 eV)
   100     100       --         0.314 au  fA            1.00    100 A               1
                        (       8.552 eV)
   101     101       --         0.318 au  fA            1.00    101 A               1
                        (       8.663 eV)
   102     102       --         0.320 au  fA            1.00    102 A               1
                        (       8.706 eV)
   103     103       --         0.328 au  fA            1.00    103 A               1
                        (       8.918 eV)
   104     104       --         0.338 au  fA            1.00    104 A               1
                        (       9.202 eV)
   105     105       --         0.341 au  fA            1.00    105 A               1
                        (       9.277 eV)
   106     106       --         0.347 au  fA            1.00    106 A               1
                        (       9.445 eV)
   107     107       --         0.354 au  fA            1.00    107 A               1
                        (       9.621 eV)
   108     108       --         0.359 au  fA            1.00    108 A               1
                        (       9.761 eV)
   109     109       --         0.371 au  fA            1.00    109 A               1
                        (      10.100 eV)
   110     110       --         0.376 au  fA            1.00    110 A               1
                        (      10.229 eV)
   111     111       --         0.389 au  fA            1.00    111 A               1
                        (      10.596 eV)
   112     112       --         0.397 au  fA            1.00    112 A               1
                        (      10.797 eV)
   113     113       --         0.408 au  fA            1.00    113 A               1
                        (      11.091 eV)
   114     114       --         0.414 au  fA            1.00    114 A               1
                        (      11.270 eV)
   115     115       --         0.424 au  fA            1.00    115 A               1
                        (      11.537 eV)
   116     116       --         0.437 au  fA            1.00    116 A               1
                        (      11.898 eV)
   117     117       --         0.448 au  fA            1.00    117 A               1
                        (      12.186 eV)
   118     118       --         0.459 au  fA            1.00    118 A               1
                        (      12.479 eV)
   119     119       --         0.475 au  fA            1.00    119 A               1
                        (      12.919 eV)
   120     120       --         0.478 au  fA            1.00    120 A               1
                        (      12.998 eV)
   121     121       --         0.484 au  fA            1.00    121 A               1
                        (      13.157 eV)
   122     122       --         0.507 au  fA            1.00    122 A               1
                        (      13.787 eV)
   123     123       --         0.513 au  fA            1.00    123 A               1
                        (      13.951 eV)
   124     124       --         0.524 au  fA            1.00    124 A               1
                        (      14.248 eV)
   125     125       --         0.536 au  fA            1.00    125 A               1
                        (      14.593 eV)
   126     126       --         0.552 au  fA            1.00    126 A               1
                        (      15.027 eV)
   127     127       --         0.572 au  fA            1.00    127 A               1
                        (      15.566 eV)
   128     128       --         0.585 au  fA            1.00    128 A               1
                        (      15.915 eV)
   129     129       --         0.597 au  fA            1.00    129 A               1
                        (      16.244 eV)
   130     130       --         0.617 au  fA            1.00    130 A               1
                        (      16.799 eV)
   131     131       --         0.635 au  fA            1.00    131 A               1
                        (      17.272 eV)
   132     132       --         0.639 au  fA            1.00    132 A               1
                        (      17.401 eV)
   133     133       --         0.652 au  fA            1.00    133 A               1
                        (      17.740 eV)
   134     134       --         0.666 au  fA            1.00    134 A               1
                        (      18.133 eV)
   135     135       --         0.671 au  fA            1.00    135 A               1
                        (      18.248 eV)
   136     136       --         0.696 au  fA            1.00    136 A               1
                        (      18.946 eV)
   137     137       --         0.716 au  fA            1.00    137 A               1
                        (      19.490 eV)
   138     138       --         0.732 au  fA            1.00    138 A               1
                        (      19.931 eV)
   139     139       --         0.754 au  fA            1.00    139 A               1
                        (      20.518 eV)
   140     140       --         0.778 au  fA            1.00    140 A               1
                        (      21.183 eV)
   141     141       --         0.803 au  fA            1.00    141 A               1
                        (      21.858 eV)
   142     142       --         0.806 au  fA            1.00    142 A               1
                        (      21.939 eV)
   143     143       --         0.815 au  fA            1.00    143 A               1
                        (      22.186 eV)
   144     144       --         0.827 au  fA            1.00    144 A               1
                        (      22.506 eV)
   145     145       --         0.848 au  fA            1.00    145 A               1
                        (      23.064 eV)
   146     146       --         0.857 au  fA            1.00    146 A               1
                        (      23.313 eV)
   147     147       --         0.870 au  fA            1.00    147 A               1
                        (      23.679 eV)
   148     148       --         0.871 au  fA            1.00    148 A               1
                        (      23.713 eV)
   149     149       --         0.890 au  fA            1.00    149 A               1
                        (      24.212 eV)
   150     150       --         0.911 au  fA            1.00    150 A               1
                        (      24.784 eV)
   151     151       --         0.926 au  fA            1.00    151 A               1
                        (      25.201 eV)
   152     152       --         0.930 au  fA            1.00    152 A               1
                        (      25.302 eV)
   153     153       --         0.937 au  fA            1.00    153 A               1
                        (      25.493 eV)
   154     154       --         0.943 au  fA            1.00    154 A               1
                        (      25.651 eV)
   155     155       --         0.945 au  fA            1.00    155 A               1
                        (      25.724 eV)
   156     156       --         0.957 au  fA            1.00    156 A               1
                        (      26.043 eV)
   157     157       --         0.960 au  fA            1.00    157 A               1
                        (      26.115 eV)
   158     158       --         0.979 au  fA            1.00    158 A               1
                        (      26.643 eV)
   159     159       --         0.985 au  fA            1.00    159 A               1
                        (      26.809 eV)
   160     160       --         1.004 au  fA            1.00    160 A               1
                        (      27.324 eV)
   161     161       --         1.016 au  fA            1.00    161 A               1
                        (      27.641 eV)
   162     162       --         1.028 au  fA            1.00    162 A               1
                        (      27.986 eV)
   163     163       --         1.031 au  fA            1.00    163 A               1
                        (      28.051 eV)
   164     164       --         1.044 au  fA            1.00    164 A               1
                        (      28.401 eV)
   165     165       --         1.056 au  fA            1.00    165 A               1
                        (      28.733 eV)
   166     166       --         1.068 au  fA            1.00    166 A               1
                        (      29.056 eV)
   167     167       --         1.074 au  fA            1.00    167 A               1
                        (      29.221 eV)
   168     168       --         1.090 au  fA            1.00    168 A               1
                        (      29.659 eV)
   169     169       --         1.108 au  fA            1.00    169 A               1
                        (      30.159 eV)
   170     170       --         1.113 au  fA            1.00    170 A               1
                        (      30.288 eV)
   171     171       --         1.121 au  fA            1.00    171 A               1
                        (      30.507 eV)
   172     172       --         1.137 au  fA            1.00    172 A               1
                        (      30.930 eV)
   173     173       --         1.150 au  fA            1.00    173 A               1
                        (      31.290 eV)
   174     174       --         1.163 au  fA            1.00    174 A               1
                        (      31.653 eV)
   175     175       --         1.167 au  fA            1.00    175 A               1
                        (      31.753 eV)
   176     176       --         1.204 au  fA            1.00    176 A               1
                        (      32.765 eV)
   177     177       --         1.212 au  fA            1.00    177 A               1
                        (      32.970 eV)
   178     178       --         1.235 au  fA            1.00    178 A               1
                        (      33.607 eV)
   179     179       --         1.244 au  fA            1.00    179 A               1
                        (      33.857 eV)
   180     180       --         1.249 au  fA            1.00    180 A               1
                        (      33.988 eV)
   181     181       --         1.278 au  fA            1.00    181 A               1
                        (      34.782 eV)
   182     182       --         1.293 au  fA            1.00    182 A               1
                        (      35.184 eV)
   183     183       --         1.301 au  fA            1.00    183 A               1
                        (      35.407 eV)
   184     184       --         1.312 au  fA            1.00    184 A               1
                        (      35.690 eV)
   185     185       --         1.316 au  fA            1.00    185 A               1
                        (      35.803 eV)
   186     186       --         1.345 au  fA            1.00    186 A               1
                        (      36.586 eV)
   187     187       --         1.355 au  fA            1.00    187 A               1
                        (      36.881 eV)
   188     188       --         1.358 au  fA            1.00    188 A               1
                        (      36.955 eV)
   189     189       --         1.385 au  fA            1.00    189 A               1
                        (      37.675 eV)
   190     190       --         1.396 au  fA            1.00    190 A               1
                        (      37.984 eV)
   191     191       --         1.413 au  fA            1.00    191 A               1
                        (      38.447 eV)
   192     192       --         1.422 au  fA            1.00    192 A               1
                        (      38.699 eV)
   193     193       --         1.441 au  fA            1.00    193 A               1
                        (      39.211 eV)
   194     194       --         1.451 au  fA            1.00    194 A               1
                        (      39.481 eV)
   195     195       --         1.471 au  fA            1.00    195 A               1
                        (      40.027 eV)
   196     196       --         1.477 au  fA            1.00    196 A               1
                        (      40.186 eV)
   197     197       --         1.484 au  fA            1.00    197 A               1
                        (      40.370 eV)
   198     198       --         1.500 au  fA            1.00    198 A               1
                        (      40.830 eV)
   199     199       --         1.518 au  fA            1.00    199 A               1
                        (      41.312 eV)
   200     200       --         1.526 au  fA            1.00    200 A               1
                        (      41.513 eV)
   201     201       --         1.554 au  fA            1.00    201 A               1
                        (      42.296 eV)
   202     202       --         1.568 au  fA            1.00    202 A               1
                        (      42.680 eV)
   203     203       --         1.579 au  fA            1.00    203 A               1
                        (      42.963 eV)
   204     204       --         1.588 au  fA            1.00    204 A               1
                        (      43.216 eV)
   205     205       --         1.616 au  fA            1.00    205 A               1
                        (      43.983 eV)
   206     206       --         1.620 au  fA            1.00    206 A               1
                        (      44.096 eV)
   207     207       --         1.645 au  fA            1.00    207 A               1
                        (      44.752 eV)
   208     208       --         1.660 au  fA            1.00    208 A               1
                        (      45.169 eV)
   209     209       --         1.673 au  fA            1.00    209 A               1
                        (      45.515 eV)
   210     210       --         1.679 au  fA            1.00    210 A               1
                        (      45.681 eV)
   211     211       --         1.701 au  fA            1.00    211 A               1
                        (      46.274 eV)
   212     212       --         1.713 au  fA            1.00    212 A               1
                        (      46.618 eV)
   213     213       --         1.732 au  fA            1.00    213 A               1
                        (      47.131 eV)
   214     214       --         1.753 au  fA            1.00    214 A               1
                        (      47.711 eV)
   215     215       --         1.767 au  fA            1.00    215 A               1
                        (      48.079 eV)
   216     216       --         1.777 au  fA            1.00    216 A               1
                        (      48.356 eV)
   217     217       --         1.794 au  fA            1.00    217 A               1
                        (      48.821 eV)
   218     218       --         1.817 au  fA            1.00    218 A               1
                        (      49.446 eV)
   219     219       --         1.833 au  fA            1.00    219 A               1
                        (      49.870 eV)
   220     220       --         1.839 au  fA            1.00    220 A               1
                        (      50.032 eV)
   221     221       --         1.853 au  fA            1.00    221 A               1
                        (      50.422 eV)
   222     222       --         1.862 au  fA            1.00    222 A               1
                        (      50.655 eV)
   223     223       --         1.879 au  fA            1.00    223 A               1
                        (      51.127 eV)
   224     224       --         1.903 au  fA            1.00    224 A               1
                        (      51.793 eV)
   225     225       --         1.926 au  fA            1.00    225 A               1
                        (      52.396 eV)
   226     226       --         1.938 au  fA            1.00    226 A               1
                        (      52.736 eV)
   227     227       --         1.962 au  fA            1.00    227 A               1
                        (      53.386 eV)
   228     228       --         1.985 au  fA            1.00    228 A               1
                        (      54.017 eV)
   229     229       --         1.998 au  fA            1.00    229 A               1
                        (      54.358 eV)
   230     230       --         2.006 au  fA            1.00    230 A               1
                        (      54.586 eV)
   231     231       --         2.012 au  fA            1.00    231 A               1
                        (      54.751 eV)
   232     232       --         2.034 au  fA            1.00    232 A               1
                        (      55.356 eV)
   233     233       --         2.050 au  fA            1.00    233 A               1
                        (      55.780 eV)
   234     234       --         2.061 au  fA            1.00    234 A               1
                        (      56.086 eV)
   235     235       --         2.073 au  fA            1.00    235 A               1
                        (      56.421 eV)
   236     236       --         2.087 au  fA            1.00    236 A               1
                        (      56.790 eV)
   237     237       --         2.101 au  fA            1.00    237 A               1
                        (      57.160 eV)
   238     238       --         2.124 au  fA            1.00    238 A               1
                        (      57.810 eV)
   239     239       --         2.131 au  fA            1.00    239 A               1
                        (      57.983 eV)
   240     240       --         2.173 au  fA            1.00    240 A               1
                        (      59.143 eV)
   241     241       --         2.177 au  fA            1.00    241 A               1
                        (      59.249 eV)
   242     242       --         2.188 au  fA            1.00    242 A               1
                        (      59.541 eV)
   243     243       --         2.222 au  fA            1.00    243 A               1
                        (      60.469 eV)
   244     244       --         2.233 au  fA            1.00    244 A               1
                        (      60.772 eV)
   245     245       --         2.244 au  fA            1.00    245 A               1
                        (      61.072 eV)
   246     246       --         2.268 au  fA            1.00    246 A               1
                        (      61.705 eV)
   247     247       --         2.301 au  fA            1.00    247 A               1
                        (      62.609 eV)
   248     248       --         2.317 au  fA            1.00    248 A               1
                        (      63.044 eV)
   249     249       --         2.338 au  fA            1.00    249 A               1
                        (      63.623 eV)
   250     250       --         2.352 au  fA            1.00    250 A               1
                        (      63.999 eV)
   251     251       --         2.393 au  fA            1.00    251 A               1
                        (      65.119 eV)
   252     252       --         2.401 au  fA            1.00    252 A               1
                        (      65.347 eV)
   253     253       --         2.429 au  fA            1.00    253 A               1
                        (      66.096 eV)
   254     254       --         2.446 au  fA            1.00    254 A               1
                        (      66.555 eV)
   255     255       --         2.453 au  fA            1.00    255 A               1
                        (      66.750 eV)
   256     256       --         2.485 au  fA            1.00    256 A               1
                        (      67.629 eV)
   257     257       --         2.499 au  fA            1.00    257 A               1
                        (      67.993 eV)
   258     258       --         2.505 au  fA            1.00    258 A               1
                        (      68.155 eV)
   259     259       --         2.566 au  fA            1.00    259 A               1
                        (      69.825 eV)
   260     260       --         2.591 au  fA            1.00    260 A               1
                        (      70.505 eV)
   261     261       --         2.597 au  fA            1.00    261 A               1
                        (      70.666 eV)
   262     262       --         2.626 au  fA            1.00    262 A               1
                        (      71.452 eV)
   263     263       --         2.654 au  fA            1.00    263 A               1
                        (      72.206 eV)
   264     264       --         2.680 au  fA            1.00    264 A               1
                        (      72.924 eV)
   265     265       --         2.711 au  fA            1.00    265 A               1
                        (      73.768 eV)
   266     266       --         2.723 au  fA            1.00    266 A               1
                        (      74.089 eV)
   267     267       --         2.747 au  fA            1.00    267 A               1
                        (      74.755 eV)
   268     268       --         2.756 au  fA            1.00    268 A               1
                        (      75.004 eV)
   269     269       --         2.768 au  fA            1.00    269 A               1
                        (      75.321 eV)
   270     270       --         2.787 au  fA            1.00    270 A               1
                        (      75.847 eV)
   271     271       --         2.794 au  fA            1.00    271 A               1
                        (      76.028 eV)
   272     272       --         2.798 au  fA            1.00    272 A               1
                        (      76.130 eV)
   273     273       --         2.807 au  fA            1.00    273 A               1
                        (      76.378 eV)
   274     274       --         2.811 au  fA            1.00    274 A               1
                        (      76.478 eV)
   275     275       --         2.822 au  fA            1.00    275 A               1
                        (      76.798 eV)
   276     276       --         2.840 au  fA            1.00    276 A               1
                        (      77.273 eV)
   277     277       --         2.849 au  fA            1.00    277 A               1
                        (      77.528 eV)
   278     278       --         2.864 au  fA            1.00    278 A               1
                        (      77.920 eV)
   279     279       --         2.876 au  fA            1.00    279 A               1
                        (      78.271 eV)
   280     280       --         2.880 au  fA            1.00    280 A               1
                        (      78.375 eV)
   281     281       --         2.899 au  fA            1.00    281 A               1
                        (      78.877 eV)
   282     282       --         2.904 au  fA            1.00    282 A               1
                        (      79.013 eV)
   283     283       --         2.937 au  fA            1.00    283 A               1
                        (      79.923 eV)
   284     284       --         2.942 au  fA            1.00    284 A               1
                        (      80.052 eV)
   285     285       --         2.986 au  fA            1.00    285 A               1
                        (      81.241 eV)
   286     286       --         2.995 au  fA            1.00    286 A               1
                        (      81.502 eV)
   287     287       --         3.005 au  fA            1.00    287 A               1
                        (      81.762 eV)
   288     288       --         3.023 au  fA            1.00    288 A               1
                        (      82.257 eV)
   289     289       --         3.066 au  fA            1.00    289 A               1
                        (      83.430 eV)
   290     290       --         3.067 au  fA            1.00    290 A               1
                        (      83.469 eV)
   291     291       --         3.103 au  fA            1.00    291 A               1
                        (      84.434 eV)
   292     292       --         3.132 au  fA            1.00    292 A               1
                        (      85.234 eV)
   293     293       --         3.149 au  fA            1.00    293 A               1
                        (      85.684 eV)
   294     294       --         3.159 au  fA            1.00    294 A               1
                        (      85.947 eV)
   295     295       --         3.206 au  fA            1.00    295 A               1
                        (      87.252 eV)
   296     296       --         3.217 au  fA            1.00    296 A               1
                        (      87.530 eV)
   297     297       --         3.268 au  fA            1.00    297 A               1
                        (      88.939 eV)
   298     298       --         3.276 au  fA            1.00    298 A               1
                        (      89.153 eV)
   299     299       --         3.289 au  fA            1.00    299 A               1
                        (      89.489 eV)
   300     300       --         3.307 au  fA            1.00    300 A               1
                        (      89.982 eV)
   301     301       --         3.328 au  fA            1.00    301 A               1
                        (      90.557 eV)
   302     302       --         3.343 au  fA            1.00    302 A               1
                        (      90.964 eV)
   303     303       --         3.352 au  fA            1.00    303 A               1
                        (      91.220 eV)
   304     304       --         3.357 au  fA            1.00    304 A               1
                        (      91.341 eV)
   305     305       --         3.363 au  fA            1.00    305 A               1
                        (      91.515 eV)
   306     306       --         3.378 au  fA            1.00    306 A               1
                        (      91.913 eV)
   307     307       --         3.388 au  fA            1.00    307 A               1
                        (      92.189 eV)
   308     308       --         3.396 au  fA            1.00    308 A               1
                        (      92.418 eV)
   309     309       --         3.410 au  fA            1.00    309 A               1
                        (      92.798 eV)
   310     310       --         3.416 au  fA            1.00    310 A               1
                        (      92.965 eV)
   311     311       --         3.423 au  fA            1.00    311 A               1
                        (      93.135 eV)
   312     312       --         3.435 au  fA            1.00    312 A               1
                        (      93.480 eV)
   313     313       --         3.440 au  fA            1.00    313 A               1
                        (      93.615 eV)
   314     314       --         3.459 au  fA            1.00    314 A               1
                        (      94.127 eV)
   315     315       --         3.476 au  fA            1.00    315 A               1
                        (      94.597 eV)
   316     316       --         3.485 au  fA            1.00    316 A               1
                        (      94.825 eV)
   317     317       --         3.501 au  fA            1.00    317 A               1
                        (      95.271 eV)
   318     318       --         3.518 au  fA            1.00    318 A               1
                        (      95.728 eV)
   319     319       --         3.541 au  fA            1.00    319 A               1
                        (      96.367 eV)
   320     320       --         3.551 au  fA            1.00    320 A               1
                        (      96.621 eV)
   321     321       --         3.558 au  fA            1.00    321 A               1
                        (      96.821 eV)
   322     322       --         3.587 au  fA            1.00    322 A               1
                        (      97.607 eV)
   323     323       --         3.604 au  fA            1.00    323 A               1
                        (      98.077 eV)
   324     324       --         3.620 au  fA            1.00    324 A               1
                        (      98.501 eV)
   325     325       --         3.634 au  fA            1.00    325 A               1
                        (      98.895 eV)
   326     326       --         3.641 au  fA            1.00    326 A               1
                        (      99.074 eV)
   327     327       --         3.651 au  fA            1.00    327 A               1
                        (      99.351 eV)
   328     328       --         3.678 au  fA            1.00    328 A               1
                        (     100.074 eV)
   329     329       --         3.683 au  fA            1.00    329 A               1
                        (     100.229 eV)
   330     330       --         3.711 au  fA            1.00    330 A               1
                        (     100.976 eV)
   331     331       --         3.713 au  fA            1.00    331 A               1
                        (     101.035 eV)
   332     332       --         3.738 au  fA            1.00    332 A               1
                        (     101.704 eV)
   333     333       --         3.747 au  fA            1.00    333 A               1
                        (     101.952 eV)
   334     334       --         3.772 au  fA            1.00    334 A               1
                        (     102.648 eV)
   335     335       --         3.778 au  fA            1.00    335 A               1
                        (     102.806 eV)
   336     336       --         3.791 au  fA            1.00    336 A               1
                        (     103.151 eV)
   337     337       --         3.813 au  fA            1.00    337 A               1
                        (     103.756 eV)
   338     338       --         3.835 au  fA            1.00    338 A               1
                        (     104.343 eV)
   339     339       --         3.859 au  fA            1.00    339 A               1
                        (     105.013 eV)
   340     340       --         3.897 au  fA            1.00    340 A               1
                        (     106.045 eV)
   341     341       --         3.917 au  fA            1.00    341 A               1
                        (     106.593 eV)
   342     342       --         3.935 au  fA            1.00    342 A               1
                        (     107.089 eV)
   343     343       --         3.953 au  fA            1.00    343 A               1
                        (     107.576 eV)
   344     344       --         3.958 au  fA            1.00    344 A               1
                        (     107.692 eV)
   345     345       --         4.019 au  fA            1.00    345 A               1
                        (     109.351 eV)
   346     346       --         4.057 au  fA            1.00    346 A               1
                        (     110.392 eV)
   347     347       --         4.079 au  fA            1.00    347 A               1
                        (     110.995 eV)
   348     348       --         4.101 au  fA            1.00    348 A               1
                        (     111.589 eV)
   349     349       --         4.123 au  fA            1.00    349 A               1
                        (     112.180 eV)
   350     350       --         4.132 au  fA            1.00    350 A               1
                        (     112.443 eV)
   351     351       --         4.155 au  fA            1.00    351 A               1
                        (     113.073 eV)
   352     352       --         4.176 au  fA            1.00    352 A               1
                        (     113.635 eV)
   353     353       --         4.188 au  fA            1.00    353 A               1
                        (     113.949 eV)
   354     354       --         4.198 au  fA            1.00    354 A               1
                        (     114.235 eV)
   355     355       --         4.233 au  fA            1.00    355 A               1
                        (     115.197 eV)
   356     356       --         4.254 au  fA            1.00    356 A               1
                        (     115.767 eV)
   357     357       --         4.269 au  fA            1.00    357 A               1
                        (     116.172 eV)
   358     358       --         4.291 au  fA            1.00    358 A               1
                        (     116.762 eV)
   359     359       --         4.303 au  fA            1.00    359 A               1
                        (     117.096 eV)
   360     360       --         4.319 au  fA            1.00    360 A               1
                        (     117.531 eV)
   361     361       --         4.335 au  fA            1.00    361 A               1
                        (     117.964 eV)
   362     362       --         4.375 au  fA            1.00    362 A               1
                        (     119.039 eV)
   363     363       --         4.378 au  fA            1.00    363 A               1
                        (     119.137 eV)
   364     364       --         4.398 au  fA            1.00    364 A               1
                        (     119.670 eV)
   365     365       --         4.427 au  fA            1.00    365 A               1
                        (     120.467 eV)
   366     366       --         4.429 au  fA            1.00    366 A               1
                        (     120.507 eV)
   367     367       --         4.460 au  fA            1.00    367 A               1
                        (     121.368 eV)
   368     368       --         4.482 au  fA            1.00    368 A               1
                        (     121.950 eV)
   369     369       --         4.493 au  fA            1.00    369 A               1
                        (     122.267 eV)
   370     370       --         4.514 au  fA            1.00    370 A               1
                        (     122.837 eV)
   371     371       --         4.545 au  fA            1.00    371 A               1
                        (     123.665 eV)
   372     372       --         4.557 au  fA            1.00    372 A               1
                        (     124.016 eV)
   373     373       --         4.563 au  fA            1.00    373 A               1
                        (     124.171 eV)
   374     374       --         4.591 au  fA            1.00    374 A               1
                        (     124.925 eV)
   375     375       --         4.602 au  fA            1.00    375 A               1
                        (     125.221 eV)
   376     376       --         4.624 au  fA            1.00    376 A               1
                        (     125.815 eV)
[...]
     450       75.6284         0.000       
     449       75.4047         0.000       
     448       75.3559         0.000       
     447       75.0819         0.000       
     446       74.4622         0.000       
     445       74.1991         0.000       
     444       73.8024         0.000       
     443       73.6210         0.000       
     442       73.2586         0.000       
     441       73.1786         0.000       
     440       72.6767         0.000       
     439       72.4767         0.000       
     438       71.7482         0.000       
     437       71.0340         0.000       
     436       70.4735         0.000       
     435       69.9284         0.000       
     434       69.7447         0.000       
     433       69.4034         0.000       
     432       69.0592         0.000       
     431       68.9077         0.000       
     430       68.2978         0.000       
     429       68.0901         0.000       
     428       67.3760         0.000       
     427       66.8540         0.000       
     426       66.7714         0.000       
     425       66.4043         0.000       
     424       65.7062         0.000       
     423       65.5099         0.000       
     422       65.2434         0.000       
     421       64.9238         0.000       
     420       64.3709         0.000       
     419       64.1310         0.000       
     418       64.0025         0.000       
     417       63.5543         0.000       
     416       63.1388         0.000       
     415       63.0480         0.000       
     414       62.7904         0.000       
     413       62.5476         0.000       
     412       62.2636         0.000       
     411       61.8445         0.000       
     410       61.6088         0.000       
     409       61.5620         0.000       
     408       61.1255         0.000       
     407       61.0635         0.000       
     406       60.6926         0.000       
     405       60.2017         0.000       
     404       60.1470         0.000       
     403       59.6628         0.000       
     402       59.3970         0.000       
     401       59.3716         0.000       
     400       58.8590         0.000       
     399       58.7867         0.000       
     398       58.5771         0.000       
     397       58.3156         0.000       
     396       58.0727         0.000       
     395       57.8345         0.000       
     394       57.4513         0.000       
     393       57.2522         0.000       
     392       57.0924         0.000       
     391       56.8018         0.000       
     390       56.5850         0.000       
     389       56.2682         0.000       
     388       55.6921         0.000       
     387       55.5218         0.000       
     386       55.4044         0.000       
     385       55.1823         0.000       
     384       54.8488         0.000       
     383       54.8218         0.000       
     382       54.3685         0.000       
     381       54.1105         0.000       
     380       54.0302         0.000       
     379       53.8068         0.000       
     378       53.3377         0.000       
     377       53.1655         0.000       
     376       52.7919         0.000       
     375       52.7113         0.000       
     374       52.4798         0.000       
     373       52.3064         0.000       
     372       51.9368         0.000       
     371       51.8907         0.000       
     370       51.5494         0.000       
     369       51.1958         0.000       
     368       50.9900         0.000       
     367       50.6308         0.000       
     366       50.5710         0.000       
     365       50.5124         0.000       
     364       50.3316         0.000       
     363       50.1735         0.000       
     362       49.8597         0.000       
     361       49.5565         0.000       
     360       49.3334         0.000       
     359       49.1984         0.000       
     358       48.8730         0.000       
     357       48.8448         0.000       
     356       48.4485         0.000       
     355       48.2711         0.000       
     354       48.1138         0.000       
     353       47.5688         0.000       
     352       47.2323         0.000       
     351       46.9757         0.000       
     350       46.7909         0.000       
     349       46.6227         0.000       
     348       46.0992         0.000       
     347       46.0057         0.000       
     346       45.6566         0.000       
     345       45.5369         0.000       
     344       45.1431         0.000       
     343       45.0479         0.000       
     342       44.8003         0.000       
     341       44.4397         0.000       
     340       44.2397         0.000       
     339       44.1261         0.000       
     338       43.9323         0.000       
     337       43.8194         0.000       
     336       43.2958         0.000       
     335       43.0889         0.000       
     334       43.0392         0.000       
     333       42.7817         0.000       
     332       42.5170         0.000       
     331       42.2469         0.000       
     330       42.1466         0.000       
     329       41.8656         0.000       
     328       41.5705         0.000       
     327       41.1365         0.000       
     326       40.9248         0.000       
     325       40.7298         0.000       
     324       40.7094         0.000       
     323       40.3459         0.000       
     322       40.0253         0.000       
     321       39.8240         0.000       
     320       39.6361         0.000       
     319       39.5201         0.000       
     318       39.1736         0.000       
     317       38.9216         0.000       
     316       38.7392         0.000       
     315       38.6360         0.000       
     314       38.4276         0.000       
     313       38.1811         0.000       
     312       38.0613         0.000       
     311       37.8579         0.000       
     310       37.3794         0.000       
     309       37.1610         0.000       
     308       36.9828         0.000       
     307       36.8284         0.000       
     306       36.5253         0.000       
     305       36.4181         0.000       
     304       36.1749         0.000       
     303       36.1602         0.000       
     302       35.9627         0.000       
     301       35.5724         0.000       
     300       35.2075         0.000       
     299       35.0280         0.000       
     298       34.8666         0.000       
     297       34.7916         0.000       
     296       34.5957         0.000       
     295       34.3944         0.000       
     294       33.9120         0.000       
     293       33.7662         0.000       
     292       33.5776         0.000       
     291       33.1747         0.000       
     290       32.9271         0.000       
     289       32.7166         0.000       
     288       32.6797         0.000       
     287       32.3455         0.000       
     286       32.2643         0.000       
     285       32.1807         0.000       
     284       32.0020         0.000       
     283       31.8373         0.000       
     282       31.4631         0.000       
     281       31.4024         0.000       
     280       31.2343         0.000       
     279       30.9623         0.000       
     278       30.6719         0.000       
     277       30.3592         0.000       
     276       30.2967         0.000       
     275       30.1140         0.000       
     274       30.0856         0.000       
     273       29.7963         0.000       
     272       29.5918         0.000       
     271       29.3475         0.000       
     270       29.2947         0.000       
     269       29.1585         0.000       
     268       29.0349         0.000       
     267       28.6415         0.000       
     266       28.5372         0.000       
     265       28.2426         0.000       
     264       28.1268         0.000       
     263       28.0547         0.000       
     262       27.6570         0.000       
     261       27.4869         0.000       
     260       27.3513         0.000       
     259       27.0923         0.000       
     258       26.9885         0.000       
     257       26.8614         0.000       
     256       26.5224         0.000       
     255       26.4521         0.000       
     254       26.2594         0.000       
     253       26.2181         0.000       
     252       25.8604         0.000       
     251       25.7084         0.000       
     250       25.5566         0.000       
     249       25.2958         0.000       
     248       25.2156         0.000       
     247       24.8392         0.000       
     246       24.5619         0.000       
     245       24.3435         0.000       
     244       24.2039         0.000       
     243       24.0243         0.000       
     242       23.6961         0.000       
     241       23.6015         0.000       
     240       23.3843         0.000       
     239       23.0952         0.000       
     238       22.8835         0.000       
     237       22.6963         0.000       
     236       22.6545         0.000       
     235       22.3936         0.000       
     234       22.2150         0.000       
     233       21.7095         0.000       
     232       21.6516         0.000       
     231       21.2069         0.000       
     230       21.1912         0.000       
     229       20.9155         0.000       
     228       20.7686         0.000       
     227       20.6321         0.000       
     226       20.1790         0.000       
     225       19.6985         0.000       
     224       19.5653         0.000       
     223       19.4694         0.000       
     222       19.4005         0.000       
     221       19.0261         0.000       
     220       18.7250         0.000       
     219       18.4597         0.000       
     218       18.3633         0.000       
     217       18.0936         0.000       
     216       17.6422         0.000       
     215       17.4819         0.000       
     214       17.3694         0.000       
     213       16.7304         0.000       
     212       16.5652         0.000       
     211       16.2569         0.000       
     210       16.1005         0.000       
     209       15.9500         0.000       
     208       15.8301         0.000       
     207       15.5918         0.000       
     206       15.4258         0.000       
     205       14.9680         0.000       
     204       14.7216         0.000       
     203       14.6083         0.000       
     202       14.4600         0.000       
     201       14.3628         0.000       
     200       14.2382         0.000       
     199       14.0381         0.000       
     198       13.8616         0.000       
     197       13.5127         0.000       
     196       13.4174         0.000       
     195       13.3321         0.000       
     194       13.0086         0.000       
     193       12.8224         0.000       
     192       12.7063         0.000       
     191       12.6565         0.000       
     190       12.6319         0.000       
     189       12.3586         0.000       
     188       11.9485         0.000       
     187       11.8092         0.000       
     186       11.6480         0.000       
     185       11.5725         0.000       
     184       11.4654         0.000       
     183       11.2491         0.000       
     182       11.1584         0.000       
     181       10.8372         0.000       
     180       10.5923         0.000       
     179       10.5383         0.000       
     178       10.3392         0.000       
     177       10.2492         0.000       
     176       10.1404         0.000       
     175        9.9171         0.000       
     174        9.8089         0.000       
     173        9.6992         0.000       
     172        9.6506         0.000       
     171        9.5301         0.000       
     170        9.4256         0.000       
     169        9.2938         0.000       
     168        9.1230         0.000       
     167        9.0671         0.000       
     166        8.9720         0.000       
     165        8.7790         0.000       
     164        8.6224         0.000       
     163        8.4896         0.000       
     162        8.4296         0.000       
     161        8.3938         0.000       
     160        8.2686         0.000       
     159        8.0920         0.000       
     158        8.0091         0.000       
     157        7.9389         0.000       
     156        7.7779         0.000       
     155        7.5864         0.000       
     154        7.3638         0.000       
     153        7.1882         0.000       
     152        7.1379         0.000       
     151        6.9281         0.000       
     150        6.6936         0.000       
     149        6.5540         0.000       
     148        6.5413         0.000       
     147        6.4814         0.000       
     146        6.3131         0.000       
     145        6.2449         0.000       
     144        5.9900         0.000       
     143        5.8704         0.000       
     142        5.8651         0.000       
     141        5.6197         0.000       
     140        5.4679         0.000       
     139        5.2498         0.000       
     138        5.0741         0.000       
     137        4.9838         0.000       
     136        4.8867         0.000       
     135        4.6968         0.000       
     134        4.6391         0.000       
     133        4.5003         0.000       
     132        4.3703         0.000       
     131        4.1212         0.000       
     130        3.9405         0.000       
     129        3.8849         0.000       
     128        3.7687         0.000       
     127        3.7022         0.000       
     126        3.5082         0.000       
     125        3.4061         0.000       
     124        3.2974         0.000       
     123        3.1882         0.000       
     122        2.8420         0.000       
     121        2.7491         0.000       
     120        2.4614         0.000       
     119        2.3499         0.000       
     118        2.3055         0.000       
     117        2.1077         0.000       
     116        2.0124         0.000       
     115        1.7971         0.000       
     114        1.7665         0.000       
     113        1.6330         0.000       
     112        1.5921         0.000       
     111        1.4816         0.000       
     110        1.3424         0.000       
     109        1.1478         0.000       
     108        1.1169         0.000       
     107        1.0181         0.000       
     106        0.8589         0.000       
     105        0.6690         0.000       
     104        0.5220         0.000       
     103        0.3336         0.000       
     102        0.2611         0.000       
     101        0.0991         0.000       
     100       -0.0161         0.000       
      99       -0.0881         0.000       
      98       -0.3351         0.000       
      97       -0.7989         0.000       
      96       -1.1229         0.000       
      95       -1.5769         0.000       
      94       -2.8882         0.000       
      93       -3.1686         0.000 < LUMO
      92       -5.3761         2.000 < HOMO
      91       -5.8868         2.000       
      90       -6.1332         2.000       
      89       -6.3622         2.000       
      88       -6.5247         2.000       
      87       -6.7625         2.000       
      86       -6.9132         2.000       
      85       -7.0072         2.000       
      84       -7.1462         2.000       
      83       -7.2388         2.000       
      82       -8.0734         2.000       
      81       -8.4937         2.000       
      80       -8.5272         2.000       
      79       -8.8018         2.000       
      78       -9.0303         2.000       
      77       -9.3798         2.000       
      76       -9.5649         2.000       
      75       -9.6901         2.000       
      74       -9.7382         2.000       
      73       -9.8127         2.000       
      72      -10.1038         2.000       
      71      -10.1603         2.000       
      70      -10.2318         2.000       
      69      -10.2991         2.000       
      68      -10.3490         2.000       
      67      -10.5559         2.000       
      66      -10.6361         2.000       
      65      -10.7473         2.000       
      64      -10.8350         2.000       
      63      -10.9243         2.000       
      62      -10.9960         2.000       
      61      -11.2359         2.000       
      60      -11.4879         2.000       
      59      -11.6701         2.000       
      58      -11.7758         2.000       
      57      -12.0315         2.000       
      56      -12.1392         2.000       
      55      -12.2833         2.000       
      54      -12.7062         2.000       
      53      -12.9585         2.000       
      52      -13.0852         2.000       
      51      -13.7814         2.000       
      50      -14.0030         2.000       
      49      -14.1652         2.000       
      48      -14.5337         2.000       
      47      -14.8445         2.000       
      46      -15.2662         2.000       
      45      -15.5448         2.000       
      44      -15.7029         2.000       
      43      -16.3328         2.000       
      42      -17.8505         2.000       
      41      -18.3650         2.000       
      40      -18.5245         2.000       
      39      -18.6350         2.000       
      38      -19.0432         2.000       
      37      -19.6695         2.000       
      36      -20.0679         2.000       
      35      -20.6543         2.000       
      34      -23.8789         2.000       
      33      -24.7303         2.000       
      32      -25.3501         2.000       
      31      -25.7312         2.000       
      30      -25.8830         2.000       
      29      -26.6216         2.000       
      28      -26.6482         2.000       
      27      -27.6761         2.000       
      26      -28.7139         2.000       
      25     -270.2054         2.000       
      24     -270.7073         2.000       
      23     -270.7693         2.000       
      22     -270.8789         2.000       
      21     -270.9127         2.000       
      20     -271.2436         2.000       
      19     -271.4615         2.000       
      18     -271.5855         2.000       
      17     -271.8645         2.000       
      16     -271.9248         2.000       
      15     -272.0717         2.000       
      14     -272.5017         2.000       
      13     -273.3937         2.000       
      12     -273.5208         2.000       
      11     -273.5734         2.000       
      10     -273.6531         2.000       
       9     -383.2431         2.000       
       8     -384.0667         2.000       
       7     -510.8857         2.000       
       6     -511.0916         2.000       
       5     -511.1790         2.000       
       4     -511.3263         2.000       
       3     -511.7988         2.000       
       2     -512.6189         2.000       
       1     -513.2857         2.000       

AMS application finished. Exiting.
NORMAL TERMINATION
     Total cpu time:     478.78
  Total system time:       0.82
 Total elapsed time:     482.41
NORMAL TERMINATION
