
 *******************************************************************************
 *                                                                             *
 *  --------------------------------                                           *
 *   Amsterdam Modeling Suite (AMS)              2026.103                      *
 *  --------------------------------                                           *
 *                                               r260501 2026-05-01 873454b5   *
 *                                                                             *
 *                                                                             *
 *                              =================                              *
 *                              |               |                              *
 *                              |     A M S     |                              *
 *                              |               |                              *
 *                              =================                              *
 *                                                                             *
 *                                                                             *
 *   Online information and documentation:  https://www.scm.com/support/       *
 *   E-mail:  support@scm.com   info@scm.com                                   *
 *                                                                             *
 *   Scientific publications using AMS results must be properly referenced     *
 *   See the User Manuals (or the web site) for recommended citations          *
 *   The terms and conditions of the End User License Agreement apply to       *
 *   the use of AMS, https://www.scm.com/license-terms/                        *
 *                                                                             *
 **********************  x86_64_linux_intel / intelmpi  ************************
 
 Licensed to: Jong-June Jeon / University of Seoul 2026-06-02 13:44:15
 SCM User ID: u30731
  
 AMS 2026.103  RunTime: Jun04-2026 11:03:02  ShM Nodes: 1  Procs: 1

 AMS jobname: c3_eda
 AMS jobid  : 560625619

 Start   directory: /gpfs/home1/yeseo1ee/projects/eda-asm-prediction/ADF_800/adf_outputs/batch_004/qmrxn20_e2_B_E_E_E_C_A/
 Results directory: /gpfs/home1/yeseo1ee/projects/eda-asm-prediction/ADF_800/adf_outputs/batch_004/qmrxn20_e2_B_E_E_E_C_A/c3_eda.results/
 Scratch directory: /tmp/amstmp_c3_eda_kid0.560625619/

 RNG seed: -494392655 -938769401 -2011257911 645011931 543691417 -533695082 -1013518776 301190270



                      ************************************************************************
                      *  ADF 2026.103  RunTime: Jun04-2026 11:03:03  ShM Nodes: 1  Procs: 1  *
                      ************************************************************************
  

       ****************************
       * SINGLE POINT CALCULATION *
       ****************************

--------
Geometry
--------
Formula: C2H8BrN4O2
Atoms
  Index Symbol   x (angstrom)   y (angstrom)   z (angstrom)
      1      H    -2.48246459     0.59133384     1.75185509 adf.f=fA
      2      C    -0.13466396     0.01028433    -0.36428055 adf.f=fB
      3      C    -0.12551435     0.00392699     1.11971826 adf.f=fB
      4     Br     1.79905170    -0.09948522    -1.17963402 adf.f=fB
      5      H    -1.30940206     0.02295489     1.35886156 adf.f=fB
      6      N    -0.82885272    -1.24956750    -0.85369256 adf.f=fB
      7      O    -1.95129260    -1.10731275    -1.33557771 adf.f=fB
      8      O    -0.28005223    -2.33193258    -0.66013775 adf.f=fB
      9      N    -0.76206798     1.13650177    -0.94153987 adf.f=fB
     10      H    -0.32077524     1.91880090    -0.46165466 adf.f=fB
     11      H    -1.73048593     1.11180503    -0.60440075 adf.f=fB
     12      N     0.26894437     1.32093978     1.59781076 adf.f=fB
     13      H     1.03923597     1.18198657     2.24030080 adf.f=fB
     14      H    -0.53803507     1.65555247     2.13538756 adf.f=fB
     15      N     0.53696628    -1.08638634     1.79679267 adf.f=fB
     16      H     1.26792575    -1.46395384     1.20287429 adf.f=fB
     17      H    -0.12739735    -1.83184833     1.96587686 adf.f=fB

Total System Charge             -1.00000


----------------
ADF Engine Input
----------------
 
   Basis
     Type TZ2P
     Core None
   End
   XC
     GGA BLYP
     Dispersion GRIMME3 BJDAMP
   End
   Symmetry NOSYM
   NumericalQuality Normal
   Unrestricted No
   SCF
     Iterations 200
     Converge 1.0e-6
   End
   fragments
     fA c1_fragA_ts.results/adf.rkf
     fB c2_fragB_ts.results/adf.rkf
   end
   etsnocv
     enocv 0.05
     ekmin 0.5
   end
   print etslowdin
   Save TAPE21
 

 Title: *** (NO TITLE) ***

 *** adf ***



 ===========================
 A T T A C H E D   F I L E S
 ===========================
  



 ===============================
 M O D E L   P A R A M E T E R S
 ===============================
  
 DENSITY FUNCTIONAL POTENTIAL (scf)
    LDA:                               Exchange only                           == Not Default ==
    Gradient Corrections:              Becke88 LYP                             == Not Default ==

 SPIN  (restricted / unrestr.)
    Molecule:                          Restricted                               
    Fragments:                         Restricted                               

 OTHER ASPECTS
    Relativistic Corrections:          scalar (ZORA,MAPA)                       

    Nuclear Charge Density Model:      Point Charge Nuclei                      
    Core Treatment:                    Frozen Orbital(s)                        

    Hyperfine or Zeeman Interaction:   ---                                      

 Settings for Grimme D3 dispersion correction

      damping                        BJ
      s6                          1.000
      s8                          2.700
      a1                          0.430
      a2                          4.236

 Other (technical) parameters

      alpha                      14.000
      version                         4
 


 Fragment File(s)
 ----------------
 fA:
         file : c1_fragA_ts.results/adf.rkf
         jobid: 1500904320
         title: *** adf ***
 fB:
         file : c2_fragB_ts.results/adf.rkf
         jobid: 477858003
         title: *** adf ***



 ===============
 G E O M E T R Y  ***  3D  Molecule  ***
 ===============
  

 ATOMS
 =====                            X Y Z                    CHARGE
                                (Angstrom)             Nucl     +Core       At.Mass
                       --------------------------    ----------------       -------
    1  H              -2.4825    0.5913    1.7519      1.00      1.00        1.0078
    2  C              -0.1347    0.0103   -0.3643      6.00      6.00       12.0000
    3  C              -0.1255    0.0039    1.1197      6.00      6.00       12.0000
    4  Br              1.7991   -0.0995   -1.1796     35.00     35.00       78.9183
    5  H              -1.3094    0.0230    1.3589      1.00      1.00        1.0078
    6  N              -0.8289   -1.2496   -0.8537      7.00      7.00       14.0031
    7  O              -1.9513   -1.1073   -1.3356      8.00      8.00       15.9949
    8  O              -0.2801   -2.3319   -0.6601      8.00      8.00       15.9949
    9  N              -0.7621    1.1365   -0.9415      7.00      7.00       14.0031
   10  H              -0.3208    1.9188   -0.4617      1.00      1.00        1.0078
   11  H              -1.7305    1.1118   -0.6044      1.00      1.00        1.0078
   12  N               0.2689    1.3209    1.5978      7.00      7.00       14.0031
   13  H               1.0392    1.1820    2.2403      1.00      1.00        1.0078
   14  H              -0.5380    1.6556    2.1354      1.00      1.00        1.0078
   15  N               0.5370   -1.0864    1.7968      7.00      7.00       14.0031
   16  H               1.2679   -1.4640    1.2029      1.00      1.00        1.0078
   17  H              -0.1274   -1.8318    1.9659      1.00      1.00        1.0078


 FRAGMENTS
 =========                                     Atoms in this Fragment     Cart. coord.s (Angstrom)
                                               -------------------------------------------------------
    1  fA                                                1  H           -2.4825    0.5913    1.7519
    2  fB                                                2  C           -0.1347    0.0103   -0.3643
                                                         3  C           -0.1255    0.0039    1.1197
                                                         4  Br           1.7991   -0.0995   -1.1796
                                                         5  H           -1.3094    0.0230    1.3589
                                                        10  H           -0.3208    1.9188   -0.4617
                                                        11  H           -1.7305    1.1118   -0.6044
                                                        13  H            1.0392    1.1820    2.2403
                                                        14  H           -0.5380    1.6556    2.1354
                                                        16  H            1.2679   -1.4640    1.2029
                                                        17  H           -0.1274   -1.8318    1.9659
                                                         6  N           -0.8289   -1.2496   -0.8537
                                                         9  N           -0.7621    1.1365   -0.9415
                                                        12  N            0.2689    1.3209    1.5978
                                                        15  N            0.5370   -1.0864    1.7968
                                                         7  O           -1.9513   -1.1073   -1.3356
                                                         8  O           -0.2801   -2.3319   -0.6601


 Interatomic Distance Matrix (Angstrom)
 --------------------------------------

   1)     0.000
   2)     3.214   0.000
   3)     2.510   1.484   0.000
   4)     5.235   2.101   3.000   0.000
   5)     1.361   2.086   1.208   4.015   0.000
   6)     3.593   1.519   2.441   2.887   2.597   0.000
   7)     3.564   2.344   3.255   3.887   2.992   1.230   0.000
   8)     4.383   2.365   2.941   3.095   3.268   1.229   2.179   0.000
   9)     3.242   1.413   2.437   2.854   2.614   2.389   2.570   3.513   0.000
  10)     3.367   1.920   2.491   3.014   2.808   3.233   3.547   4.256   1.018   0.000
  11)     2.528   1.954   2.603   3.776   2.284   2.540   2.347   3.737   1.026   1.631
          0.000
  12)     2.851   2.394   1.456   3.475   2.057   3.718   4.408   4.329   2.747   2.224
          2.982   0.000
  13)     3.604   3.088   2.000   3.730   2.763   4.356   5.193   4.743   3.657   3.113
          3.971   1.013   0.000
  14)     2.250   3.020   1.982   4.419   1.966   4.178   4.656   4.877   3.128   2.619
          3.037   1.026   1.650   0.000
  15)     3.455   2.515   1.444   3.380   2.198   2.986   4.000   2.873   3.759   3.856
          3.967   2.430   2.365   2.965   0.000
  16)     4.312   2.568   2.026   2.796   2.980   2.945   4.115   2.573   3.935   4.091
          4.346   2.985   2.851   3.723   1.015   0.000
  17)     3.386   2.970   2.021   4.075   2.282   2.963   3.841   2.678   4.203   4.472
          4.224   3.199   3.243   3.516   1.013   1.632   0.000

 Min. Distance =    1.0126
 Max. Distance =    5.2347



 =====================================
 S Y M M E T R Y ,   E L E C T R O N S
 =====================================
  
 Symmetry: NOSYM

 Irreducible Representations, including subspecies
 -------------------------------------------------
 A


 Configuration of Valence Electrons
 ==================================
 ( determined in the SCF procedure )

 Total:   100

 Net Charge: -1 (Nuclei minus Electrons)

 Aufbau principle for MO occupations will be applied through SCF cycle no.     100
 Thereafter, the program will assign electrons to MOs that are spatially
 similar to the occupied MOs in a "reference" cycle ("KeepOrbitals").
 The reference cycle is always the PREVIOUS cycle: it will evolve with
 the SCF procedure.
 ***************************************************************************************************



                                      ****************************************
                                      *  B U I L D : (Fragments, Functions)  *
                                      ****************************************
  

 The individual fragments are copies of the corresponding 'Master' fragments defined on the fragment files.
 However, they may have been rotated (and translated) with respect to the Master. The local coordinate axes
 of each fragment (which define for instance the spatial orientation in the current molecule of a fragment
 P:x orbital) are not necessarily those of the molecule.
 The local frame (if different from the molecular one) is printed to enable an interpretation of the expan-
 sion of an MO in Fragment Orbitals.



                                              ************************
                                              *  Fragment Type : fA  *
                                              ************************
  

 Fragment no.    1   (in the list of all fragments)
 -----------------
 The local coordinate frame is identical to the molecular frame.

 Check Atomic Coordinates:

                  Master (on file)          After Computed Tranformation               As specified on Input
           ----------------------------     ----------------------------     ---------------------------------
     1)    -2.48246   0.59133   1.75186     -2.48246   0.59133   1.75186       1  -2.48246   0.59133   1.75186



                                              ************************
                                              *  Fragment Type : fB  *
                                              ************************
  

 Fragment no.    2   (in the list of all fragments)
 -----------------
 The local coordinate frame is identical to the molecular frame.

 Check Atomic Coordinates:

                  Master (on file)          After Computed Tranformation               As specified on Input
           ----------------------------     ----------------------------     ---------------------------------
     1)    -0.13466   0.01028  -0.36428     -0.13466   0.01028  -0.36428       2  -0.13466   0.01028  -0.36428
     2)    -0.12551   0.00393   1.11972     -0.12551   0.00393   1.11972       3  -0.12551   0.00393   1.11972
     3)     1.79905  -0.09949  -1.17963      1.79905  -0.09949  -1.17963       4   1.79905  -0.09949  -1.17963
     4)    -1.30940   0.02295   1.35886     -1.30940   0.02295   1.35886       5  -1.30940   0.02295   1.35886
     5)    -0.32078   1.91880  -0.46165     -0.32078   1.91880  -0.46165      10  -0.32078   1.91880  -0.46165
     6)    -1.73049   1.11181  -0.60440     -1.73049   1.11181  -0.60440      11  -1.73049   1.11181  -0.60440
     7)     1.03924   1.18199   2.24030      1.03924   1.18199   2.24030      13   1.03924   1.18199   2.24030
     8)    -0.53804   1.65555   2.13539     -0.53804   1.65555   2.13539      14  -0.53804   1.65555   2.13539
     9)     1.26793  -1.46395   1.20287      1.26793  -1.46395   1.20287      16   1.26793  -1.46395   1.20287
    10)    -0.12740  -1.83185   1.96588     -0.12740  -1.83185   1.96588      17  -0.12740  -1.83185   1.96588
    11)    -0.82885  -1.24957  -0.85369     -0.82885  -1.24957  -0.85369       6  -0.82885  -1.24957  -0.85369
    12)    -0.76207   1.13650  -0.94154     -0.76207   1.13650  -0.94154       9  -0.76207   1.13650  -0.94154
    13)     0.26894   1.32094   1.59781      0.26894   1.32094   1.59781      12   0.26894   1.32094   1.59781
    14)     0.53697  -1.08639   1.79679      0.53697  -1.08639   1.79679      15   0.53697  -1.08639   1.79679
    15)    -1.95129  -1.10731  -1.33558     -1.95129  -1.10731  -1.33558       7  -1.95129  -1.10731  -1.33558
    16)    -0.28005  -2.33193  -0.66014     -0.28005  -2.33193  -0.66014       8  -0.28005  -2.33193  -0.66014



 =======
 S F O s  ***  (Symmetrized Fragment Orbitals)  ***
 =======
  
 SFOs are linear combinations of (valence) Fragment Orbitals (FOs), such that the SFOs transform as the
 irreducible representations of the (molecular) symmetry group. Each SFO is therefore characterized by
 an irrep of the molecule and by a few (or only one) generating FOs.
 The SFOs constitute a symmetry-adapted basis for the Fock matrix. The MO eigenvector coefficients in
 this basis provide a direct interpretation of the MOs in terms of Frontier Orbital Theory.

 The SFOs are combined with auxiliary Core Functions (CFs) to ensure orthogonalization on the (frozen)
 Core Orbitals (COs). The Core-orthogonalized SFOs (CSFOs) constitute the true Fock basis.

 The FOs, and hence also the (C)SFOs are combinations of the elementary basis functions (BAS). The basis
 functions that participate in the description of the SFOs depend on the irrep. The indices of the
 involved functions are printed below for each irrep.
 (The complete list of primitive basis functions is printed in another section)

 Total nr. of (C)SFOs (summation over all irreps) :   352

 NOTE: a (C)SFO that is defined as a combination of more than one FO is usually NOT normalized.



                                       === A ===
 Nr. of SFOs :  352
 Cartesian basis functions that participate in this irrep (total number =   399) :
      1     2     3     4     5     6     7     8     9    10
     11    12    13    14    15    16    17    18    21    24
     19    22    25    20    23    26    27    28    29    30
     31    32    33    34    35    36    37    38    39    40
     41    42    43    44    45    46    47    48    51    54
     49    52    55    50    53    56    57    58    59    60
     61    62    63    64    65    66    67    68    69    70
     71    72    73    74    75    82    83   108   109   110
     76    79    84    87   111   114   117    77    80    85
     88   112   115   118    78    81    86    89   113   116
    119    90    96   102   120    91    97   103   121    92
     98   104   122    93    99   105   123    94   100   106
    124    95   101   107   125   126   127   128   129   130
    131   132   133   134   135   136   137   138   139   140
    141   142   143   144   145   146   147   148   149   150
    151   152   153   154   155   156   157   158   159   160
    161   162   163   164   165   166   167   168   169   170
    171   172   173   174   175   176   177   178   179   180
    181   182   183   184   185   186   187   188   189   190
    191   192   193   194   195   196   197   198   199   200
    201   202   203   204   205   206   207   208   209   210
    211   212   213   214   215   216   217   218   219   220
    221   222   223   224   225   228   231   226   229   232
    227   230   233   234   235   236   237   238   239   240
    241   242   243   244   245   246   247   248   249   250
    251   252   253   254   255   258   261   256   259   262
    257   260   263   264   265   266   267   268   269   270
    271   272   273   274   275   276   277   278   279   280
    281   282   283   284   285   288   291   286   289   292
    287   290   293   294   295   296   297   298   299   300
    301   302   303   304   305   306   307   308   309   310
    311   312   313   314   315   318   321   316   319   322
    317   320   323   324   325   326   327   328   329   330
    331   332   333   334   335   336   337   338   339   340
    341   342   343   344   345   348   351   346   349   352
    347   350   353   354   355   356   357   358   359   360
    361   362   363   364   365   366   367   368   369   370
    371   372   373   374   375   378   381   376   379   382
    377   380   383   384   385   386   387   388   389   390
    391   392   393   394   395   396   397   398   399

    SFO  (index         Fragment          Generating    Expansion in Fragment Orbitals
  indx  incl.CFs)   Occup   Orb.Energy   FragmentType  Coeff.   Orbital     on Fragment
 --------------------------------------------------------------------------------------
     1       1      2.000       0.096 au  fA            1.00      1 A               1
                        (       2.603 eV)
     2       2       --         0.328 au  fA            1.00      2 A               1
                        (       8.927 eV)
     3       3       --         0.730 au  fA            1.00      3 A               1
                        (      19.877 eV)
     4       4       --         0.730 au  fA            1.00      4 A               1
                        (      19.877 eV)
     5       5       --         0.730 au  fA            1.00      5 A               1
                        (      19.877 eV)
     6       6       --         1.855 au  fA            1.00      6 A               1
                        (      50.479 eV)
     7       7       --         2.938 au  fA            1.00      7 A               1
                        (      79.959 eV)
     8       8       --         2.938 au  fA            1.00      8 A               1
                        (      79.959 eV)
     9       9       --         2.938 au  fA            1.00      9 A               1
                        (      79.959 eV)
    10      10       --         2.938 au  fA            1.00     10 A               1
                        (      79.959 eV)
    11      11       --         2.938 au  fA            1.00     11 A               1
                        (      79.959 eV)
    12      12      2.000    -488.625 au  fB            1.00      1 A               2
                        (  -13296.166 eV)
    13      13      2.000     -63.564 au  fB            1.00      2 A               2
                        (   -1729.677 eV)
    14      14      2.000     -56.104 au  fB            1.00      3 A               2
                        (   -1526.673 eV)
    15      15      2.000     -56.100 au  fB            1.00      4 A               2
                        (   -1526.548 eV)
    16      16      2.000     -56.099 au  fB            1.00      5 A               2
                        (   -1526.544 eV)
    17      17      2.000     -18.851 au  fB            1.00      6 A               2
                        (    -512.961 eV)
    18      18      2.000     -18.848 au  fB            1.00      7 A               2
                        (    -512.883 eV)
    19      19      2.000     -14.260 au  fB            1.00      8 A               2
                        (    -388.043 eV)
    20      20      2.000     -14.042 au  fB            1.00      9 A               2
                        (    -382.093 eV)
    21      21      2.000     -14.036 au  fB            1.00     10 A               2
                        (    -381.928 eV)
    22      22      2.000     -14.033 au  fB            1.00     11 A               2
                        (    -381.859 eV)
    23      23      2.000     -10.069 au  fB            1.00     12 A               2
                        (    -274.000 eV)
    24      24      2.000     -10.030 au  fB            1.00     13 A               2
                        (    -272.934 eV)
    25      25      2.000      -8.685 au  fB            1.00     14 A               2
                        (    -236.322 eV)
    26      26      2.000      -6.350 au  fB            1.00     15 A               2
                        (    -172.797 eV)
    27      27      2.000      -6.337 au  fB            1.00     16 A               2
                        (    -172.431 eV)
    28      28      2.000      -6.336 au  fB            1.00     17 A               2
                        (    -172.422 eV)
    29      29      2.000      -2.433 au  fB            1.00     18 A               2
                        (     -66.210 eV)
    30      30      2.000      -2.430 au  fB            1.00     19 A               2
                        (     -66.120 eV)
    31      31      2.000      -2.430 au  fB            1.00     20 A               2
                        (     -66.113 eV)
    32      32      2.000      -2.420 au  fB            1.00     21 A               2
                        (     -65.844 eV)
    33      33      2.000      -2.420 au  fB            1.00     22 A               2
                        (     -65.841 eV)
    34      34      2.000      -1.149 au  fB            1.00     23 A               2
                        (     -31.276 eV)
    35      35      2.000      -0.988 au  fB            1.00     24 A               2
                        (     -26.881 eV)
    36      36      2.000      -0.904 au  fB            1.00     25 A               2
                        (     -24.612 eV)
    37      37      2.000      -0.855 au  fB            1.00     26 A               2
                        (     -23.271 eV)
    38      38      2.000      -0.803 au  fB            1.00     27 A               2
                        (     -21.852 eV)
    39      39      2.000      -0.744 au  fB            1.00     28 A               2
                        (     -20.244 eV)
    40      40      2.000      -0.707 au  fB            1.00     29 A               2
                        (     -19.235 eV)
    41      41      2.000      -0.623 au  fB            1.00     30 A               2
                        (     -16.961 eV)
    42      42      2.000      -0.538 au  fB            1.00     31 A               2
                        (     -14.644 eV)
    43      43      2.000      -0.525 au  fB            1.00     32 A               2
                        (     -14.297 eV)
    44      44      2.000      -0.503 au  fB            1.00     33 A               2
                        (     -13.690 eV)
    45      45      2.000      -0.500 au  fB            1.00     34 A               2
                        (     -13.599 eV)
    46      46      2.000      -0.481 au  fB            1.00     35 A               2
                        (     -13.091 eV)
    47      47      2.000      -0.467 au  fB            1.00     36 A               2
                        (     -12.698 eV)
    48      48      2.000      -0.448 au  fB            1.00     37 A               2
                        (     -12.194 eV)
    49      49      2.000      -0.431 au  fB            1.00     38 A               2
                        (     -11.726 eV)
    50      50      2.000      -0.422 au  fB            1.00     39 A               2
                        (     -11.497 eV)
    51      51      2.000      -0.378 au  fB            1.00     40 A               2
                        (     -10.292 eV)
    52      52      2.000      -0.344 au  fB            1.00     41 A               2
                        (      -9.366 eV)
    53      53      2.000      -0.306 au  fB            1.00     42 A               2
                        (      -8.325 eV)
    54      54      2.000      -0.289 au  fB            1.00     43 A               2
                        (      -7.857 eV)
    55      55      2.000      -0.279 au  fB            1.00     44 A               2
                        (      -7.594 eV)
    56      56      2.000      -0.274 au  fB            1.00     45 A               2
                        (      -7.448 eV)
    57      57      2.000      -0.258 au  fB            1.00     46 A               2
                        (      -7.025 eV)
    58      58      2.000      -0.255 au  fB            1.00     47 A               2
                        (      -6.932 eV)
    59      59      2.000      -0.252 au  fB            1.00     48 A               2
                        (      -6.864 eV)
    60      60      2.000      -0.225 au  fB            1.00     49 A               2
                        (      -6.128 eV)
    61      61       --        -0.141 au  fB            1.00     50 A               2
                        (      -3.832 eV)
    62      62       --        -0.086 au  fB            1.00     51 A               2
                        (      -2.349 eV)
    63      63       --        -0.045 au  fB            1.00     52 A               2
                        (      -1.221 eV)
    64      64       --        -0.004 au  fB            1.00     53 A               2
                        (      -0.106 eV)
    65      65       --         0.000 au  fB            1.00     54 A               2
                        (       0.001 eV)
    66      66       --         0.015 au  fB            1.00     55 A               2
                        (       0.402 eV)
    67      67       --         0.038 au  fB            1.00     56 A               2
                        (       1.040 eV)
    68      68       --         0.053 au  fB            1.00     57 A               2
                        (       1.438 eV)
    69      69       --         0.064 au  fB            1.00     58 A               2
                        (       1.743 eV)
    70      70       --         0.073 au  fB            1.00     59 A               2
                        (       1.974 eV)
    71      71       --         0.108 au  fB            1.00     60 A               2
                        (       2.946 eV)
    72      72       --         0.122 au  fB            1.00     61 A               2
                        (       3.309 eV)
    73      73       --         0.131 au  fB            1.00     62 A               2
                        (       3.559 eV)
    74      74       --         0.141 au  fB            1.00     63 A               2
                        (       3.840 eV)
    75      75       --         0.151 au  fB            1.00     64 A               2
                        (       4.112 eV)
    76      76       --         0.159 au  fB            1.00     65 A               2
                        (       4.330 eV)
    77      77       --         0.166 au  fB            1.00     66 A               2
                        (       4.528 eV)
    78      78       --         0.175 au  fB            1.00     67 A               2
                        (       4.759 eV)
    79      79       --         0.191 au  fB            1.00     68 A               2
                        (       5.201 eV)
    80      80       --         0.195 au  fB            1.00     69 A               2
                        (       5.303 eV)
    81      81       --         0.199 au  fB            1.00     70 A               2
                        (       5.421 eV)
    82      82       --         0.205 au  fB            1.00     71 A               2
                        (       5.581 eV)
    83      83       --         0.209 au  fB            1.00     72 A               2
                        (       5.690 eV)
    84      84       --         0.234 au  fB            1.00     73 A               2
                        (       6.371 eV)
    85      85       --         0.262 au  fB            1.00     74 A               2
                        (       7.121 eV)
    86      86       --         0.265 au  fB            1.00     75 A               2
                        (       7.212 eV)
    87      87       --         0.271 au  fB            1.00     76 A               2
                        (       7.375 eV)
    88      88       --         0.278 au  fB            1.00     77 A               2
                        (       7.570 eV)
    89      89       --         0.290 au  fB            1.00     78 A               2
                        (       7.894 eV)
    90      90       --         0.294 au  fB            1.00     79 A               2
                        (       8.007 eV)
    91      91       --         0.311 au  fB            1.00     80 A               2
                        (       8.467 eV)
    92      92       --         0.330 au  fB            1.00     81 A               2
                        (       8.990 eV)
    93      93       --         0.344 au  fB            1.00     82 A               2
                        (       9.350 eV)
    94      94       --         0.359 au  fB            1.00     83 A               2
                        (       9.776 eV)
    95      95       --         0.360 au  fB            1.00     84 A               2
                        (       9.805 eV)
    96      96       --         0.377 au  fB            1.00     85 A               2
                        (      10.257 eV)
    97      97       --         0.383 au  fB            1.00     86 A               2
                        (      10.413 eV)
    98      98       --         0.398 au  fB            1.00     87 A               2
                        (      10.834 eV)
    99      99       --         0.412 au  fB            1.00     88 A               2
                        (      11.218 eV)
   100     100       --         0.429 au  fB            1.00     89 A               2
                        (      11.677 eV)
   101     101       --         0.433 au  fB            1.00     90 A               2
                        (      11.791 eV)
   102     102       --         0.455 au  fB            1.00     91 A               2
                        (      12.388 eV)
   103     103       --         0.470 au  fB            1.00     92 A               2
                        (      12.789 eV)
   104     104       --         0.480 au  fB            1.00     93 A               2
                        (      13.069 eV)
   105     105       --         0.487 au  fB            1.00     94 A               2
                        (      13.242 eV)
   106     106       --         0.505 au  fB            1.00     95 A               2
                        (      13.743 eV)
   107     107       --         0.534 au  fB            1.00     96 A               2
                        (      14.535 eV)
   108     108       --         0.553 au  fB            1.00     97 A               2
                        (      15.043 eV)
   109     109       --         0.558 au  fB            1.00     98 A               2
                        (      15.177 eV)
   110     110       --         0.574 au  fB            1.00     99 A               2
                        (      15.609 eV)
   111     111       --         0.598 au  fB            1.00    100 A               2
                        (      16.272 eV)
   112     112       --         0.627 au  fB            1.00    101 A               2
                        (      17.061 eV)
   113     113       --         0.649 au  fB            1.00    102 A               2
                        (      17.654 eV)
   114     114       --         0.670 au  fB            1.00    103 A               2
                        (      18.244 eV)
   115     115       --         0.674 au  fB            1.00    104 A               2
                        (      18.352 eV)
   116     116       --         0.703 au  fB            1.00    105 A               2
                        (      19.120 eV)
   117     117       --         0.731 au  fB            1.00    106 A               2
                        (      19.894 eV)
   118     118       --         0.740 au  fB            1.00    107 A               2
                        (      20.147 eV)
   119     119       --         0.787 au  fB            1.00    108 A               2
                        (      21.411 eV)
   120     120       --         0.806 au  fB            1.00    109 A               2
                        (      21.933 eV)
   121     121       --         0.817 au  fB            1.00    110 A               2
                        (      22.244 eV)
   122     122       --         0.867 au  fB            1.00    111 A               2
                        (      23.591 eV)
   123     123       --         0.895 au  fB            1.00    112 A               2
                        (      24.365 eV)
   124     124       --         0.904 au  fB            1.00    113 A               2
                        (      24.594 eV)
   125     125       --         0.916 au  fB            1.00    114 A               2
                        (      24.915 eV)
   126     126       --         0.939 au  fB            1.00    115 A               2
                        (      25.540 eV)
   127     127       --         0.959 au  fB            1.00    116 A               2
                        (      26.083 eV)
   128     128       --         0.973 au  fB            1.00    117 A               2
                        (      26.467 eV)
   129     129       --         0.990 au  fB            1.00    118 A               2
                        (      26.931 eV)
   130     130       --         1.000 au  fB            1.00    119 A               2
                        (      27.219 eV)
   131     131       --         1.013 au  fB            1.00    120 A               2
                        (      27.576 eV)
   132     132       --         1.021 au  fB            1.00    121 A               2
                        (      27.782 eV)
   133     133       --         1.053 au  fB            1.00    122 A               2
                        (      28.648 eV)
   134     134       --         1.062 au  fB            1.00    123 A               2
                        (      28.903 eV)
   135     135       --         1.071 au  fB            1.00    124 A               2
                        (      29.145 eV)
   136     136       --         1.106 au  fB            1.00    125 A               2
                        (      30.102 eV)
   137     137       --         1.122 au  fB            1.00    126 A               2
                        (      30.527 eV)
   138     138       --         1.166 au  fB            1.00    127 A               2
                        (      31.733 eV)
   139     139       --         1.178 au  fB            1.00    128 A               2
                        (      32.057 eV)
   140     140       --         1.184 au  fB            1.00    129 A               2
                        (      32.215 eV)
   141     141       --         1.197 au  fB            1.00    130 A               2
                        (      32.572 eV)
   142     142       --         1.210 au  fB            1.00    131 A               2
                        (      32.928 eV)
   143     143       --         1.229 au  fB            1.00    132 A               2
                        (      33.434 eV)
   144     144       --         1.246 au  fB            1.00    133 A               2
                        (      33.902 eV)
   145     145       --         1.256 au  fB            1.00    134 A               2
                        (      34.177 eV)
   146     146       --         1.264 au  fB            1.00    135 A               2
                        (      34.402 eV)
   147     147       --         1.282 au  fB            1.00    136 A               2
                        (      34.871 eV)
   148     148       --         1.292 au  fB            1.00    137 A               2
                        (      35.166 eV)
   149     149       --         1.312 au  fB            1.00    138 A               2
                        (      35.705 eV)
   150     150       --         1.319 au  fB            1.00    139 A               2
                        (      35.903 eV)
   151     151       --         1.334 au  fB            1.00    140 A               2
                        (      36.289 eV)
   152     152       --         1.343 au  fB            1.00    141 A               2
                        (      36.541 eV)
   153     153       --         1.370 au  fB            1.00    142 A               2
                        (      37.274 eV)
   154     154       --         1.395 au  fB            1.00    143 A               2
                        (      37.950 eV)
   155     155       --         1.409 au  fB            1.00    144 A               2
                        (      38.330 eV)
   156     156       --         1.467 au  fB            1.00    145 A               2
                        (      39.909 eV)
   157     157       --         1.477 au  fB            1.00    146 A               2
                        (      40.203 eV)
   158     158       --         1.503 au  fB            1.00    147 A               2
                        (      40.906 eV)
   159     159       --         1.529 au  fB            1.00    148 A               2
                        (      41.600 eV)
   160     160       --         1.545 au  fB            1.00    149 A               2
                        (      42.029 eV)
   161     161       --         1.580 au  fB            1.00    150 A               2
                        (      43.002 eV)
   162     162       --         1.604 au  fB            1.00    151 A               2
                        (      43.649 eV)
   163     163       --         1.636 au  fB            1.00    152 A               2
                        (      44.510 eV)
   164     164       --         1.647 au  fB            1.00    153 A               2
                        (      44.817 eV)
   165     165       --         1.698 au  fB            1.00    154 A               2
                        (      46.201 eV)
   166     166       --         1.719 au  fB            1.00    155 A               2
                        (      46.779 eV)
   167     167       --         1.748 au  fB            1.00    156 A               2
                        (      47.553 eV)
   168     168       --         1.774 au  fB            1.00    157 A               2
                        (      48.282 eV)
   169     169       --         1.807 au  fB            1.00    158 A               2
                        (      49.162 eV)
   170     170       --         1.819 au  fB            1.00    159 A               2
                        (      49.492 eV)
   171     171       --         1.849 au  fB            1.00    160 A               2
                        (      50.312 eV)
   172     172       --         1.871 au  fB            1.00    161 A               2
                        (      50.925 eV)
   173     173       --         1.912 au  fB            1.00    162 A               2
                        (      52.015 eV)
   174     174       --         1.940 au  fB            1.00    163 A               2
                        (      52.796 eV)
   175     175       --         1.970 au  fB            1.00    164 A               2
                        (      53.618 eV)
   176     176       --         1.991 au  fB            1.00    165 A               2
                        (      54.165 eV)
   177     177       --         2.016 au  fB            1.00    166 A               2
                        (      54.861 eV)
   178     178       --         2.034 au  fB            1.00    167 A               2
                        (      55.337 eV)
   179     179       --         2.044 au  fB            1.00    168 A               2
                        (      55.627 eV)
   180     180       --         2.070 au  fB            1.00    169 A               2
                        (      56.322 eV)
   181     181       --         2.135 au  fB            1.00    170 A               2
                        (      58.090 eV)
   182     182       --         2.145 au  fB            1.00    171 A               2
                        (      58.378 eV)
   183     183       --         2.162 au  fB            1.00    172 A               2
                        (      58.828 eV)
   184     184       --         2.189 au  fB            1.00    173 A               2
                        (      59.567 eV)
   185     185       --         2.215 au  fB            1.00    174 A               2
                        (      60.264 eV)
   186     186       --         2.236 au  fB            1.00    175 A               2
                        (      60.843 eV)
   187     187       --         2.254 au  fB            1.00    176 A               2
                        (      61.331 eV)
   188     188       --         2.300 au  fB            1.00    177 A               2
                        (      62.585 eV)
   189     189       --         2.314 au  fB            1.00    178 A               2
                        (      62.977 eV)
   190     190       --         2.368 au  fB            1.00    179 A               2
                        (      64.430 eV)
   191     191       --         2.399 au  fB            1.00    180 A               2
                        (      65.288 eV)
   192     192       --         2.434 au  fB            1.00    181 A               2
                        (      66.230 eV)
   193     193       --         2.474 au  fB            1.00    182 A               2
                        (      67.332 eV)
   194     194       --         2.513 au  fB            1.00    183 A               2
                        (      68.393 eV)
   195     195       --         2.533 au  fB            1.00    184 A               2
                        (      68.926 eV)
   196     196       --         2.612 au  fB            1.00    185 A               2
                        (      71.077 eV)
   197     197       --         2.617 au  fB            1.00    186 A               2
                        (      71.215 eV)
   198     198       --         2.634 au  fB            1.00    187 A               2
                        (      71.679 eV)
   199     199       --         2.659 au  fB            1.00    188 A               2
                        (      72.348 eV)
   200     200       --         2.690 au  fB            1.00    189 A               2
                        (      73.208 eV)
   201     201       --         2.716 au  fB            1.00    190 A               2
                        (      73.900 eV)
   202     202       --         2.738 au  fB            1.00    191 A               2
                        (      74.505 eV)
   203     203       --         2.789 au  fB            1.00    192 A               2
                        (      75.895 eV)
   204     204       --         2.821 au  fB            1.00    193 A               2
                        (      76.760 eV)
   205     205       --         2.838 au  fB            1.00    194 A               2
                        (      77.227 eV)
   206     206       --         2.882 au  fB            1.00    195 A               2
                        (      78.437 eV)
   207     207       --         2.904 au  fB            1.00    196 A               2
                        (      79.010 eV)
   208     208       --         2.945 au  fB            1.00    197 A               2
                        (      80.139 eV)
   209     209       --         2.948 au  fB            1.00    198 A               2
                        (      80.220 eV)
   210     210       --         2.988 au  fB            1.00    199 A               2
                        (      81.314 eV)
   211     211       --         2.998 au  fB            1.00    200 A               2
                        (      81.577 eV)
   212     212       --         3.011 au  fB            1.00    201 A               2
                        (      81.924 eV)
   213     213       --         3.055 au  fB            1.00    202 A               2
                        (      83.127 eV)
   214     214       --         3.071 au  fB            1.00    203 A               2
                        (      83.559 eV)
   215     215       --         3.096 au  fB            1.00    204 A               2
                        (      84.245 eV)
   216     216       --         3.113 au  fB            1.00    205 A               2
                        (      84.714 eV)
   217     217       --         3.132 au  fB            1.00    206 A               2
                        (      85.238 eV)
   218     218       --         3.163 au  fB            1.00    207 A               2
                        (      86.069 eV)
   219     219       --         3.201 au  fB            1.00    208 A               2
                        (      87.107 eV)
   220     220       --         3.209 au  fB            1.00    209 A               2
                        (      87.310 eV)
   221     221       --         3.241 au  fB            1.00    210 A               2
                        (      88.196 eV)
   222     222       --         3.291 au  fB            1.00    211 A               2
                        (      89.560 eV)
   223     223       --         3.305 au  fB            1.00    212 A               2
                        (      89.920 eV)
   224     224       --         3.324 au  fB            1.00    213 A               2
                        (      90.464 eV)
   225     225       --         3.361 au  fB            1.00    214 A               2
                        (      91.458 eV)
   226     226       --         3.371 au  fB            1.00    215 A               2
                        (      91.740 eV)
   227     227       --         3.392 au  fB            1.00    216 A               2
                        (      92.300 eV)
   228     228       --         3.417 au  fB            1.00    217 A               2
                        (      92.987 eV)
   229     229       --         3.441 au  fB            1.00    218 A               2
                        (      93.634 eV)
   230     230       --         3.489 au  fB            1.00    219 A               2
                        (      94.937 eV)
   231     231       --         3.511 au  fB            1.00    220 A               2
                        (      95.547 eV)
   232     232       --         3.533 au  fB            1.00    221 A               2
                        (      96.144 eV)
   233     233       --         3.555 au  fB            1.00    222 A               2
                        (      96.742 eV)
   234     234       --         3.566 au  fB            1.00    223 A               2
                        (      97.048 eV)
   235     235       --         3.587 au  fB            1.00    224 A               2
                        (      97.604 eV)
   236     236       --         3.618 au  fB            1.00    225 A               2
                        (      98.445 eV)
   237     237       --         3.638 au  fB            1.00    226 A               2
                        (      99.003 eV)
   238     238       --         3.650 au  fB            1.00    227 A               2
                        (      99.310 eV)
   239     239       --         3.690 au  fB            1.00    228 A               2
                        (     100.396 eV)
   240     240       --         3.701 au  fB            1.00    229 A               2
                        (     100.722 eV)
   241     241       --         3.735 au  fB            1.00    230 A               2
                        (     101.643 eV)
   242     242       --         3.745 au  fB            1.00    231 A               2
                        (     101.911 eV)
   243     243       --         3.802 au  fB            1.00    232 A               2
                        (     103.471 eV)
   244     244       --         3.844 au  fB            1.00    233 A               2
                        (     104.610 eV)
   245     245       --         3.860 au  fB            1.00    234 A               2
                        (     105.035 eV)
   246     246       --         3.884 au  fB            1.00    235 A               2
                        (     105.680 eV)
   247     247       --         3.909 au  fB            1.00    236 A               2
                        (     106.359 eV)
   248     248       --         3.970 au  fB            1.00    237 A               2
                        (     108.018 eV)
   249     249       --         3.986 au  fB            1.00    238 A               2
                        (     108.468 eV)
   250     250       --         4.005 au  fB            1.00    239 A               2
                        (     108.978 eV)
   251     251       --         4.017 au  fB            1.00    240 A               2
                        (     109.315 eV)
   252     252       --         4.051 au  fB            1.00    241 A               2
                        (     110.220 eV)
   253     253       --         4.077 au  fB            1.00    242 A               2
                        (     110.927 eV)
   254     254       --         4.136 au  fB            1.00    243 A               2
                        (     112.553 eV)
   255     255       --         4.170 au  fB            1.00    244 A               2
                        (     113.464 eV)
   256     256       --         4.189 au  fB            1.00    245 A               2
                        (     113.991 eV)
   257     257       --         4.216 au  fB            1.00    246 A               2
                        (     114.730 eV)
   258     258       --         4.250 au  fB            1.00    247 A               2
                        (     115.644 eV)
   259     259       --         4.275 au  fB            1.00    248 A               2
                        (     116.329 eV)
   260     260       --         4.295 au  fB            1.00    249 A               2
                        (     116.885 eV)
   261     261       --         4.331 au  fB            1.00    250 A               2
                        (     117.858 eV)
   262     262       --         4.372 au  fB            1.00    251 A               2
                        (     118.980 eV)
   263     263       --         4.409 au  fB            1.00    252 A               2
                        (     119.979 eV)
   264     264       --         4.445 au  fB            1.00    253 A               2
                        (     120.962 eV)
   265     265       --         4.510 au  fB            1.00    254 A               2
                        (     122.731 eV)
   266     266       --         4.550 au  fB            1.00    255 A               2
                        (     123.820 eV)
   267     267       --         4.623 au  fB            1.00    256 A               2
                        (     125.805 eV)
   268     268       --         4.629 au  fB            1.00    257 A               2
                        (     125.957 eV)
   269     269       --         4.696 au  fB            1.00    258 A               2
                        (     127.789 eV)
   270     270       --         4.721 au  fB            1.00    259 A               2
                        (     128.468 eV)
   271     271       --         4.783 au  fB            1.00    260 A               2
                        (     130.150 eV)
   272     272       --         4.825 au  fB            1.00    261 A               2
                        (     131.289 eV)
   273     273       --         4.878 au  fB            1.00    262 A               2
                        (     132.735 eV)
   274     274       --         4.895 au  fB            1.00    263 A               2
                        (     133.213 eV)
   275     275       --         4.916 au  fB            1.00    264 A               2
                        (     133.771 eV)
   276     276       --         4.934 au  fB            1.00    265 A               2
                        (     134.254 eV)
   277     277       --         5.033 au  fB            1.00    266 A               2
                        (     136.959 eV)
   278     278       --         5.059 au  fB            1.00    267 A               2
                        (     137.661 eV)
   279     279       --         5.074 au  fB            1.00    268 A               2
                        (     138.060 eV)
   280     280       --         5.140 au  fB            1.00    269 A               2
                        (     139.864 eV)
   281     281       --         5.158 au  fB            1.00    270 A               2
                        (     140.345 eV)
   282     282       --         5.207 au  fB            1.00    271 A               2
                        (     141.690 eV)
   283     283       --         5.247 au  fB            1.00    272 A               2
                        (     142.775 eV)
   284     284       --         5.291 au  fB            1.00    273 A               2
                        (     143.985 eV)
   285     285       --         5.345 au  fB            1.00    274 A               2
                        (     145.435 eV)
   286     286       --         5.363 au  fB            1.00    275 A               2
                        (     145.931 eV)
   287     287       --         5.410 au  fB            1.00    276 A               2
                        (     147.200 eV)
   288     288       --         5.524 au  fB            1.00    277 A               2
                        (     150.318 eV)
   289     289       --         5.564 au  fB            1.00    278 A               2
                        (     151.391 eV)
   290     290       --         5.598 au  fB            1.00    279 A               2
                        (     152.343 eV)
   291     291       --         5.690 au  fB            1.00    280 A               2
                        (     154.820 eV)
   292     292       --         5.757 au  fB            1.00    281 A               2
                        (     156.656 eV)
   293     293       --         5.855 au  fB            1.00    282 A               2
                        (     159.315 eV)
   294     294       --         5.894 au  fB            1.00    283 A               2
                        (     160.384 eV)
   295     295       --         5.974 au  fB            1.00    284 A               2
                        (     162.566 eV)
   296     296       --         6.006 au  fB            1.00    285 A               2
                        (     163.442 eV)
   297     297       --         6.184 au  fB            1.00    286 A               2
                        (     168.278 eV)
   298     298       --         6.236 au  fB            1.00    287 A               2
                        (     169.686 eV)
   299     299       --         6.334 au  fB            1.00    288 A               2
                        (     172.351 eV)
   300     300       --         6.376 au  fB            1.00    289 A               2
                        (     173.502 eV)
   301     301       --         6.387 au  fB            1.00    290 A               2
                        (     173.808 eV)
   302     302       --         6.436 au  fB            1.00    291 A               2
                        (     175.122 eV)
   303     303       --         6.477 au  fB            1.00    292 A               2
                        (     176.246 eV)
   304     304       --         6.510 au  fB            1.00    293 A               2
                        (     177.146 eV)
   305     305       --         6.533 au  fB            1.00    294 A               2
                        (     177.762 eV)
   306     306       --         6.635 au  fB            1.00    295 A               2
                        (     180.555 eV)
   307     307       --         6.694 au  fB            1.00    296 A               2
                        (     182.167 eV)
   308     308       --         6.781 au  fB            1.00    297 A               2
                        (     184.520 eV)
   309     309       --         6.834 au  fB            1.00    298 A               2
                        (     185.975 eV)
   310     310       --         6.873 au  fB            1.00    299 A               2
                        (     187.017 eV)
   311     311       --         6.886 au  fB            1.00    300 A               2
                        (     187.366 eV)
   312     312       --         6.932 au  fB            1.00    301 A               2
                        (     188.618 eV)
   313     313       --         7.006 au  fB            1.00    302 A               2
                        (     190.649 eV)
   314     314       --         7.072 au  fB            1.00    303 A               2
                        (     192.431 eV)
   315     315       --         7.181 au  fB            1.00    304 A               2
                        (     195.400 eV)
   316     316       --         7.406 au  fB            1.00    305 A               2
                        (     201.536 eV)
   317     317       --         7.500 au  fB            1.00    306 A               2
                        (     204.092 eV)
   318     318       --         7.534 au  fB            1.00    307 A               2
                        (     205.008 eV)
   319     319       --         7.856 au  fB            1.00    308 A               2
                        (     213.771 eV)
   320     320       --         8.334 au  fB            1.00    309 A               2
                        (     226.776 eV)
   321     321       --         8.763 au  fB            1.00    310 A               2
                        (     238.467 eV)
   322     322       --         8.789 au  fB            1.00    311 A               2
                        (     239.171 eV)
   323     323       --         8.911 au  fB            1.00    312 A               2
                        (     242.488 eV)
   324     324       --         8.929 au  fB            1.00    313 A               2
                        (     242.973 eV)
   325     325       --         8.978 au  fB            1.00    314 A               2
                        (     244.295 eV)
   326     326       --         9.106 au  fB            1.00    315 A               2
                        (     247.794 eV)
   327     327       --         9.328 au  fB            1.00    316 A               2
                        (     253.825 eV)
   328     328       --         9.672 au  fB            1.00    317 A               2
                        (     263.185 eV)
   329     329       --         9.773 au  fB            1.00    318 A               2
                        (     265.932 eV)
   330     330       --         9.898 au  fB            1.00    319 A               2
                        (     269.338 eV)
   331     331       --        10.159 au  fB            1.00    320 A               2
                        (     276.428 eV)
   332     332       --        10.568 au  fB            1.00    321 A               2
                        (     287.583 eV)
   333     333       --        14.679 au  fB            1.00    322 A               2
                        (     399.435 eV)
   334     334       --        15.709 au  fB            1.00    323 A               2
                        (     427.455 eV)
   335     335       --        15.996 au  fB            1.00    324 A               2
                        (     435.264 eV)
   336     336       --        20.724 au  fB            1.00    325 A               2
                        (     563.927 eV)
   337     337       --        20.748 au  fB            1.00    326 A               2
                        (     564.573 eV)
   338     338       --        21.219 au  fB            1.00    327 A               2
                        (     577.408 eV)
   339     339       --        21.261 au  fB            1.00    328 A               2
                        (     578.536 eV)
   340     340       --        21.432 au  fB            1.00    329 A               2
                        (     583.188 eV)
   341     341       --        56.970 au  fB            1.00    330 A               2
                        (    1550.233 eV)
   342     342       --        59.634 au  fB            1.00    331 A               2
                        (    1622.722 eV)
   343     343       --        71.371 au  fB            1.00    332 A               2
                        (    1942.116 eV)
   344     344       --        71.955 au  fB            1.00    333 A               2
                        (    1958.003 eV)
   345     345       --        72.260 au  fB            1.00    334 A               2
                        (    1966.306 eV)
   346     346       --        72.396 au  fB            1.00    335 A               2
                        (    1969.993 eV)
   347     347       --        95.988 au  fB            1.00    336 A               2
                        (    2611.967 eV)
   348     348       --        96.080 au  fB            1.00    337 A               2
                        (    2614.467 eV)
   349     349       --        97.399 au  fB            1.00    338 A               2
                        (    2650.348 eV)
   350     350       --       128.001 au  fB            1.00    339 A               2
                        (    3483.092 eV)
   351     351       --       128.920 au  fB            1.00    340 A               2
                        (    3508.097 eV)
   352     352       --       619.341 au  fB            1.00    341 A               2
                        (   16853.128 eV)



 ================================
 (Slater-type)  F U N C T I O N S  ***  (Basis and Fit)  ***
 ================================
  

 Atom Type    1  (H)
 ==============

 Valence Basis Sets:   5
 -----------------------
   1 S    0.690000
   1 S    0.920000
   1 S    1.580000
   2 P    1.250000
   3 D    2.500000

 Atom Type    2  (C)
 ==============

 Valence Basis Sets:  10
 -----------------------
   1 S    7.680000
   1 S    5.000000
   2 S    1.280000
   2 S    2.100000
   2 S    4.600000
   2 P    0.820000
   2 P    1.480000
   2 P    2.940000
   3 D    2.200000
   4 F    3.300000

 Atom Type    3  (Br)
 ==============

 Valence Basis Sets:  20
 -----------------------
   1 S   41.300000
   1 S   32.800000
   2 S   13.900000
   2 P   19.450000
   2 P   13.100000
   3 S    7.200000
   3 S    4.950000
   3 P    7.900000
   3 P    5.050000
   3 D   10.900000
   3 D    6.050000
   3 D    3.500000
   4 S    4.500000
   4 S    2.800000
   4 S    1.800000
   4 P    3.250000
   4 P    1.950000
   4 P    1.200000
   4 D    1.800000
   4 F    1.800000

 Atom Type    4  (H)
 ==============

 Valence Basis Sets:   5
 -----------------------
   1 S    0.690000
   1 S    0.920000
   1 S    1.580000
   2 P    1.250000
   3 D    2.500000

 Atom Type    5  (N)
 ==============

 Valence Basis Sets:  10
 -----------------------
   1 S    8.740000
   1 S    5.900000
   2 S    5.150000
   2 S    2.500000
   2 S    1.500000
   2 P    3.680000
   2 P    1.880000
   2 P    1.000000
   3 D    2.200000
   4 F    3.300000

 Atom Type    6  (O)
 ==============

 Valence Basis Sets:  10
 -----------------------
   1 S    9.800000
   1 S    6.800000
   2 S    7.580000
   2 S    2.880000
   2 S    1.720000
   2 P    4.080000
   2 P    2.080000
   2 P    1.120000
   3 D    2.000000
   4 F    3.000000


 BAS: List of all Elementary Cartesian Basis Functions
 =====================================================

 The numbering in the list below (to the right of the function characteristics) is referred
 to in print-outs of MO eigenvectors and Mulliken populations in the BAS representation
 (as contrasted to the SFO representation).

 Notes:
 1. The functions are characterized by a polynomial prefactor (powers of x,y,z and r) and
    an exponential decay factor alpha.
 2. Since the basis sets are specific for an atom TYPE, the individual functions occur on
    all atoms of that type.
 3. The word 'Core' in the left margin signals that it is a Core Function (CF) : not a
    degree of freedom in the valence set, but only used to ensure orthogonalization of
    the other valence basis functions on the frozen Core Orbitals.


 (power of) X  Y  Z  R     Alpha  on Atom
            ==========     =====     ==========

 H                                    1
                                  ---------------------------------------------------------------------------
            0  0  0  0     0.690      1
            0  0  0  0     0.920      2
            0  0  0  0     1.580      3
            1  0  0  0     1.250      4
            0  1  0  0     1.250      5
            0  0  1  0     1.250      6
            2  0  0  0     2.500      7
            1  1  0  0     2.500      8
            1  0  1  0     2.500      9
            0  2  0  0     2.500     10
            0  1  1  0     2.500     11
            0  0  2  0     2.500     12

 C                                    2    3
                                  ---------------------------------------------------------------------------
            0  0  0  0     7.680     13   43
            0  0  0  0     5.000     14   44
            0  0  0  1     1.280     15   45
            0  0  0  1     2.100     16   46
            0  0  0  1     4.600     17   47
            1  0  0  0     0.820     18   48
            0  1  0  0     0.820     19   49
            0  0  1  0     0.820     20   50
            1  0  0  0     1.480     21   51
            0  1  0  0     1.480     22   52
            0  0  1  0     1.480     23   53
            1  0  0  0     2.940     24   54
            0  1  0  0     2.940     25   55
            0  0  1  0     2.940     26   56
            2  0  0  0     2.200     27   57
            1  1  0  0     2.200     28   58
            1  0  1  0     2.200     29   59
            0  2  0  0     2.200     30   60
            0  1  1  0     2.200     31   61
            0  0  2  0     2.200     32   62
            3  0  0  0     3.300     33   63
            2  1  0  0     3.300     34   64
            2  0  1  0     3.300     35   65
            1  2  0  0     3.300     36   66
            1  1  1  0     3.300     37   67
            1  0  2  0     3.300     38   68
            0  3  0  0     3.300     39   69
            0  2  1  0     3.300     40   70
            0  1  2  0     3.300     41   71
            0  0  3  0     3.300     42   72

 Br                                   4
                                  ---------------------------------------------------------------------------
            0  0  0  0    41.300     73
            0  0  0  0    32.800     74
            0  0  0  1    13.900     75
            1  0  0  0    19.450     76
            0  1  0  0    19.450     77
            0  0  1  0    19.450     78
            1  0  0  0    13.100     79
            0  1  0  0    13.100     80
            0  0  1  0    13.100     81
            0  0  0  2     7.200     82
            0  0  0  2     4.950     83
            1  0  0  1     7.900     84
            0  1  0  1     7.900     85
            0  0  1  1     7.900     86
            1  0  0  1     5.050     87
            0  1  0  1     5.050     88
            0  0  1  1     5.050     89
            2  0  0  0    10.900     90
            1  1  0  0    10.900     91
            1  0  1  0    10.900     92
            0  2  0  0    10.900     93
            0  1  1  0    10.900     94
            0  0  2  0    10.900     95
            2  0  0  0     6.050     96
            1  1  0  0     6.050     97
            1  0  1  0     6.050     98
            0  2  0  0     6.050     99
            0  1  1  0     6.050    100
            0  0  2  0     6.050    101
            2  0  0  0     3.500    102
            1  1  0  0     3.500    103
            1  0  1  0     3.500    104
            0  2  0  0     3.500    105
            0  1  1  0     3.500    106
            0  0  2  0     3.500    107
            0  0  0  3     4.500    108
            0  0  0  3     2.800    109
            0  0  0  3     1.800    110
            1  0  0  2     3.250    111
            0  1  0  2     3.250    112
            0  0  1  2     3.250    113
            1  0  0  2     1.950    114
            0  1  0  2     1.950    115
            0  0  1  2     1.950    116
            1  0  0  2     1.200    117
            0  1  0  2     1.200    118
            0  0  1  2     1.200    119
            2  0  0  1     1.800    120
            1  1  0  1     1.800    121
            1  0  1  1     1.800    122
            0  2  0  1     1.800    123
            0  1  1  1     1.800    124
            0  0  2  1     1.800    125
            3  0  0  0     1.800    126
            2  1  0  0     1.800    127
            2  0  1  0     1.800    128
            1  2  0  0     1.800    129
            1  1  1  0     1.800    130
            1  0  2  0     1.800    131
            0  3  0  0     1.800    132
            0  2  1  0     1.800    133
            0  1  2  0     1.800    134
            0  0  3  0     1.800    135

 H                                    5    6    7    8    9   10   11
                                  ---------------------------------------------------------------------------
            0  0  0  0     0.690    136  148  160  172  184  196  208
            0  0  0  0     0.920    137  149  161  173  185  197  209
            0  0  0  0     1.580    138  150  162  174  186  198  210
            1  0  0  0     1.250    139  151  163  175  187  199  211
            0  1  0  0     1.250    140  152  164  176  188  200  212
            0  0  1  0     1.250    141  153  165  177  189  201  213
            2  0  0  0     2.500    142  154  166  178  190  202  214
            1  1  0  0     2.500    143  155  167  179  191  203  215
            1  0  1  0     2.500    144  156  168  180  192  204  216
            0  2  0  0     2.500    145  157  169  181  193  205  217
            0  1  1  0     2.500    146  158  170  182  194  206  218
            0  0  2  0     2.500    147  159  171  183  195  207  219

 N                                   12   13   14   15
                                  ---------------------------------------------------------------------------
            0  0  0  0     8.740    220  250  280  310
            0  0  0  0     5.900    221  251  281  311
            0  0  0  1     5.150    222  252  282  312
            0  0  0  1     2.500    223  253  283  313
            0  0  0  1     1.500    224  254  284  314
            1  0  0  0     3.680    225  255  285  315
            0  1  0  0     3.680    226  256  286  316
            0  0  1  0     3.680    227  257  287  317
            1  0  0  0     1.880    228  258  288  318
            0  1  0  0     1.880    229  259  289  319
            0  0  1  0     1.880    230  260  290  320
            1  0  0  0     1.000    231  261  291  321
            0  1  0  0     1.000    232  262  292  322
            0  0  1  0     1.000    233  263  293  323
            2  0  0  0     2.200    234  264  294  324
            1  1  0  0     2.200    235  265  295  325
            1  0  1  0     2.200    236  266  296  326
            0  2  0  0     2.200    237  267  297  327
            0  1  1  0     2.200    238  268  298  328
            0  0  2  0     2.200    239  269  299  329
            3  0  0  0     3.300    240  270  300  330
            2  1  0  0     3.300    241  271  301  331
            2  0  1  0     3.300    242  272  302  332
            1  2  0  0     3.300    243  273  303  333
            1  1  1  0     3.300    244  274  304  334
            1  0  2  0     3.300    245  275  305  335
            0  3  0  0     3.300    246  276  306  336
            0  2  1  0     3.300    247  277  307  337
            0  1  2  0     3.300    248  278  308  338
            0  0  3  0     3.300    249  279  309  339

 O                                   16   17
                                  ---------------------------------------------------------------------------
            0  0  0  0     9.800    340  370
            0  0  0  0     6.800    341  371
            0  0  0  1     7.580    342  372
            0  0  0  1     2.880    343  373
            0  0  0  1     1.720    344  374
            1  0  0  0     4.080    345  375
            0  1  0  0     4.080    346  376
            0  0  1  0     4.080    347  377
            1  0  0  0     2.080    348  378
            0  1  0  0     2.080    349  379
            0  0  1  0     2.080    350  380
            1  0  0  0     1.120    351  381
            0  1  0  0     1.120    352  382
            0  0  1  0     1.120    353  383
            2  0  0  0     2.000    354  384
            1  1  0  0     2.000    355  385
            1  0  1  0     2.000    356  386
            0  2  0  0     2.000    357  387
            0  1  1  0     2.000    358  388
            0  0  2  0     2.000    359  389
            3  0  0  0     3.000    360  390
            2  1  0  0     3.000    361  391
            2  0  1  0     3.000    362  392
            1  2  0  0     3.000    363  393
            1  1  1  0     3.000    364  394
            1  0  2  0     3.000    365  395
            0  3  0  0     3.000    366  396
            0  2  1  0     3.000    367  397
            0  1  2  0     3.000    368  398
            0  0  3  0     3.000    369  399

 Total number of charge fitting functions (nprimf)      1242
 Total number of Cartesian basis functions (naos)        399
 Total number of Cartesian core functions  (ncos)          0

 ***************************************************************************************************



                                              ***********************
                                              *  T E C H N I C A L  *
                                              ***********************
  



 =============================================================
 P A R A L L E L I Z A T I O N  and  V E C T O R I Z A T I O N
 =============================================================
  
 Nr of parallel processes:                                1
 Maximum vector length in NumInt loops:                 128



 =====================
 S C F   U P D A T E S
 =====================
  
 Max. nr. of cycles:                               200
 Convergence criterion:                              0.0000010000
   secondary criterion:                              0.0010000000

 Mix parameter (when DIIS does not apply):           0.2000000000
 Mixed ADIIS+SDIIS will be used                  
    Max number of expansion vectors:                10
    Pure ADIIS when Max([F,P]) is above              0.1000000000
    Pure SDIIS when Max([F,P]) is below              0.0010000000
 Automatic ElectronSmearing (in case of problematic SCF convergence) disabled



 =================
 P R E C I S I O N  ***  (General: NumInt, NeglectFunctionTails, ...)  ***
 =================
  

 NumInt:           Target precision:                 4.0000000000
 -------           Initial precision:                4.0000000000
                   Min. precision (optimization):    4.0000000000

 Neglect Functions:          Basis functions:        0.1000000000E-05
 ------------------          Fit functions:          0.1000000000E-05



 ===========================
 L I N E A R   S C A L I N G
 ===========================
  

 Cut-off radii density fit:                        0.1000000000E-07
 Overlap cut-off criterion AO matrix elements:     0.1000000000E-05
 Cut-offs for Coulomb potential and fitted density:0.1000000000E-07
 Cut-off criterion for Coulomb multipole terms:    0.1000000000E-07
 Progressive Convergence parameter:                 0.000000000    
 ***************************************************************************************************



                                            ***************************
                                            *  C O M P U T A T I O N  *
[...]
                                   12.87%    45 A              -7.448  2.00     2 fB
                                   11.78%    49 A              -6.128  2.00     2 fB
                                   10.98%    40 A             -10.292  2.00     2 fB
                                    5.40%    59 A               1.974  0.00     2 fB
                                    4.49%    55 A               0.402  0.00     2 fB
                                    3.96%    63 A               3.840  0.00     2 fB
                                    3.19%    44 A              -7.594  2.00     2 fB
                                    2.62%    38 A             -11.726  2.00     2 fB
                                    2.49%    54 A               0.001  0.00     2 fB
                                    2.14%    53 A              -0.106  0.00     2 fB
                                    2.06%    52 A              -1.221  0.00     2 fB
                                    1.70%    64 A               4.112  0.00     2 fB
                                    1.42%    43 A              -7.857  2.00     2 fB
                                    1.36%    62 A               3.559  0.00     2 fB
                                    1.22%    50 A              -3.832  0.00     2 fB
                                    1.19%    65 A               4.330  0.00     2 fB
                                    1.03%    61 A               3.309  0.00     2 fB
      -0.05449         4 A         10.02%    47 A              -6.932  2.00     2 fB
                                    9.52%    45 A              -7.448  2.00     2 fB
                                    8.86%    64 A               4.112  0.00     2 fB
                                    6.54%    53 A              -0.106  0.00     2 fB
                                    6.21%    54 A               0.001  0.00     2 fB
                                    5.47%    59 A               1.974  0.00     2 fB
                                    5.06%    49 A              -6.128  2.00     2 fB
                                    4.96%    40 A             -10.292  2.00     2 fB
                                    3.75%    44 A              -7.594  2.00     2 fB
                                    3.74%    36 A             -12.698  2.00     2 fB
                                    3.50%    39 A             -11.497  2.00     2 fB
                                    3.13%    66 A               4.528  0.00     2 fB
                                    2.67%    46 A              -7.025  2.00     2 fB
                                    2.24%    51 A              -2.349  0.00     2 fB
                                    2.15%    67 A               4.759  0.00     2 fB
                                    2.02%    48 A              -6.864  2.00     2 fB
                                    1.94%    37 A             -12.194  2.00     2 fB
                                    1.69%    55 A               0.402  0.00     2 fB
                                    1.48%    34 A             -13.599  2.00     2 fB
                                    1.46%    56 A               1.040  0.00     2 fB
                                    1.30%    68 A               5.201  0.00     2 fB
                                    1.10%    42 A              -8.325  2.00     2 fB
                                    1.09%    69 A               5.303  0.00     2 fB
                                    1.08%    70 A               5.421  0.00     2 fB
       0.05449       349 A         10.07%    47 A              -6.932  2.00     2 fB
                                    9.36%    64 A               4.112  0.00     2 fB
                                    8.67%    45 A              -7.448  2.00     2 fB
                                    6.91%    53 A              -0.106  0.00     2 fB
                                    6.59%    54 A               0.001  0.00     2 fB
                                    5.77%    59 A               1.974  0.00     2 fB
                                    4.59%    49 A              -6.128  2.00     2 fB
                                    4.07%    40 A             -10.292  2.00     2 fB
                                    3.70%    44 A              -7.594  2.00     2 fB
                                    3.56%    39 A             -11.497  2.00     2 fB
                                    3.48%    36 A             -12.698  2.00     2 fB
                                    3.31%    66 A               4.528  0.00     2 fB
                                    2.58%    46 A              -7.025  2.00     2 fB
                                    2.35%    51 A              -2.349  0.00     2 fB
                                    2.26%    67 A               4.759  0.00     2 fB
                                    1.88%    48 A              -6.864  2.00     2 fB
                                    1.84%    37 A             -12.194  2.00     2 fB
                                    1.78%    55 A               0.402  0.00     2 fB
                                    1.54%    56 A               1.040  0.00     2 fB
                                    1.38%    68 A               5.201  0.00     2 fB
                                    1.14%    34 A             -13.599  2.00     2 fB
                                    1.14%    69 A               5.303  0.00     2 fB
                                    1.13%    70 A               5.421  0.00     2 fB
                                    1.04%    63 A               3.840  0.00     2 fB
                                    1.02%    57 A               1.438  0.00     2 fB
                                    1.01%    42 A              -8.325  2.00     2 fB
      -0.05012         5 A         17.12%    66 A               4.528  0.00     2 fB
                                   15.62%    48 A              -6.864  2.00     2 fB
                                   10.95%    46 A              -7.025  2.00     2 fB
                                    7.67%    45 A              -7.448  2.00     2 fB
                                    7.16%    44 A              -7.594  2.00     2 fB
                                    4.65%    54 A               0.001  0.00     2 fB
                                    3.80%    57 A               1.438  0.00     2 fB
                                    3.40%    64 A               4.112  0.00     2 fB
                                    3.07%    67 A               4.759  0.00     2 fB
                                    2.75%    41 A              -9.366  2.00     2 fB
                                    2.60%    58 A               1.743  0.00     2 fB
                                    2.43%    63 A               3.840  0.00     2 fB
                                    2.19%    43 A              -7.857  2.00     2 fB
                                    2.12%    68 A               5.201  0.00     2 fB
                                    2.08%    72 A               5.690  0.00     2 fB
                                    1.63%    61 A               3.309  0.00     2 fB
                                    1.08%    47 A              -6.932  2.00     2 fB
                                    1.07%    33 A             -13.690  2.00     2 fB
       0.05012       348 A         17.98%    66 A               4.528  0.00     2 fB
                                   14.79%    48 A              -6.864  2.00     2 fB
                                   10.39%    46 A              -7.025  2.00     2 fB
                                    7.31%    45 A              -7.448  2.00     2 fB
                                    6.87%    44 A              -7.594  2.00     2 fB
                                    4.92%    54 A               0.001  0.00     2 fB
                                    4.00%    57 A               1.438  0.00     2 fB
                                    3.58%    64 A               4.112  0.00     2 fB
                                    3.23%    67 A               4.759  0.00     2 fB
                                    2.72%    58 A               1.743  0.00     2 fB
                                    2.55%    63 A               3.840  0.00     2 fB
                                    2.33%    41 A              -9.366  2.00     2 fB
                                    2.23%    68 A               5.201  0.00     2 fB
                                    2.18%    72 A               5.690  0.00     2 fB
                                    2.15%    43 A              -7.857  2.00     2 fB
                                    1.72%    61 A               3.309  0.00     2 fB
                                    1.11%    47 A              -6.932  2.00     2 fB
 Mulliken charges used for AMS results%charges...


    =====================
     CALCULATION RESULTS
    =====================

Energy (hartree)            -0.07794320


--------------
Atomic charges
--------------
  Index   Atom    Charge
      1      H   -0.5904
      2      C    0.3246
      3      C    0.5294
      4     Br   -0.4285
      5      H    0.0302
      6      N    0.5760
      7      O   -0.4268
      8      O   -0.4382
      9      N   -0.0494
     10      H   -0.0269
     11      H   -0.0410
     12      N   -0.1021
     13      H   -0.0751
     14      H   -0.0702
     15      N   -0.0808
     16      H   -0.0389
     17      H   -0.0918


Dipole moment vector    (Debye):     3.63461499    0.92133873    0.18959980
              magnitude (Debye):     3.75436270


-----------------------
Molecular orbitals info
-----------------------
n orbitals:              352
n spin:                    1

Note: only printing virtual orbitals with
      energy smaller than HOMO + 100. eV

HOMO (eV):              -0.3750
LUMO (eV):               0.5481
HOMO-LUMO gap (eV):      0.9231

   Index   Energy (eV)    Occupation
     227       98.8860         0.000       
     226       97.2959         0.000       
     225       96.3455         0.000       
     224       95.9433         0.000       
     223       95.4916         0.000       
     222       94.9183         0.000       
     221       94.3950         0.000       
     220       93.5951         0.000       
     219       92.6117         0.000       
     218       92.3952         0.000       
     217       91.9467         0.000       
     216       91.0252         0.000       
     215       90.1178         0.000       
     214       89.1900         0.000       
     213       88.9316         0.000       
     212       87.8368         0.000       
     211       87.3062         0.000       
     210       87.1125         0.000       
     209       86.7097         0.000       
     208       85.6881         0.000       
     207       85.0244         0.000       
     206       84.4798         0.000       
     205       84.2560         0.000       
     204       83.1549         0.000       
     203       82.4032         0.000       
     202       81.4348         0.000       
     201       81.2592         0.000       
     200       80.2812         0.000       
     199       80.0769         0.000       
     198       78.7030         0.000       
     197       77.8818         0.000       
     196       77.4924         0.000       
     195       76.7999         0.000       
     194       76.2918         0.000       
     193       75.5295         0.000       
     192       75.0626         0.000       
     191       74.3351         0.000       
     190       73.7173         0.000       
     189       73.2721         0.000       
     188       71.8119         0.000       
     187       70.6478         0.000       
     186       69.8549         0.000       
     185       68.9310         0.000       
     184       68.2276         0.000       
     183       67.7892         0.000       
     182       66.6220         0.000       
     181       65.8629         0.000       
     180       65.1727         0.000       
     179       64.5026         0.000       
     178       64.1079         0.000       
     177       63.5649         0.000       
     176       63.1292         0.000       
     175       61.8951         0.000       
     174       60.7581         0.000       
     173       60.4938         0.000       
     172       59.7747         0.000       
     171       59.4981         0.000       
     170       59.0788         0.000       
     169       58.3580         0.000       
     168       57.0912         0.000       
     167       56.9070         0.000       
     166       55.7329         0.000       
     165       55.0481         0.000       
     164       54.5977         0.000       
     163       53.6309         0.000       
     162       52.8451         0.000       
     161       51.7700         0.000       
     160       51.4063         0.000       
     159       50.8033         0.000       
     158       50.3901         0.000       
     157       48.9299         0.000       
     156       48.5046         0.000       
     155       47.6408         0.000       
     154       47.2529         0.000       
     153       46.6785         0.000       
     152       45.8269         0.000       
     151       45.1176         0.000       
     150       44.6565         0.000       
     149       44.1406         0.000       
     148       42.6970         0.000       
     147       42.1585         0.000       
     146       41.6880         0.000       
     145       40.9201         0.000       
     144       40.8703         0.000       
     143       40.4560         0.000       
     142       39.9978         0.000       
     141       39.6525         0.000       
     140       39.1587         0.000       
     139       38.6817         0.000       
     138       38.5665         0.000       
     137       38.0980         0.000       
     136       37.6443         0.000       
     135       37.2139         0.000       
     134       36.9840         0.000       
     133       36.4747         0.000       
     132       36.0748         0.000       
     131       35.1538         0.000       
     130       34.7161         0.000       
     129       34.1888         0.000       
     128       33.4788         0.000       
     127       33.3466         0.000       
     126       33.1792         0.000       
     125       31.9758         0.000       
     124       31.7396         0.000       
     123       31.5700         0.000       
     122       31.2594         0.000       
     121       30.2726         0.000       
     120       29.8776         0.000       
     119       29.6229         0.000       
     118       29.0815         0.000       
     117       28.9506         0.000       
     116       28.6009         0.000       
     115       27.8208         0.000       
     114       26.8367         0.000       
     113       26.4992         0.000       
     112       26.0496         0.000       
     111       25.0061         0.000       
     110       24.7195         0.000       
     109       23.9956         0.000       
     108       23.4341         0.000       
     107       22.7596         0.000       
     106       22.5576         0.000       
     105       21.9592         0.000       
     104       21.2929         0.000       
     103       21.2072         0.000       
     102       20.8209         0.000       
     101       19.4837         0.000       
     100       19.2087         0.000       
      99       19.1089         0.000       
      98       18.5704         0.000       
      97       17.9237         0.000       
      96       17.5562         0.000       
      95       17.0401         0.000       
      94       16.9242         0.000       
      93       16.3792         0.000       
      92       16.0865         0.000       
      91       15.6357         0.000       
      90       15.5107         0.000       
      89       15.0086         0.000       
      88       14.7698         0.000       
      87       14.1639         0.000       
      86       13.9824         0.000       
      85       13.9111         0.000       
      84       13.6162         0.000       
      83       13.2568         0.000       
      82       13.0061         0.000       
      81       12.3926         0.000       
      80       11.9815         0.000       
      79       11.8091         0.000       
      78       11.6668         0.000       
      77       11.3621         0.000       
      76       11.1071         0.000       
      75       10.6598         0.000       
      74       10.4107         0.000       
      73        9.8699         0.000       
      72        9.5738         0.000       
      71        9.3282         0.000       
      70        9.0472         0.000       
      69        8.8490         0.000       
      68        8.7040         0.000       
      67        8.4290         0.000       
      66        8.3501         0.000       
      65        7.8519         0.000       
      64        7.7362         0.000       
      63        7.4541         0.000       
      62        7.1060         0.000       
      61        6.6858         0.000       
      60        6.4303         0.000       
      59        5.5367         0.000       
      58        5.2225         0.000       
      57        4.8863         0.000       
      56        4.6545         0.000       
      55        4.0706         0.000       
      54        3.5270         0.000       
      53        3.1444         0.000       
      52        2.1971         0.000       
      51        0.5481         0.000 < LUMO
      50       -0.3750         2.000 < HOMO
      49       -1.9560         2.000       
      48       -2.6342         2.000       
      47       -2.6984         2.000       
      46       -2.8320         2.000       
      45       -3.2611         2.000       
      44       -3.4438         2.000       
      43       -3.7058         2.000       
      42       -4.1756         2.000       
      41       -4.9512         2.000       
      40       -5.8480         2.000       
      39       -7.0107         2.000       
      38       -7.3720         2.000       
      37       -7.9577         2.000       
      36       -8.4078         2.000       
      35       -8.9167         2.000       
      34       -9.2474         2.000       
      33       -9.3456         2.000       
      32       -9.8983         2.000       
      31      -10.4109         2.000       
      30      -12.4257         2.000       
      29      -14.8464         2.000       
      28      -15.8594         2.000       
      27      -17.4893         2.000       
      26      -18.8948         2.000       
      25      -20.1101         2.000       
      24      -22.6655         2.000       
      23      -27.0361         2.000       
      22      -61.3762         2.000       
      21      -61.3790         2.000       
      20      -61.5687         2.000       
      19      -61.5768         2.000       
      18      -61.6408         2.000       
      17     -167.9370         2.000       
      16     -167.9477         2.000       
      15     -168.2050         2.000       
      14     -231.8011         2.000       
      13     -267.7208         2.000       
      12     -269.3493         2.000       
      11     -377.5330         2.000       
      10     -377.7328         2.000       
       9     -377.8150         2.000       
       8     -383.6812         2.000       
       7     -508.6577         2.000       
       6     -508.7286         2.000       
       5    -1522.0335         2.000       
       4    -1522.0371         2.000       
       3    -1522.1236         2.000       
       2    -1725.1561         2.000       
       1   -13291.6870         2.000       

AMS application finished. Exiting.
NORMAL TERMINATION
     Total cpu time:     146.65
  Total system time:       0.50
 Total elapsed time:     147.62
NORMAL TERMINATION
