
 *******************************************************************************
 *                                                                             *
 *  --------------------------------                                           *
 *   Amsterdam Modeling Suite (AMS)              2026.103                      *
 *  --------------------------------                                           *
 *                                               r260501 2026-05-01 873454b5   *
 *                                                                             *
 *                                                                             *
 *                              =================                              *
 *                              |               |                              *
 *                              |     A M S     |                              *
 *                              |               |                              *
 *                              =================                              *
 *                                                                             *
 *                                                                             *
 *   Online information and documentation:  https://www.scm.com/support/       *
 *   E-mail:  support@scm.com   info@scm.com                                   *
 *                                                                             *
 *   Scientific publications using AMS results must be properly referenced     *
 *   See the User Manuals (or the web site) for recommended citations          *
 *   The terms and conditions of the End User License Agreement apply to       *
 *   the use of AMS, https://www.scm.com/license-terms/                        *
 *                                                                             *
 **********************  x86_64_linux_intel / intelmpi  ************************
 
 Licensed to: Jong-June Jeon / University of Seoul 2026-06-02 13:44:15
 SCM User ID: u30731
  
 AMS 2026.103  RunTime: Jun04-2026 03:03:49  ShM Nodes: 1  Procs: 1

 AMS jobname: c3_eda
 AMS jobid  : 881414222

 Start   directory: /gpfs/home1/yeseo1ee/projects/eda-asm-prediction/ADF_800/adf_outputs/batch_007/qmrxn20_sn2_C_E_B_E_A_A/
 Results directory: /gpfs/home1/yeseo1ee/projects/eda-asm-prediction/ADF_800/adf_outputs/batch_007/qmrxn20_sn2_C_E_B_E_A_A/c3_eda.results/
 Scratch directory: /tmp/amstmp_c3_eda_kid0.881414222/

 RNG seed: -440633470 1830559114 -1149904002 2092463339 -1590994884 1572785977 1359451883 1968825854



                      ************************************************************************
                      *  ADF 2026.103  RunTime: Jun04-2026 03:03:49  ShM Nodes: 1  Procs: 1  *
                      ************************************************************************
  

       ****************************
       * SINGLE POINT CALCULATION *
       ****************************

--------
Geometry
--------
Formula: C3H6FN4O2
Atoms
  Index Symbol   x (angstrom)   y (angstrom)   z (angstrom)
      1      H     2.43290822    -0.05087025    -0.07116180 adf.f=fA
      2      C     0.55405840    -0.04122917    -0.02328863 adf.f=fB
      3      H     1.59720822     1.85800921    -0.23264254 adf.f=fB
      4      F    -1.06671622    -0.20466445    -0.13373850 adf.f=fB
      5      C     0.58123641     1.49795537    -0.12675967 adf.f=fB
      6      C     0.96855771    -0.75003024    -1.21118520 adf.f=fB
      7      N     1.04775841    -1.40650725    -2.19291490 adf.f=fB
      8      N     0.63615020    -0.64971828     1.28269981 adf.f=fB
      9      H     1.57374287    -0.99684658     1.40689323 adf.f=fB
     10      H    -0.04904084    -1.39565292     1.29747984 adf.f=fB
     11      N     0.16969958     2.03143549     1.25483237 adf.f=fB
     12      O     1.07328754     2.24827862     2.05762323 adf.f=fB
     13      O    -1.02290719     2.24771558     1.46014778 adf.f=fB
     14      N    -0.25478762     1.96804450    -1.17246238 adf.f=fB
     15      H    -0.27600155     2.97854050    -1.19111523 adf.f=fB
     16      H    -1.18228416     1.59027988    -1.03737739 adf.f=fB

Total System Charge             -1.00000


----------------
ADF Engine Input
----------------
 
   Basis
     Type TZ2P
     Core None
   End
   XC
     GGA BLYP
     Dispersion GRIMME3 BJDAMP
   End
   Symmetry NOSYM
   NumericalQuality Normal
   Unrestricted No
   SCF
     Iterations 200
     Converge 1.0e-6
   End
   fragments
     fA c1_fragA_ts.results/adf.rkf
     fB c2_fragB_ts.results/adf.rkf
   end
   etsnocv
     enocv 0.05
     ekmin 0.5
   end
   print etslowdin
   Save TAPE21
 

 Title: *** (NO TITLE) ***

 *** adf ***



 ===========================
 A T T A C H E D   F I L E S
 ===========================
  



 ===============================
 M O D E L   P A R A M E T E R S
 ===============================
  
 DENSITY FUNCTIONAL POTENTIAL (scf)
    LDA:                               Exchange only                           == Not Default ==
    Gradient Corrections:              Becke88 LYP                             == Not Default ==

 SPIN  (restricted / unrestr.)
    Molecule:                          Restricted                               
    Fragments:                         Restricted                               

 OTHER ASPECTS
    Relativistic Corrections:          scalar (ZORA,MAPA)                       

    Nuclear Charge Density Model:      Point Charge Nuclei                      
    Core Treatment:                    Frozen Orbital(s)                        

    Hyperfine or Zeeman Interaction:   ---                                      

 Settings for Grimme D3 dispersion correction

      damping                        BJ
      s6                          1.000
      s8                          2.700
      a1                          0.430
      a2                          4.236

 Other (technical) parameters

      alpha                      14.000
      version                         4
 


 Fragment File(s)
 ----------------
 fA:
         file : c1_fragA_ts.results/adf.rkf
         jobid: 921977047
         title: *** adf ***
 fB:
         file : c2_fragB_ts.results/adf.rkf
         jobid: 1461813298
         title: *** adf ***



 ===============
 G E O M E T R Y  ***  3D  Molecule  ***
 ===============
  

 ATOMS
 =====                            X Y Z                    CHARGE
                                (Angstrom)             Nucl     +Core       At.Mass
                       --------------------------    ----------------       -------
    1  H               2.4329   -0.0509   -0.0712      1.00      1.00        1.0078
    2  C               0.5541   -0.0412   -0.0233      6.00      6.00       12.0000
    3  H               1.5972    1.8580   -0.2326      1.00      1.00        1.0078
    4  F              -1.0667   -0.2047   -0.1337      9.00      9.00       18.9984
    5  C               0.5812    1.4980   -0.1268      6.00      6.00       12.0000
    6  C               0.9686   -0.7500   -1.2112      6.00      6.00       12.0000
    7  N               1.0478   -1.4065   -2.1929      7.00      7.00       14.0031
    8  N               0.6362   -0.6497    1.2827      7.00      7.00       14.0031
    9  H               1.5737   -0.9968    1.4069      1.00      1.00        1.0078
   10  H              -0.0490   -1.3957    1.2975      1.00      1.00        1.0078
   11  N               0.1697    2.0314    1.2548      7.00      7.00       14.0031
   12  O               1.0733    2.2483    2.0576      8.00      8.00       15.9949
   13  O              -1.0229    2.2477    1.4601      8.00      8.00       15.9949
   14  N              -0.2548    1.9680   -1.1725      7.00      7.00       14.0031
   15  H              -0.2760    2.9785   -1.1911      1.00      1.00        1.0078
   16  H              -1.1823    1.5903   -1.0374      1.00      1.00        1.0078


 FRAGMENTS
 =========                                     Atoms in this Fragment     Cart. coord.s (Angstrom)
                                               -------------------------------------------------------
    1  fA                                                1  H            2.4329   -0.0509   -0.0712
    2  fB                                                2  C            0.5541   -0.0412   -0.0233
                                                         5  C            0.5812    1.4980   -0.1268
                                                         6  C            0.9686   -0.7500   -1.2112
                                                         3  H            1.5972    1.8580   -0.2326
                                                         9  H            1.5737   -0.9968    1.4069
                                                        10  H           -0.0490   -1.3957    1.2975
                                                        15  H           -0.2760    2.9785   -1.1911
                                                        16  H           -1.1823    1.5903   -1.0374
                                                         4  F           -1.0667   -0.2047   -0.1337
                                                         7  N            1.0478   -1.4065   -2.1929
                                                         8  N            0.6362   -0.6497    1.2827
                                                        11  N            0.1697    2.0314    1.2548
                                                        14  N           -0.2548    1.9680   -1.1725
                                                        12  O            1.0733    2.2483    2.0576
                                                        13  O           -1.0229    2.2477    1.4601


 Interatomic Distance Matrix (Angstrom)
 --------------------------------------

   1)     0.000
   2)     1.879   0.000
   3)     2.090   2.177   0.000
   4)     3.504   1.633   3.371   0.000
   5)     2.415   1.543   1.083   2.370   0.000
   6)     1.983   1.444   2.856   2.367   2.526   0.000
   7)     2.874   2.611   3.847   3.187   3.595   1.184   0.000
   8)     2.328   1.443   3.084   2.259   2.569   2.518   3.581   0.000
   9)     1.954   2.000   3.292   3.158   3.092   2.698   3.661   1.007   0.000
  10)     3.137   1.986   3.954   2.122   3.286   2.783   3.659   1.013   1.675   0.000
  11)     3.349   2.465   2.069   2.908   1.537   3.802   4.947   2.722   3.341   3.434
          0.000
  12)     3.416   3.137   2.382   3.924   2.361   4.437   5.606   3.031   3.347   3.888
          1.228   0.000
  13)     4.424   3.151   3.144   2.925   2.378   4.482   5.566   3.344   4.156   3.775
          1.229   2.180   0.000
  14)     3.537   2.452   2.080   2.541   1.419   2.981   3.758   3.698   4.334   4.178
          2.465   3.504   2.757   0.000
  15)     4.215   3.342   2.384   3.446   2.015   3.931   4.689   4.485   5.097   5.038
          2.661   3.593   2.850   1.011   0.000
  16)     4.086   2.589   2.906   2.013   1.987   3.183   3.910   3.702   4.501   3.956
          2.698   3.886   2.588   1.011   1.665   0.000

 Min. Distance =    1.0075
 Max. Distance =    5.6058



 =====================================
 S Y M M E T R Y ,   E L E C T R O N S
 =====================================
  
 Symmetry: NOSYM

 Irreducible Representations, including subspecies
 -------------------------------------------------
 A


 Configuration of Valence Electrons
 ==================================
 ( determined in the SCF procedure )

 Total:   78

 Net Charge: -1 (Nuclei minus Electrons)

 Aufbau principle for MO occupations will be applied through SCF cycle no.     100
 Thereafter, the program will assign electrons to MOs that are spatially
 similar to the occupied MOs in a "reference" cycle ("KeepOrbitals").
 The reference cycle is always the PREVIOUS cycle: it will evolve with
 the SCF procedure.
 ***************************************************************************************************



                                      ****************************************
                                      *  B U I L D : (Fragments, Functions)  *
                                      ****************************************
  

 The individual fragments are copies of the corresponding 'Master' fragments defined on the fragment files.
 However, they may have been rotated (and translated) with respect to the Master. The local coordinate axes
 of each fragment (which define for instance the spatial orientation in the current molecule of a fragment
 P:x orbital) are not necessarily those of the molecule.
 The local frame (if different from the molecular one) is printed to enable an interpretation of the expan-
 sion of an MO in Fragment Orbitals.



                                              ************************
                                              *  Fragment Type : fA  *
                                              ************************
  

 Fragment no.    1   (in the list of all fragments)
 -----------------
 The local coordinate frame is identical to the molecular frame.

 Check Atomic Coordinates:

                  Master (on file)          After Computed Tranformation               As specified on Input
           ----------------------------     ----------------------------     ---------------------------------
     1)     2.43291  -0.05087  -0.07116      2.43291  -0.05087  -0.07116       1   2.43291  -0.05087  -0.07116



                                              ************************
                                              *  Fragment Type : fB  *
                                              ************************
  

 Fragment no.    2   (in the list of all fragments)
 -----------------
 The local coordinate frame is identical to the molecular frame.

 Check Atomic Coordinates:

                  Master (on file)          After Computed Tranformation               As specified on Input
           ----------------------------     ----------------------------     ---------------------------------
     1)     0.55406  -0.04123  -0.02329      0.55406  -0.04123  -0.02329       2   0.55406  -0.04123  -0.02329
     2)     0.58124   1.49796  -0.12676      0.58124   1.49796  -0.12676       5   0.58124   1.49796  -0.12676
     3)     0.96856  -0.75003  -1.21119      0.96856  -0.75003  -1.21119       6   0.96856  -0.75003  -1.21119
     4)     1.59721   1.85801  -0.23264      1.59721   1.85801  -0.23264       3   1.59721   1.85801  -0.23264
     5)     1.57374  -0.99685   1.40689      1.57374  -0.99685   1.40689       9   1.57374  -0.99685   1.40689
     6)    -0.04904  -1.39565   1.29748     -0.04904  -1.39565   1.29748      10  -0.04904  -1.39565   1.29748
     7)    -0.27600   2.97854  -1.19112     -0.27600   2.97854  -1.19112      15  -0.27600   2.97854  -1.19112
     8)    -1.18228   1.59028  -1.03738     -1.18228   1.59028  -1.03738      16  -1.18228   1.59028  -1.03738
     9)    -1.06672  -0.20466  -0.13374     -1.06672  -0.20466  -0.13374       4  -1.06672  -0.20466  -0.13374
    10)     1.04776  -1.40651  -2.19291      1.04776  -1.40651  -2.19291       7   1.04776  -1.40651  -2.19291
    11)     0.63615  -0.64972   1.28270      0.63615  -0.64972   1.28270       8   0.63615  -0.64972   1.28270
    12)     0.16970   2.03144   1.25483      0.16970   2.03144   1.25483      11   0.16970   2.03144   1.25483
    13)    -0.25479   1.96804  -1.17246     -0.25479   1.96804  -1.17246      14  -0.25479   1.96804  -1.17246
    14)     1.07329   2.24828   2.05762      1.07329   2.24828   2.05762      12   1.07329   2.24828   2.05762
    15)    -1.02291   2.24772   1.46015     -1.02291   2.24772   1.46015      13  -1.02291   2.24772   1.46015



 =======
 S F O s  ***  (Symmetrized Fragment Orbitals)  ***
 =======
  
 SFOs are linear combinations of (valence) Fragment Orbitals (FOs), such that the SFOs transform as the
 irreducible representations of the (molecular) symmetry group. Each SFO is therefore characterized by
 an irrep of the molecule and by a few (or only one) generating FOs.
 The SFOs constitute a symmetry-adapted basis for the Fock matrix. The MO eigenvector coefficients in
 this basis provide a direct interpretation of the MOs in terms of Frontier Orbital Theory.

 The SFOs are combined with auxiliary Core Functions (CFs) to ensure orthogonalization on the (frozen)
 Core Orbitals (COs). The Core-orthogonalized SFOs (CSFOs) constitute the true Fock basis.

 The FOs, and hence also the (C)SFOs are combinations of the elementary basis functions (BAS). The basis
 functions that participate in the description of the SFOs depend on the irrep. The indices of the
 involved functions are printed below for each irrep.
 (The complete list of primitive basis functions is printed in another section)

 Total nr. of (C)SFOs (summation over all irreps) :   326

 NOTE: a (C)SFO that is defined as a combination of more than one FO is usually NOT normalized.



                                       === A ===
 Nr. of SFOs :  326
 Cartesian basis functions that participate in this irrep (total number =   372) :
      1     2     3     4     5     6     7     8     9    10
     11    12    13    14    15    16    17    18    21    24
     19    22    25    20    23    26    27    28    29    30
     31    32    33    34    35    36    37    38    39    40
     41    42    43    44    45    46    47    48    51    54
     49    52    55    50    53    56    57    58    59    60
     61    62    63    64    65    66    67    68    69    70
     71    72    73    74    75    76    77    78    81    84
     79    82    85    80    83    86    87    88    89    90
     91    92    93    94    95    96    97    98    99   100
    101   102   103   104   105   106   107   108   109   110
    111   112   113   114   115   116   117   118   119   120
    121   122   123   124   125   126   127   128   129   130
    131   132   133   134   135   136   137   138   139   140
    141   142   143   144   145   146   147   148   149   150
    151   152   153   154   155   156   157   158   159   160
    161   162   163   164   165   166   167   168   171   174
    169   172   175   170   173   176   177   178   179   180
    181   182   183   184   185   186   187   188   189   190
    191   192   193   194   195   196   197   198   201   204
    199   202   205   200   203   206   207   208   209   210
    211   212   213   214   215   216   217   218   219   220
    221   222   223   224   225   226   227   228   231   234
    229   232   235   230   233   236   237   238   239   240
    241   242   243   244   245   246   247   248   249   250
    251   252   253   254   255   256   257   258   261   264
    259   262   265   260   263   266   267   268   269   270
    271   272   273   274   275   276   277   278   279   280
    281   282   283   284   285   286   287   288   291   294
    289   292   295   290   293   296   297   298   299   300
    301   302   303   304   305   306   307   308   309   310
    311   312   313   314   315   316   317   318   321   324
    319   322   325   320   323   326   327   328   329   330
    331   332   333   334   335   336   337   338   339   340
    341   342   343   344   345   346   347   348   351   354
    349   352   355   350   353   356   357   358   359   360
    361   362   363   364   365   366   367   368   369   370
    371   372

    SFO  (index         Fragment          Generating    Expansion in Fragment Orbitals
  indx  incl.CFs)   Occup   Orb.Energy   FragmentType  Coeff.   Orbital     on Fragment
 --------------------------------------------------------------------------------------
     1       1      2.000       0.096 au  fA            1.00      1 A               1
                        (       2.603 eV)
     2       2       --         0.328 au  fA            1.00      2 A               1
                        (       8.927 eV)
     3       3       --         0.730 au  fA            1.00      3 A               1
                        (      19.877 eV)
     4       4       --         0.730 au  fA            1.00      4 A               1
                        (      19.877 eV)
     5       5       --         0.730 au  fA            1.00      5 A               1
                        (      19.877 eV)
     6       6       --         1.855 au  fA            1.00      6 A               1
                        (      50.479 eV)
     7       7       --         2.938 au  fA            1.00      7 A               1
                        (      79.959 eV)
     8       8       --         2.938 au  fA            1.00      8 A               1
                        (      79.959 eV)
     9       9       --         2.938 au  fA            1.00      9 A               1
                        (      79.959 eV)
    10      10       --         2.938 au  fA            1.00     10 A               1
                        (      79.959 eV)
    11      11       --         2.938 au  fA            1.00     11 A               1
                        (      79.959 eV)
    12      12      2.000     -24.309 au  fB            1.00      1 A               2
                        (    -661.471 eV)
    13      13      2.000     -18.846 au  fB            1.00      2 A               2
                        (    -512.815 eV)
    14      14      2.000     -18.846 au  fB            1.00      3 A               2
                        (    -512.813 eV)
    15      15      2.000     -14.252 au  fB            1.00      4 A               2
                        (    -387.822 eV)
    16      16      2.000     -14.075 au  fB            1.00      5 A               2
                        (    -383.001 eV)
    17      17      2.000     -14.071 au  fB            1.00      6 A               2
                        (    -382.895 eV)
    18      18      2.000     -14.050 au  fB            1.00      7 A               2
                        (    -382.317 eV)
    19      19      2.000     -10.121 au  fB            1.00      8 A               2
                        (    -275.410 eV)
    20      20      2.000     -10.049 au  fB            1.00      9 A               2
                        (    -273.453 eV)
    21      21      2.000     -10.006 au  fB            1.00     10 A               2
                        (    -272.289 eV)
    22      22      2.000      -1.143 au  fB            1.00     11 A               2
                        (     -31.102 eV)
    23      23      2.000      -1.076 au  fB            1.00     12 A               2
                        (     -29.269 eV)
    24      24      2.000      -0.982 au  fB            1.00     13 A               2
                        (     -26.721 eV)
    25      25      2.000      -0.893 au  fB            1.00     14 A               2
                        (     -24.305 eV)
    26      26      2.000      -0.869 au  fB            1.00     15 A               2
                        (     -23.646 eV)
    27      27      2.000      -0.855 au  fB            1.00     16 A               2
                        (     -23.271 eV)
    28      28      2.000      -0.737 au  fB            1.00     17 A               2
                        (     -20.056 eV)
    29      29      2.000      -0.689 au  fB            1.00     18 A               2
                        (     -18.739 eV)
    30      30      2.000      -0.575 au  fB            1.00     19 A               2
                        (     -15.657 eV)
    31      31      2.000      -0.557 au  fB            1.00     20 A               2
                        (     -15.145 eV)
    32      32      2.000      -0.522 au  fB            1.00     21 A               2
                        (     -14.213 eV)
    33      33      2.000      -0.516 au  fB            1.00     22 A               2
                        (     -14.054 eV)
    34      34      2.000      -0.503 au  fB            1.00     23 A               2
                        (     -13.688 eV)
    35      35      2.000      -0.481 au  fB            1.00     24 A               2
                        (     -13.093 eV)
    36      36      2.000      -0.472 au  fB            1.00     25 A               2
                        (     -12.840 eV)
    37      37      2.000      -0.444 au  fB            1.00     26 A               2
                        (     -12.070 eV)
    38      38      2.000      -0.435 au  fB            1.00     27 A               2
                        (     -11.847 eV)
    39      39      2.000      -0.401 au  fB            1.00     28 A               2
                        (     -10.918 eV)
    40      40      2.000      -0.363 au  fB            1.00     29 A               2
                        (      -9.886 eV)
    41      41      2.000      -0.356 au  fB            1.00     30 A               2
                        (      -9.678 eV)
    42      42      2.000      -0.344 au  fB            1.00     31 A               2
                        (      -9.364 eV)
    43      43      2.000      -0.340 au  fB            1.00     32 A               2
                        (      -9.263 eV)
    44      44      2.000      -0.330 au  fB            1.00     33 A               2
                        (      -8.990 eV)
    45      45      2.000      -0.299 au  fB            1.00     34 A               2
                        (      -8.123 eV)
    46      46      2.000      -0.295 au  fB            1.00     35 A               2
                        (      -8.032 eV)
    47      47      2.000      -0.278 au  fB            1.00     36 A               2
                        (      -7.556 eV)
    48      48      2.000      -0.266 au  fB            1.00     37 A               2
                        (      -7.248 eV)
    49      49      2.000      -0.249 au  fB            1.00     38 A               2
                        (      -6.770 eV)
    50      50       --        -0.137 au  fB            1.00     39 A               2
                        (      -3.730 eV)
    51      51       --        -0.126 au  fB            1.00     40 A               2
                        (      -3.430 eV)
    52      52       --        -0.067 au  fB            1.00     41 A               2
                        (      -1.833 eV)
    53      53       --        -0.043 au  fB            1.00     42 A               2
                        (      -1.166 eV)
    54      54       --        -0.015 au  fB            1.00     43 A               2
                        (      -0.409 eV)
    55      55       --        -0.006 au  fB            1.00     44 A               2
                        (      -0.173 eV)
    56      56       --         0.014 au  fB            1.00     45 A               2
                        (       0.377 eV)
    57      57       --         0.030 au  fB            1.00     46 A               2
                        (       0.829 eV)
    58      58       --         0.051 au  fB            1.00     47 A               2
                        (       1.385 eV)
    59      59       --         0.058 au  fB            1.00     48 A               2
                        (       1.581 eV)
    60      60       --         0.062 au  fB            1.00     49 A               2
                        (       1.696 eV)
    61      61       --         0.102 au  fB            1.00     50 A               2
                        (       2.776 eV)
    62      62       --         0.120 au  fB            1.00     51 A               2
                        (       3.257 eV)
    63      63       --         0.133 au  fB            1.00     52 A               2
                        (       3.620 eV)
    64      64       --         0.140 au  fB            1.00     53 A               2
                        (       3.820 eV)
    65      65       --         0.163 au  fB            1.00     54 A               2
                        (       4.423 eV)
    66      66       --         0.167 au  fB            1.00     55 A               2
                        (       4.552 eV)
    67      67       --         0.180 au  fB            1.00     56 A               2
                        (       4.901 eV)
    68      68       --         0.190 au  fB            1.00     57 A               2
                        (       5.162 eV)
    69      69       --         0.207 au  fB            1.00     58 A               2
                        (       5.636 eV)
    70      70       --         0.218 au  fB            1.00     59 A               2
                        (       5.925 eV)
    71      71       --         0.225 au  fB            1.00     60 A               2
                        (       6.129 eV)
    72      72       --         0.235 au  fB            1.00     61 A               2
                        (       6.385 eV)
    73      73       --         0.254 au  fB            1.00     62 A               2
                        (       6.913 eV)
    74      74       --         0.258 au  fB            1.00     63 A               2
                        (       7.022 eV)
    75      75       --         0.268 au  fB            1.00     64 A               2
                        (       7.284 eV)
    76      76       --         0.290 au  fB            1.00     65 A               2
                        (       7.899 eV)
    77      77       --         0.313 au  fB            1.00     66 A               2
                        (       8.508 eV)
    78      78       --         0.328 au  fB            1.00     67 A               2
                        (       8.928 eV)
    79      79       --         0.340 au  fB            1.00     68 A               2
                        (       9.265 eV)
    80      80       --         0.355 au  fB            1.00     69 A               2
                        (       9.664 eV)
    81      81       --         0.361 au  fB            1.00     70 A               2
                        (       9.824 eV)
    82      82       --         0.375 au  fB            1.00     71 A               2
                        (      10.195 eV)
    83      83       --         0.401 au  fB            1.00     72 A               2
                        (      10.912 eV)
    84      84       --         0.407 au  fB            1.00     73 A               2
                        (      11.072 eV)
    85      85       --         0.413 au  fB            1.00     74 A               2
                        (      11.242 eV)
    86      86       --         0.418 au  fB            1.00     75 A               2
                        (      11.385 eV)
    87      87       --         0.446 au  fB            1.00     76 A               2
                        (      12.136 eV)
    88      88       --         0.456 au  fB            1.00     77 A               2
                        (      12.414 eV)
    89      89       --         0.476 au  fB            1.00     78 A               2
                        (      12.950 eV)
    90      90       --         0.502 au  fB            1.00     79 A               2
                        (      13.659 eV)
    91      91       --         0.526 au  fB            1.00     80 A               2
                        (      14.326 eV)
    92      92       --         0.541 au  fB            1.00     81 A               2
                        (      14.722 eV)
    93      93       --         0.554 au  fB            1.00     82 A               2
                        (      15.067 eV)
    94      94       --         0.558 au  fB            1.00     83 A               2
                        (      15.197 eV)
    95      95       --         0.586 au  fB            1.00     84 A               2
                        (      15.950 eV)
    96      96       --         0.628 au  fB            1.00     85 A               2
                        (      17.102 eV)
    97      97       --         0.635 au  fB            1.00     86 A               2
                        (      17.285 eV)
    98      98       --         0.655 au  fB            1.00     87 A               2
                        (      17.811 eV)
    99      99       --         0.675 au  fB            1.00     88 A               2
                        (      18.368 eV)
   100     100       --         0.719 au  fB            1.00     89 A               2
                        (      19.576 eV)
   101     101       --         0.742 au  fB            1.00     90 A               2
                        (      20.180 eV)
   102     102       --         0.780 au  fB            1.00     91 A               2
                        (      21.224 eV)
   103     103       --         0.782 au  fB            1.00     92 A               2
                        (      21.290 eV)
   104     104       --         0.812 au  fB            1.00     93 A               2
                        (      22.092 eV)
   105     105       --         0.850 au  fB            1.00     94 A               2
                        (      23.136 eV)
   106     106       --         0.875 au  fB            1.00     95 A               2
                        (      23.820 eV)
   107     107       --         0.906 au  fB            1.00     96 A               2
                        (      24.662 eV)
   108     108       --         0.921 au  fB            1.00     97 A               2
                        (      25.061 eV)
   109     109       --         0.929 au  fB            1.00     98 A               2
                        (      25.268 eV)
   110     110       --         0.970 au  fB            1.00     99 A               2
                        (      26.400 eV)
   111     111       --         0.977 au  fB            1.00    100 A               2
                        (      26.580 eV)
   112     112       --         0.994 au  fB            1.00    101 A               2
                        (      27.057 eV)
   113     113       --         1.031 au  fB            1.00    102 A               2
                        (      28.053 eV)
   114     114       --         1.048 au  fB            1.00    103 A               2
                        (      28.516 eV)
   115     115       --         1.061 au  fB            1.00    104 A               2
                        (      28.876 eV)
   116     116       --         1.076 au  fB            1.00    105 A               2
                        (      29.286 eV)
   117     117       --         1.108 au  fB            1.00    106 A               2
                        (      30.161 eV)
   118     118       --         1.127 au  fB            1.00    107 A               2
                        (      30.677 eV)
   119     119       --         1.152 au  fB            1.00    108 A               2
                        (      31.341 eV)
   120     120       --         1.163 au  fB            1.00    109 A               2
                        (      31.633 eV)
   121     121       --         1.188 au  fB            1.00    110 A               2
                        (      32.316 eV)
   122     122       --         1.198 au  fB            1.00    111 A               2
                        (      32.610 eV)
   123     123       --         1.222 au  fB            1.00    112 A               2
                        (      33.246 eV)
   124     124       --         1.228 au  fB            1.00    113 A               2
                        (      33.419 eV)
   125     125       --         1.242 au  fB            1.00    114 A               2
                        (      33.804 eV)
   126     126       --         1.259 au  fB            1.00    115 A               2
                        (      34.250 eV)
   127     127       --         1.285 au  fB            1.00    116 A               2
                        (      34.966 eV)
   128     128       --         1.293 au  fB            1.00    117 A               2
                        (      35.191 eV)
   129     129       --         1.311 au  fB            1.00    118 A               2
                        (      35.677 eV)
   130     130       --         1.318 au  fB            1.00    119 A               2
                        (      35.852 eV)
   131     131       --         1.354 au  fB            1.00    120 A               2
                        (      36.842 eV)
   132     132       --         1.366 au  fB            1.00    121 A               2
                        (      37.158 eV)
   133     133       --         1.383 au  fB            1.00    122 A               2
                        (      37.626 eV)
   134     134       --         1.421 au  fB            1.00    123 A               2
                        (      38.677 eV)
   135     135       --         1.429 au  fB            1.00    124 A               2
                        (      38.872 eV)
   136     136       --         1.446 au  fB            1.00    125 A               2
                        (      39.361 eV)
   137     137       --         1.459 au  fB            1.00    126 A               2
                        (      39.713 eV)
   138     138       --         1.521 au  fB            1.00    127 A               2
                        (      41.381 eV)
   139     139       --         1.537 au  fB            1.00    128 A               2
                        (      41.817 eV)
   140     140       --         1.549 au  fB            1.00    129 A               2
                        (      42.147 eV)
   141     141       --         1.581 au  fB            1.00    130 A               2
                        (      43.029 eV)
   142     142       --         1.595 au  fB            1.00    131 A               2
                        (      43.400 eV)
   143     143       --         1.606 au  fB            1.00    132 A               2
                        (      43.699 eV)
   144     144       --         1.639 au  fB            1.00    133 A               2
                        (      44.613 eV)
   145     145       --         1.681 au  fB            1.00    134 A               2
                        (      45.743 eV)
   146     146       --         1.709 au  fB            1.00    135 A               2
                        (      46.491 eV)
   147     147       --         1.730 au  fB            1.00    136 A               2
                        (      47.081 eV)
   148     148       --         1.738 au  fB            1.00    137 A               2
                        (      47.286 eV)
   149     149       --         1.775 au  fB            1.00    138 A               2
                        (      48.297 eV)
   150     150       --         1.803 au  fB            1.00    139 A               2
                        (      49.075 eV)
   151     151       --         1.845 au  fB            1.00    140 A               2
                        (      50.201 eV)
   152     152       --         1.894 au  fB            1.00    141 A               2
                        (      51.530 eV)
   153     153       --         1.920 au  fB            1.00    142 A               2
                        (      52.251 eV)
   154     154       --         1.940 au  fB            1.00    143 A               2
                        (      52.783 eV)
   155     155       --         1.947 au  fB            1.00    144 A               2
                        (      52.979 eV)
   156     156       --         1.960 au  fB            1.00    145 A               2
                        (      53.336 eV)
   157     157       --         1.986 au  fB            1.00    146 A               2
                        (      54.028 eV)
   158     158       --         2.011 au  fB            1.00    147 A               2
                        (      54.732 eV)
   159     159       --         2.053 au  fB            1.00    148 A               2
                        (      55.867 eV)
   160     160       --         2.077 au  fB            1.00    149 A               2
                        (      56.514 eV)
   161     161       --         2.094 au  fB            1.00    150 A               2
                        (      56.973 eV)
   162     162       --         2.117 au  fB            1.00    151 A               2
                        (      57.608 eV)
   163     163       --         2.125 au  fB            1.00    152 A               2
                        (      57.827 eV)
   164     164       --         2.159 au  fB            1.00    153 A               2
                        (      58.757 eV)
   165     165       --         2.189 au  fB            1.00    154 A               2
                        (      59.564 eV)
   166     166       --         2.216 au  fB            1.00    155 A               2
                        (      60.300 eV)
   167     167       --         2.249 au  fB            1.00    156 A               2
                        (      61.196 eV)
   168     168       --         2.269 au  fB            1.00    157 A               2
                        (      61.740 eV)
   169     169       --         2.326 au  fB            1.00    158 A               2
                        (      63.281 eV)
   170     170       --         2.369 au  fB            1.00    159 A               2
                        (      64.475 eV)
   171     171       --         2.372 au  fB            1.00    160 A               2
                        (      64.541 eV)
   172     172       --         2.403 au  fB            1.00    161 A               2
                        (      65.392 eV)
   173     173       --         2.410 au  fB            1.00    162 A               2
                        (      65.591 eV)
   174     174       --         2.447 au  fB            1.00    163 A               2
                        (      66.578 eV)
   175     175       --         2.530 au  fB            1.00    164 A               2
                        (      68.837 eV)
   176     176       --         2.561 au  fB            1.00    165 A               2
                        (      69.700 eV)
   177     177       --         2.615 au  fB            1.00    166 A               2
                        (      71.145 eV)
   178     178       --         2.637 au  fB            1.00    167 A               2
                        (      71.769 eV)
   179     179       --         2.657 au  fB            1.00    168 A               2
                        (      72.302 eV)
   180     180       --         2.667 au  fB            1.00    169 A               2
                        (      72.579 eV)
   181     181       --         2.729 au  fB            1.00    170 A               2
                        (      74.248 eV)
   182     182       --         2.758 au  fB            1.00    171 A               2
                        (      75.057 eV)
   183     183       --         2.785 au  fB            1.00    172 A               2
                        (      75.770 eV)
   184     184       --         2.834 au  fB            1.00    173 A               2
                        (      77.105 eV)
   185     185       --         2.838 au  fB            1.00    174 A               2
                        (      77.221 eV)
   186     186       --         2.914 au  fB            1.00    175 A               2
                        (      79.298 eV)
   187     187       --         2.954 au  fB            1.00    176 A               2
                        (      80.377 eV)
   188     188       --         2.968 au  fB            1.00    177 A               2
                        (      80.760 eV)
   189     189       --         2.998 au  fB            1.00    178 A               2
                        (      81.572 eV)
   190     190       --         3.020 au  fB            1.00    179 A               2
                        (      82.192 eV)
   191     191       --         3.059 au  fB            1.00    180 A               2
                        (      83.237 eV)
   192     192       --         3.100 au  fB            1.00    181 A               2
                        (      84.353 eV)
   193     193       --         3.150 au  fB            1.00    182 A               2
                        (      85.714 eV)
   194     194       --         3.152 au  fB            1.00    183 A               2
                        (      85.769 eV)
   195     195       --         3.215 au  fB            1.00    184 A               2
                        (      87.489 eV)
   196     196       --         3.243 au  fB            1.00    185 A               2
                        (      88.239 eV)
   197     197       --         3.265 au  fB            1.00    186 A               2
                        (      88.843 eV)
   198     198       --         3.313 au  fB            1.00    187 A               2
                        (      90.149 eV)
   199     199       --         3.356 au  fB            1.00    188 A               2
                        (      91.316 eV)
   200     200       --         3.377 au  fB            1.00    189 A               2
                        (      91.895 eV)
   201     201       --         3.394 au  fB            1.00    190 A               2
                        (      92.359 eV)
   202     202       --         3.415 au  fB            1.00    191 A               2
                        (      92.935 eV)
   203     203       --         3.426 au  fB            1.00    192 A               2
                        (      93.221 eV)
   204     204       --         3.432 au  fB            1.00    193 A               2
                        (      93.392 eV)
   205     205       --         3.467 au  fB            1.00    194 A               2
                        (      94.350 eV)
   206     206       --         3.488 au  fB            1.00    195 A               2
                        (      94.912 eV)
   207     207       --         3.513 au  fB            1.00    196 A               2
                        (      95.601 eV)
   208     208       --         3.522 au  fB            1.00    197 A               2
                        (      95.846 eV)
   209     209       --         3.530 au  fB            1.00    198 A               2
                        (      96.066 eV)
   210     210       --         3.547 au  fB            1.00    199 A               2
                        (      96.509 eV)
   211     211       --         3.562 au  fB            1.00    200 A               2
                        (      96.914 eV)
   212     212       --         3.587 au  fB            1.00    201 A               2
                        (      97.617 eV)
   213     213       --         3.612 au  fB            1.00    202 A               2
                        (      98.293 eV)
   214     214       --         3.633 au  fB            1.00    203 A               2
                        (      98.863 eV)
   215     215       --         3.640 au  fB            1.00    204 A               2
                        (      99.061 eV)
   216     216       --         3.655 au  fB            1.00    205 A               2
                        (      99.462 eV)
   217     217       --         3.702 au  fB            1.00    206 A               2
                        (     100.742 eV)
   218     218       --         3.727 au  fB            1.00    207 A               2
                        (     101.409 eV)
   219     219       --         3.746 au  fB            1.00    208 A               2
                        (     101.937 eV)
   220     220       --         3.765 au  fB            1.00    209 A               2
                        (     102.443 eV)
   221     221       --         3.777 au  fB            1.00    210 A               2
                        (     102.786 eV)
   222     222       --         3.803 au  fB            1.00    211 A               2
                        (     103.472 eV)
   223     223       --         3.819 au  fB            1.00    212 A               2
                        (     103.913 eV)
   224     224       --         3.839 au  fB            1.00    213 A               2
                        (     104.464 eV)
   225     225       --         3.854 au  fB            1.00    214 A               2
                        (     104.876 eV)
   226     226       --         3.869 au  fB            1.00    215 A               2
                        (     105.287 eV)
   227     227       --         3.897 au  fB            1.00    216 A               2
                        (     106.030 eV)
   228     228       --         3.933 au  fB            1.00    217 A               2
                        (     107.021 eV)
   229     229       --         3.940 au  fB            1.00    218 A               2
                        (     107.211 eV)
   230     230       --         3.971 au  fB            1.00    219 A               2
                        (     108.044 eV)
   231     231       --         4.015 au  fB            1.00    220 A               2
                        (     109.262 eV)
   232     232       --         4.043 au  fB            1.00    221 A               2
                        (     110.024 eV)
   233     233       --         4.051 au  fB            1.00    222 A               2
                        (     110.244 eV)
   234     234       --         4.076 au  fB            1.00    223 A               2
                        (     110.927 eV)
   235     235       --         4.123 au  fB            1.00    224 A               2
                        (     112.189 eV)
   236     236       --         4.137 au  fB            1.00    225 A               2
                        (     112.573 eV)
   237     237       --         4.200 au  fB            1.00    226 A               2
                        (     114.287 eV)
   238     238       --         4.252 au  fB            1.00    227 A               2
                        (     115.704 eV)
   239     239       --         4.279 au  fB            1.00    228 A               2
                        (     116.449 eV)
   240     240       --         4.318 au  fB            1.00    229 A               2
                        (     117.495 eV)
   241     241       --         4.345 au  fB            1.00    230 A               2
                        (     118.221 eV)
   242     242       --         4.361 au  fB            1.00    231 A               2
                        (     118.660 eV)
   243     243       --         4.372 au  fB            1.00    232 A               2
                        (     118.972 eV)
   244     244       --         4.387 au  fB            1.00    233 A               2
                        (     119.390 eV)
   245     245       --         4.424 au  fB            1.00    234 A               2
                        (     120.389 eV)
   246     246       --         4.447 au  fB            1.00    235 A               2
                        (     121.022 eV)
   247     247       --         4.486 au  fB            1.00    236 A               2
                        (     122.060 eV)
   248     248       --         4.524 au  fB            1.00    237 A               2
                        (     123.093 eV)
   249     249       --         4.541 au  fB            1.00    238 A               2
                        (     123.569 eV)
   250     250       --         4.617 au  fB            1.00    239 A               2
                        (     125.633 eV)
   251     251       --         4.629 au  fB            1.00    240 A               2
                        (     125.957 eV)
   252     252       --         4.692 au  fB            1.00    241 A               2
                        (     127.663 eV)
   253     253       --         4.708 au  fB            1.00    242 A               2
                        (     128.114 eV)
   254     254       --         4.777 au  fB            1.00    243 A               2
                        (     129.989 eV)
   255     255       --         4.846 au  fB            1.00    244 A               2
                        (     131.871 eV)
   256     256       --         4.862 au  fB            1.00    245 A               2
                        (     132.289 eV)
   257     257       --         4.892 au  fB            1.00    246 A               2
                        (     133.121 eV)
   258     258       --         4.951 au  fB            1.00    247 A               2
                        (     134.730 eV)
   259     259       --         4.982 au  fB            1.00    248 A               2
                        (     135.558 eV)
   260     260       --         4.993 au  fB            1.00    249 A               2
                        (     135.873 eV)
   261     261       --         5.052 au  fB            1.00    250 A               2
                        (     137.468 eV)
   262     262       --         5.076 au  fB            1.00    251 A               2
                        (     138.126 eV)
   263     263       --         5.097 au  fB            1.00    252 A               2
                        (     138.698 eV)
   264     264       --         5.146 au  fB            1.00    253 A               2
                        (     140.026 eV)
   265     265       --         5.160 au  fB            1.00    254 A               2
                        (     140.409 eV)
   266     266       --         5.204 au  fB            1.00    255 A               2
                        (     141.612 eV)
   267     267       --         5.237 au  fB            1.00    256 A               2
                        (     142.516 eV)
   268     268       --         5.317 au  fB            1.00    257 A               2
                        (     144.678 eV)
   269     269       --         5.388 au  fB            1.00    258 A               2
                        (     146.603 eV)
   270     270       --         5.434 au  fB            1.00    259 A               2
                        (     147.860 eV)
   271     271       --         5.445 au  fB            1.00    260 A               2
                        (     148.161 eV)
   272     272       --         5.485 au  fB            1.00    261 A               2
                        (     149.253 eV)
   273     273       --         5.518 au  fB            1.00    262 A               2
                        (     150.166 eV)
   274     274       --         5.536 au  fB            1.00    263 A               2
                        (     150.632 eV)
   275     275       --         5.628 au  fB            1.00    264 A               2
                        (     153.155 eV)
   276     276       --         5.676 au  fB            1.00    265 A               2
                        (     154.453 eV)
   277     277       --         5.722 au  fB            1.00    266 A               2
                        (     155.696 eV)
   278     278       --         5.807 au  fB            1.00    267 A               2
                        (     158.017 eV)
   279     279       --         5.956 au  fB            1.00    268 A               2
                        (     162.069 eV)
   280     280       --         6.029 au  fB            1.00    269 A               2
                        (     164.059 eV)
   281     281       --         6.101 au  fB            1.00    270 A               2
                        (     166.028 eV)
   282     282       --         6.135 au  fB            1.00    271 A               2
                        (     166.943 eV)
   283     283       --         6.163 au  fB            1.00    272 A               2
                        (     167.717 eV)
   284     284       --         6.268 au  fB            1.00    273 A               2
                        (     170.554 eV)
   285     285       --         6.352 au  fB            1.00    274 A               2
                        (     172.844 eV)
   286     286       --         6.372 au  fB            1.00    275 A               2
                        (     173.384 eV)
   287     287       --         6.419 au  fB            1.00    276 A               2
                        (     174.676 eV)
   288     288       --         6.428 au  fB            1.00    277 A               2
                        (     174.917 eV)
   289     289       --         6.458 au  fB            1.00    278 A               2
                        (     175.741 eV)
   290     290       --         6.550 au  fB            1.00    279 A               2
                        (     178.233 eV)
   291     291       --         6.591 au  fB            1.00    280 A               2
                        (     179.343 eV)
   292     292       --         6.640 au  fB            1.00    281 A               2
                        (     180.679 eV)
   293     293       --         6.848 au  fB            1.00    282 A               2
                        (     186.353 eV)
   294     294       --         6.895 au  fB            1.00    283 A               2
                        (     187.612 eV)
   295     295       --         6.913 au  fB            1.00    284 A               2
                        (     188.113 eV)
   296     296       --         6.975 au  fB            1.00    285 A               2
                        (     189.794 eV)
   297     297       --         7.038 au  fB            1.00    286 A               2
                        (     191.512 eV)
   298     298       --         7.181 au  fB            1.00    287 A               2
                        (     195.413 eV)
   299     299       --         7.274 au  fB            1.00    288 A               2
                        (     197.934 eV)
   300     300       --         7.374 au  fB            1.00    289 A               2
                        (     200.659 eV)
   301     301       --         7.426 au  fB            1.00    290 A               2
                        (     202.078 eV)
   302     302       --         7.508 au  fB            1.00    291 A               2
                        (     204.314 eV)
   303     303       --         7.644 au  fB            1.00    292 A               2
                        (     207.995 eV)
   304     304       --         7.766 au  fB            1.00    293 A               2
                        (     211.332 eV)
   305     305       --         7.831 au  fB            1.00    294 A               2
                        (     213.092 eV)
   306     306       --         8.546 au  fB            1.00    295 A               2
                        (     232.556 eV)
   307     307       --         8.790 au  fB            1.00    296 A               2
                        (     239.200 eV)
   308     308       --         8.896 au  fB            1.00    297 A               2
                        (     242.066 eV)
   309     309       --         8.983 au  fB            1.00    298 A               2
                        (     244.438 eV)
   310     310       --         9.321 au  fB            1.00    299 A               2
                        (     253.636 eV)
   311     311       --         9.727 au  fB            1.00    300 A               2
                        (     264.691 eV)
   312     312       --         9.887 au  fB            1.00    301 A               2
                        (     269.048 eV)
   313     313       --        10.544 au  fB            1.00    302 A               2
                        (     286.923 eV)
   314     314       --        11.233 au  fB            1.00    303 A               2
                        (     305.669 eV)
   315     315       --        15.654 au  fB            1.00    304 A               2
                        (     425.958 eV)
   316     316       --        15.969 au  fB            1.00    305 A               2
                        (     434.534 eV)
   317     317       --        51.455 au  fB            1.00    306 A               2
                        (    1400.156 eV)
   318     318       --        55.208 au  fB            1.00    307 A               2
                        (    1502.289 eV)
   319     319       --        57.535 au  fB            1.00    308 A               2
                        (    1565.620 eV)
   320     320       --        59.305 au  fB            1.00    309 A               2
                        (    1613.782 eV)
   321     321       --        69.714 au  fB            1.00    310 A               2
                        (    1897.022 eV)
   322     322       --        71.169 au  fB            1.00    311 A               2
                        (    1936.610 eV)
   323     323       --        71.449 au  fB            1.00    312 A               2
                        (    1944.232 eV)
   324     324       --        72.476 au  fB            1.00    313 A               2
                        (    1972.166 eV)
   325     325       --       127.817 au  fB            1.00    314 A               2
                        (    3478.069 eV)
   326     326       --       128.789 au  fB            1.00    315 A               2
                        (    3504.529 eV)



 ================================
 (Slater-type)  F U N C T I O N S  ***  (Basis and Fit)  ***
 ================================
  

 Atom Type    1  (H)
 ==============

 Valence Basis Sets:   5
 -----------------------
   1 S    0.690000
   1 S    0.920000
   1 S    1.580000
   2 P    1.250000
   3 D    2.500000

 Atom Type    2  (C)
 ==============

 Valence Basis Sets:  10
 -----------------------
   1 S    7.680000
   1 S    5.000000
   2 S    1.280000
   2 S    2.100000
   2 S    4.600000
   2 P    0.820000
   2 P    1.480000
   2 P    2.940000
   3 D    2.200000
   4 F    3.300000

 Atom Type    3  (H)
 ==============

 Valence Basis Sets:   5
 -----------------------
   1 S    0.690000
   1 S    0.920000
   1 S    1.580000
   2 P    1.250000
   3 D    2.500000

 Atom Type    4  (F)
 ==============

 Valence Basis Sets:  10
 -----------------------
   1 S   10.880000
   1 S    7.700000
   2 S    3.240000
   2 S    1.940000
   2 S    0.740000
   2 P    4.540000
   2 P    2.300000
   2 P    1.240000
   3 D    2.000000
   4 F    3.000000

 Atom Type    5  (N)
 ==============

 Valence Basis Sets:  10
 -----------------------
   1 S    8.740000
   1 S    5.900000
   2 S    5.150000
   2 S    2.500000
   2 S    1.500000
   2 P    3.680000
   2 P    1.880000
   2 P    1.000000
   3 D    2.200000
   4 F    3.300000

 Atom Type    6  (O)
 ==============

 Valence Basis Sets:  10
 -----------------------
   1 S    9.800000
   1 S    6.800000
   2 S    7.580000
   2 S    2.880000
   2 S    1.720000
   2 P    4.080000
   2 P    2.080000
   2 P    1.120000
   3 D    2.000000
   4 F    3.000000


 BAS: List of all Elementary Cartesian Basis Functions
 =====================================================

 The numbering in the list below (to the right of the function characteristics) is referred
 to in print-outs of MO eigenvectors and Mulliken populations in the BAS representation
 (as contrasted to the SFO representation).

 Notes:
 1. The functions are characterized by a polynomial prefactor (powers of x,y,z and r) and
    an exponential decay factor alpha.
 2. Since the basis sets are specific for an atom TYPE, the individual functions occur on
    all atoms of that type.
 3. The word 'Core' in the left margin signals that it is a Core Function (CF) : not a
    degree of freedom in the valence set, but only used to ensure orthogonalization of
    the other valence basis functions on the frozen Core Orbitals.


 (power of) X  Y  Z  R     Alpha  on Atom
            ==========     =====     ==========

 H                                    1
                                  ---------------------------------------------------------------------------
            0  0  0  0     0.690      1
            0  0  0  0     0.920      2
            0  0  0  0     1.580      3
            1  0  0  0     1.250      4
            0  1  0  0     1.250      5
            0  0  1  0     1.250      6
            2  0  0  0     2.500      7
            1  1  0  0     2.500      8
            1  0  1  0     2.500      9
            0  2  0  0     2.500     10
            0  1  1  0     2.500     11
            0  0  2  0     2.500     12

 C                                    2    3    4
                                  ---------------------------------------------------------------------------
            0  0  0  0     7.680     13   43   73
            0  0  0  0     5.000     14   44   74
            0  0  0  1     1.280     15   45   75
            0  0  0  1     2.100     16   46   76
            0  0  0  1     4.600     17   47   77
            1  0  0  0     0.820     18   48   78
            0  1  0  0     0.820     19   49   79
            0  0  1  0     0.820     20   50   80
            1  0  0  0     1.480     21   51   81
            0  1  0  0     1.480     22   52   82
            0  0  1  0     1.480     23   53   83
            1  0  0  0     2.940     24   54   84
            0  1  0  0     2.940     25   55   85
            0  0  1  0     2.940     26   56   86
            2  0  0  0     2.200     27   57   87
            1  1  0  0     2.200     28   58   88
            1  0  1  0     2.200     29   59   89
            0  2  0  0     2.200     30   60   90
            0  1  1  0     2.200     31   61   91
            0  0  2  0     2.200     32   62   92
            3  0  0  0     3.300     33   63   93
            2  1  0  0     3.300     34   64   94
            2  0  1  0     3.300     35   65   95
            1  2  0  0     3.300     36   66   96
            1  1  1  0     3.300     37   67   97
            1  0  2  0     3.300     38   68   98
            0  3  0  0     3.300     39   69   99
            0  2  1  0     3.300     40   70  100
            0  1  2  0     3.300     41   71  101
            0  0  3  0     3.300     42   72  102

 H                                    5    6    7    8    9
                                  ---------------------------------------------------------------------------
            0  0  0  0     0.690    103  115  127  139  151
            0  0  0  0     0.920    104  116  128  140  152
            0  0  0  0     1.580    105  117  129  141  153
            1  0  0  0     1.250    106  118  130  142  154
            0  1  0  0     1.250    107  119  131  143  155
            0  0  1  0     1.250    108  120  132  144  156
            2  0  0  0     2.500    109  121  133  145  157
            1  1  0  0     2.500    110  122  134  146  158
            1  0  1  0     2.500    111  123  135  147  159
            0  2  0  0     2.500    112  124  136  148  160
            0  1  1  0     2.500    113  125  137  149  161
            0  0  2  0     2.500    114  126  138  150  162

 F                                   10
                                  ---------------------------------------------------------------------------
            0  0  0  0    10.880    163
            0  0  0  0     7.700    164
            0  0  0  1     3.240    165
            0  0  0  1     1.940    166
            0  0  0  1     0.740    167
            1  0  0  0     4.540    168
            0  1  0  0     4.540    169
            0  0  1  0     4.540    170
            1  0  0  0     2.300    171
            0  1  0  0     2.300    172
            0  0  1  0     2.300    173
            1  0  0  0     1.240    174
            0  1  0  0     1.240    175
            0  0  1  0     1.240    176
            2  0  0  0     2.000    177
            1  1  0  0     2.000    178
            1  0  1  0     2.000    179
            0  2  0  0     2.000    180
            0  1  1  0     2.000    181
            0  0  2  0     2.000    182
            3  0  0  0     3.000    183
            2  1  0  0     3.000    184
            2  0  1  0     3.000    185
            1  2  0  0     3.000    186
            1  1  1  0     3.000    187
            1  0  2  0     3.000    188
            0  3  0  0     3.000    189
            0  2  1  0     3.000    190
            0  1  2  0     3.000    191
            0  0  3  0     3.000    192

 N                                   11   12   13   14
                                  ---------------------------------------------------------------------------
            0  0  0  0     8.740    193  223  253  283
            0  0  0  0     5.900    194  224  254  284
            0  0  0  1     5.150    195  225  255  285
            0  0  0  1     2.500    196  226  256  286
            0  0  0  1     1.500    197  227  257  287
            1  0  0  0     3.680    198  228  258  288
            0  1  0  0     3.680    199  229  259  289
            0  0  1  0     3.680    200  230  260  290
            1  0  0  0     1.880    201  231  261  291
            0  1  0  0     1.880    202  232  262  292
            0  0  1  0     1.880    203  233  263  293
            1  0  0  0     1.000    204  234  264  294
            0  1  0  0     1.000    205  235  265  295
            0  0  1  0     1.000    206  236  266  296
            2  0  0  0     2.200    207  237  267  297
            1  1  0  0     2.200    208  238  268  298
            1  0  1  0     2.200    209  239  269  299
            0  2  0  0     2.200    210  240  270  300
            0  1  1  0     2.200    211  241  271  301
            0  0  2  0     2.200    212  242  272  302
            3  0  0  0     3.300    213  243  273  303
            2  1  0  0     3.300    214  244  274  304
            2  0  1  0     3.300    215  245  275  305
            1  2  0  0     3.300    216  246  276  306
            1  1  1  0     3.300    217  247  277  307
            1  0  2  0     3.300    218  248  278  308
            0  3  0  0     3.300    219  249  279  309
            0  2  1  0     3.300    220  250  280  310
            0  1  2  0     3.300    221  251  281  311
            0  0  3  0     3.300    222  252  282  312

 O                                   15   16
                                  ---------------------------------------------------------------------------
            0  0  0  0     9.800    313  343
            0  0  0  0     6.800    314  344
            0  0  0  1     7.580    315  345
            0  0  0  1     2.880    316  346
            0  0  0  1     1.720    317  347
            1  0  0  0     4.080    318  348
            0  1  0  0     4.080    319  349
            0  0  1  0     4.080    320  350
            1  0  0  0     2.080    321  351
            0  1  0  0     2.080    322  352
            0  0  1  0     2.080    323  353
            1  0  0  0     1.120    324  354
            0  1  0  0     1.120    325  355
            0  0  1  0     1.120    326  356
            2  0  0  0     2.000    327  357
            1  1  0  0     2.000    328  358
            1  0  1  0     2.000    329  359
            0  2  0  0     2.000    330  360
            0  1  1  0     2.000    331  361
            0  0  2  0     2.000    332  362
            3  0  0  0     3.000    333  363
            2  1  0  0     3.000    334  364
            2  0  1  0     3.000    335  365
            1  2  0  0     3.000    336  366
            1  1  1  0     3.000    337  367
            1  0  2  0     3.000    338  368
            0  3  0  0     3.000    339  369
            0  2  1  0     3.000    340  370
            0  1  2  0     3.000    341  371
            0  0  3  0     3.000    342  372

 Total number of charge fitting functions (nprimf)      1141
 Total number of Cartesian basis functions (naos)        372
 Total number of Cartesian core functions  (ncos)          0

 ***************************************************************************************************



                                              ***********************
                                              *  T E C H N I C A L  *
                                              ***********************
  



 =============================================================
 P A R A L L E L I Z A T I O N  and  V E C T O R I Z A T I O N
 =============================================================
  
 Nr of parallel processes:                                1
 Maximum vector length in NumInt loops:                 128



 =====================
 S C F   U P D A T E S
 =====================
  
 Max. nr. of cycles:                               200
 Convergence criterion:                              0.0000010000
   secondary criterion:                              0.0010000000

 Mix parameter (when DIIS does not apply):           0.2000000000
 Mixed ADIIS+SDIIS will be used                  
    Max number of expansion vectors:                10
    Pure ADIIS when Max([F,P]) is above              0.1000000000
    Pure SDIIS when Max([F,P]) is below              0.0010000000
 Automatic ElectronSmearing (in case of problematic SCF convergence) disabled



 =================
 P R E C I S I O N  ***  (General: NumInt, NeglectFunctionTails, ...)  ***
 =================
  

 NumInt:           Target precision:                 4.0000000000
 -------           Initial precision:                4.0000000000
                   Min. precision (optimization):    4.0000000000

 Neglect Functions:          Basis functions:        0.1000000000E-05
 ------------------          Fit functions:          0.1000000000E-05



 ===========================
 L I N E A R   S C A L I N G
 ===========================
  

 Cut-off radii density fit:                        0.1000000000E-07
 Overlap cut-off criterion AO matrix elements:     0.1000000000E-05
 Cut-offs for Coulomb potential and fitted density:0.1000000000E-07
 Cut-off criterion for Coulomb multipole terms:    0.1000000000E-07
 Progressive Convergence parameter:                 0.000000000    
 ***************************************************************************************************



                                            ***************************
                                            *  C O M P U T A T I O N  *
                                            ***************************
  

 Number of elements of the density matrix on this node (used, total):     69378     69378



 ===========================================
 Numerical Integration : Fuzzy Cells (Becke)
 ===========================================
  
 Becke grid quality: NORMAL         
  
 Lebedev angular grid order:             min:  11 max:  23
 Nr. of radial points:                   min:  46 max:  55

 Total nr. of points:     106001
 Nr. of blocks:              829
 Block length:               128
 Nr. of dummy points:        111


 Test of Precision of the Numerical Integration Grid
 ===================================================

 Integral of the Total Core Density:                   0.00000000000000



 ========================
 Density Fitting (zlmFit)
 ========================
  
 ZlmFit Fit Quality: NORMAL         
  
 Max L-expansion:                        min:   6 max:   7
 Nr. of radial interpolation points:     min:  39 max:  54



 =====
 S C F  ***  ScaSCF  ***
 =====
  
 Initial density matrix is calculated as sum of fragments

 CYCLE    1
 SCF Error: norm([F,P])=      1.251863483152, max([F,P])=      0.634382132538
 orbitals (Q,E):
 ---------------
 A :30...49          ( 2.00    -0.1846)  ( 2.00    -0.1826)  ( 2.00    -0.1577)  ( 2.00    -0.1536)
                     ( 2.00    -0.1410)  ( 2.00    -0.1351)  ( 2.00    -0.1285)  ( 2.00    -0.0970)
                     ( 2.00    -0.0719)  ( 2.00     0.0206)  ( 0.00     0.0232)  ( 0.00     0.0941)
                     ( 0.00     0.1188)  ( 0.00     0.1347)  ( 0.00     0.1476)  ( 0.00     0.1548)
                     ( 0.00     0.1945)  ( 0.00     0.2019)  ( 0.00     0.2119)  ( 0.00     0.2360)

 CYCLE    2
   MIX coefficients:  0.8000  0.2000
 SCF Error: norm([F,P])=      0.820070616927, max([F,P])=      0.209236461961
 orbitals (Q,E):
 ---------------
 A :30...40          ( 2.00    -0.1545)  ( 2.00    -0.1539)  ( 2.00    -0.1521)  ( 2.00    -0.1477)
                     ( 2.00    -0.1270)  ( 2.00    -0.1235)  ( 2.00    -0.1176)  ( 2.00    -0.0983)
                     ( 2.00    -0.0838)  ( 2.00    -0.0039)  ( 0.00     0.0249)

 CYCLE    3
  SDIIS (wt  0.000): -0.0445  1.0445
 A-DIIS (wt  1.000):  0.0000  1.0000
  DIIS coefficients:  0.0000  1.0000
 SCF Error: norm([F,P])=      0.160470910118, max([F,P])=      0.019910884632
 orbitals (Q,E):
 ---------------
 A :30...40          ( 2.00    -0.1598)  ( 2.00    -0.1580)  ( 2.00    -0.1512)  ( 2.00    -0.1392)
                     ( 2.00    -0.1374)  ( 2.00    -0.1278)  ( 2.00    -0.1197)  ( 2.00    -0.1001)
                     ( 2.00    -0.0950)  ( 2.00    -0.0264)  ( 0.00     0.0155)

 CYCLE    4
  SDIIS (wt  0.000):  0.0279  0.6657  0.3064
 A-DIIS (wt  1.000):  0.0000  0.7678  0.2322
  DIIS coefficients:  0.0000  0.7678  0.2322
 SCF Error: norm([F,P])=      0.356398609383, max([F,P])=      0.061463555916
 orbitals (Q,E):
 ---------------
 A :30...40          ( 2.00    -0.1613)  ( 2.00    -0.1571)  ( 2.00    -0.1519)  ( 2.00    -0.1482)
                     ( 2.00    -0.1361)  ( 2.00    -0.1292)  ( 2.00    -0.1193)  ( 2.00    -0.0982)
                     ( 2.00    -0.0920)  ( 2.00    -0.0149)  ( 0.00     0.0203)

 CYCLE    5
  SDIIS (wt  0.812):  0.0132  0.3976  0.1685  0.4207
 A-DIIS (wt  0.188):  0.0000  0.1448  0.0000  0.8552
  DIIS coefficients:  0.0107  0.3500  0.1368  0.5025
 SCF Error: norm([F,P])=      0.095765680086, max([F,P])=      0.019627365209
 orbitals (Q,E):
 ---------------
 A :30...40          ( 2.00    -0.1534)  ( 2.00    -0.1520)  ( 2.00    -0.1487)  ( 2.00    -0.1467)
                     ( 2.00    -0.1282)  ( 2.00    -0.1241)  ( 2.00    -0.1196)  ( 2.00    -0.0967)
                     ( 2.00    -0.0880)  ( 2.00    -0.0076)  ( 0.00     0.0231)

 CYCLE    6
  SDIIS (wt  0.812):  0.0044  0.2480  0.0722  0.3988  0.2766
 A-DIIS (wt  0.188):  0.0000  0.0000  0.0000  0.4199  0.5801
  DIIS coefficients:  0.0036  0.2013  0.0586  0.4028  0.3337
 SCF Error: norm([F,P])=      0.083180427822, max([F,P])=      0.022139042592
 orbitals (Q,E):
 ---------------
 A :30...40          ( 2.00    -0.1561)  ( 2.00    -0.1540)  ( 2.00    -0.1489)  ( 2.00    -0.1460)
                     ( 2.00    -0.1307)  ( 2.00    -0.1249)  ( 2.00    -0.1180)  ( 2.00    -0.0972)
                     ( 2.00    -0.0886)  ( 2.00    -0.0086)  ( 0.00     0.0225)

 CYCLE    7
  SDIIS (wt  0.965):  0.0017  0.0883  0.0229  0.2099  0.2452  0.4321
 A-DIIS (wt  0.035):  0.0000  0.0000  0.0000  0.0000  0.0946  0.9054
  DIIS coefficients:  0.0016  0.0852  0.0221  0.2026  0.2400  0.4485
 SCF Error: norm([F,P])=      0.022031512301, max([F,P])=      0.004432034177
 orbitals (Q,E):
 ---------------
 A :30...40          ( 2.00    -0.1561)  ( 2.00    -0.1544)  ( 2.00    -0.1499)  ( 2.00    -0.1474)
                     ( 2.00    -0.1311)  ( 2.00    -0.1258)  ( 2.00    -0.1191)  ( 2.00    -0.0974)
                     ( 2.00    -0.0890)  ( 2.00    -0.0099)  ( 0.00     0.0222)

 CYCLE    8
  SDIIS (wt  0.996):  0.0010  0.0391  0.0088  0.1071  0.1356  0.3172  0.3912
 A-DIIS (wt  0.004):  0.0000  0.0000  0.0000  0.0000  0.0000  0.0868  0.9132
  DIIS coefficients:  0.0010  0.0390  0.0088  0.1067  0.1351  0.3163  0.3932
 SCF Error: norm([F,P])=      0.005906353085, max([F,P])=      0.001388463038
 orbitals (Q,E):
 ---------------
 A :30...40          ( 2.00    -0.1562)  ( 2.00    -0.1543)  ( 2.00    -0.1497)  ( 2.00    -0.1470)
[...]
                                    3.89%    45 A               0.377  0.00     2 fB
                                    2.70%    53 A               3.820  0.00     2 fB
                                    2.53%    49 A               1.696  0.00     2 fB
                                    2.46%    48 A               1.581  0.00     2 fB
                                    1.64%    47 A               1.385  0.00     2 fB
                                    1.60%    56 A               4.901  0.00     2 fB
                                    1.33%    58 A               5.636  0.00     2 fB
                                    1.18%    54 A               4.423  0.00     2 fB
                                    1.12%    59 A               5.925  0.00     2 fB
      -0.06185         5 A         11.68%    41 A              -1.833  0.00     2 fB
                                    9.62%    35 A              -8.032  2.00     2 fB
                                    8.24%    34 A              -8.123  2.00     2 fB
                                    7.95%    28 A             -10.918  2.00     2 fB
                                    6.05%    48 A               1.581  0.00     2 fB
                                    5.18%    49 A               1.696  0.00     2 fB
                                    4.10%    22 A             -14.054  2.00     2 fB
                                    3.96%    37 A              -7.248  2.00     2 fB
                                    3.32%    45 A               0.377  0.00     2 fB
                                    2.98%    51 A               3.257  0.00     2 fB
                                    2.95%    30 A              -9.678  2.00     2 fB
                                    2.93%    29 A              -9.886  2.00     2 fB
                                    2.82%    36 A              -7.556  2.00     2 fB
                                    2.65%    59 A               5.925  0.00     2 fB
                                    2.47%    44 A              -0.173  0.00     2 fB
                                    2.38%    26 A             -12.070  2.00     2 fB
                                    2.33%    67 A               8.928  0.00     2 fB
                                    1.79%    47 A               1.385  0.00     2 fB
                                    1.71%    40 A              -3.430  0.00     2 fB
                                    1.42%    50 A               2.776  0.00     2 fB
                                    1.40%    38 A              -6.770  2.00     2 fB
                                    1.32%    43 A              -0.409  0.00     2 fB
       0.06185       322 A         12.41%    41 A              -1.833  0.00     2 fB
                                    9.60%    35 A              -8.032  2.00     2 fB
                                    7.87%    34 A              -8.123  2.00     2 fB
                                    7.83%    28 A             -10.918  2.00     2 fB
                                    6.44%    48 A               1.581  0.00     2 fB
                                    5.51%    49 A               1.696  0.00     2 fB
                                    3.78%    37 A              -7.248  2.00     2 fB
                                    3.56%    30 A              -9.678  2.00     2 fB
                                    3.50%    45 A               0.377  0.00     2 fB
                                    3.18%    51 A               3.257  0.00     2 fB
                                    3.06%    29 A              -9.886  2.00     2 fB
                                    2.82%    59 A               5.925  0.00     2 fB
                                    2.72%    36 A              -7.556  2.00     2 fB
                                    2.63%    44 A              -0.173  0.00     2 fB
                                    2.56%    22 A             -14.054  2.00     2 fB
                                    2.49%    67 A               8.928  0.00     2 fB
                                    1.92%    47 A               1.385  0.00     2 fB
                                    1.82%    40 A              -3.430  0.00     2 fB
                                    1.57%    26 A             -12.070  2.00     2 fB
                                    1.51%    50 A               2.776  0.00     2 fB
                                    1.39%    43 A              -0.409  0.00     2 fB
                                    1.17%    38 A              -6.770  2.00     2 fB
      -0.06138         6 A         28.24%    36 A              -7.556  2.00     2 fB
                                   12.83%    49 A               1.696  0.00     2 fB
                                    5.99%    44 A              -0.173  0.00     2 fB
                                    5.15%    28 A             -10.918  2.00     2 fB
                                    4.94%    54 A               4.423  0.00     2 fB
                                    4.84%    53 A               3.820  0.00     2 fB
                                    3.95%    32 A              -9.263  2.00     2 fB
                                    3.58%    38 A              -6.770  2.00     2 fB
                                    3.02%    63 A               7.022  0.00     2 fB
                                    2.73%    23 A             -13.688  2.00     2 fB
                                    2.14%    30 A              -9.678  2.00     2 fB
                                    1.79%    46 A               0.829  0.00     2 fB
                                    1.59%    41 A              -1.833  0.00     2 fB
                                    1.54%    34 A              -8.123  2.00     2 fB
                                    1.49%    76 A              12.136  0.00     2 fB
                                    1.02%    24 A             -13.093  2.00     2 fB
       0.06138       321 A         26.36%    36 A              -7.556  2.00     2 fB
                                   13.65%    49 A               1.696  0.00     2 fB
                                    6.37%    44 A              -0.173  0.00     2 fB
                                    5.26%    54 A               4.423  0.00     2 fB
                                    5.14%    53 A               3.820  0.00     2 fB
                                    3.89%    32 A              -9.263  2.00     2 fB
                                    3.85%    28 A             -10.918  2.00     2 fB
                                    3.21%    63 A               7.022  0.00     2 fB
                                    3.14%    38 A              -6.770  2.00     2 fB
                                    2.49%    23 A             -13.688  2.00     2 fB
                                    1.90%    46 A               0.829  0.00     2 fB
                                    1.69%    41 A              -1.833  0.00     2 fB
                                    1.64%    30 A              -9.678  2.00     2 fB
                                    1.58%    76 A              12.136  0.00     2 fB
                                    1.43%    34 A              -8.123  2.00     2 fB
                                    1.05%    43 A              -0.409  0.00     2 fB
      -0.05154         7 A         31.12%    27 A             -11.847  2.00     2 fB
                                   16.65%    43 A              -0.409  0.00     2 fB
                                    8.92%    32 A              -9.263  2.00     2 fB
                                    4.47%    50 A               2.776  0.00     2 fB
                                    4.18%    46 A               0.829  0.00     2 fB
                                    3.56%    55 A               4.552  0.00     2 fB
                                    2.50%    33 A              -8.990  2.00     2 fB
                                    2.00%    49 A               1.696  0.00     2 fB
                                    1.95%    61 A               6.385  0.00     2 fB
                                    1.88%    31 A              -9.364  2.00     2 fB
                                    1.70%    59 A               5.925  0.00     2 fB
                                    1.69%    58 A               5.636  0.00     2 fB
                                    1.34%    29 A              -9.886  2.00     2 fB
                                    1.08%    52 A               3.620  0.00     2 fB
                                    1.04%    23 A             -13.688  2.00     2 fB
       0.05154       320 A         30.64%    27 A             -11.847  2.00     2 fB
                                   17.42%    43 A              -0.409  0.00     2 fB
                                    7.89%    32 A              -9.263  2.00     2 fB
                                    4.70%    50 A               2.776  0.00     2 fB
                                    4.44%    46 A               0.829  0.00     2 fB
                                    3.66%    55 A               4.552  0.00     2 fB
                                    2.12%    31 A              -9.364  2.00     2 fB
                                    2.11%    49 A               1.696  0.00     2 fB
                                    2.07%    61 A               6.385  0.00     2 fB
                                    1.80%    58 A               5.636  0.00     2 fB
                                    1.79%    59 A               5.925  0.00     2 fB
                                    1.78%    33 A              -8.990  2.00     2 fB
                                    1.12%    52 A               3.620  0.00     2 fB
                                    1.10%    20 A             -15.145  2.00     2 fB
 Mulliken charges used for AMS results%charges...


    =====================
     CALCULATION RESULTS
    =====================

Energy (hartree)            -0.07478408


--------------
Atomic charges
--------------
  Index   Atom    Charge
      1      H   -0.5305
      2      C    0.4348
      3      H   -0.1091
      4      F   -0.5226
      5      C    0.4929
      6      C    0.1415
      7      N   -0.3834
      8      N   -0.0451
      9      H   -0.0105
     10      H   -0.0585
     11      N    0.5529
     12      O   -0.4117
     13      O   -0.4162
     14      N   -0.0433
     15      H   -0.0845
     16      H   -0.0068


Dipole moment vector    (Debye):    -3.63646129    0.34894653    1.34500479
              magnitude (Debye):     3.89289767


-----------------------
Molecular orbitals info
-----------------------
n orbitals:              326
n spin:                    1

Note: only printing virtual orbitals with
      energy smaller than HOMO + 100. eV

HOMO (eV):              -0.2638
LUMO (eV):               0.6038
HOMO-LUMO gap (eV):      0.8676

   Index   Energy (eV)    Occupation
     205       99.6794         0.000       
     204       99.3441         0.000       
     203       99.1143         0.000       
     202       98.4035         0.000       
     201       97.9881         0.000       
     200       97.2166         0.000       
     199       96.5605         0.000       
     198       96.4054         0.000       
     197       95.5512         0.000       
     196       94.8033         0.000       
     195       94.3286         0.000       
     194       93.6854         0.000       
     193       93.0889         0.000       
     192       91.6408         0.000       
     191       90.7592         0.000       
     190       89.7951         0.000       
     189       89.5695         0.000       
     188       88.7130         0.000       
     187       88.3168         0.000       
     186       86.9286         0.000       
     185       86.1297         0.000       
     184       85.9578         0.000       
     183       84.0533         0.000       
     182       83.7237         0.000       
     181       83.5525         0.000       
     180       81.3436         0.000       
     179       80.6707         0.000       
     178       80.1950         0.000       
     177       78.9507         0.000       
     176       77.8910         0.000       
     175       77.6007         0.000       
     174       76.6302         0.000       
     173       76.4848         0.000       
     172       75.9209         0.000       
     171       75.1064         0.000       
     170       74.2438         0.000       
     169       72.7943         0.000       
     168       71.8697         0.000       
     167       70.7344         0.000       
     166       70.2640         0.000       
     165       69.3718         0.000       
     164       68.5314         0.000       
     163       68.0432         0.000       
     162       66.6430         0.000       
     161       65.8541         0.000       
     160       64.7972         0.000       
     159       64.5117         0.000       
     158       63.4159         0.000       
     157       62.7301         0.000       
     156       62.2987         0.000       
     155       61.8202         0.000       
     154       60.8509         0.000       
     153       60.3629         0.000       
     152       59.7891         0.000       
     151       59.0720         0.000       
     150       57.9200         0.000       
     149       57.4045         0.000       
     148       56.9269         0.000       
     147       56.6395         0.000       
     146       56.3582         0.000       
     145       55.1845         0.000       
     144       54.6699         0.000       
     143       54.0321         0.000       
     142       53.0785         0.000       
     141       52.2631         0.000       
     140       51.5621         0.000       
     139       51.5077         0.000       
     138       50.5782         0.000       
     137       49.3564         0.000       
     136       48.9150         0.000       
     135       48.1585         0.000       
     134       47.7191         0.000       
     133       46.4811         0.000       
     132       46.2864         0.000       
     131       46.0902         0.000       
     130       44.7933         0.000       
     129       44.0000         0.000       
     128       43.8356         0.000       
     127       43.3713         0.000       
     126       42.8181         0.000       
     125       42.3089         0.000       
     124       41.8927         0.000       
     123       41.1259         0.000       
     122       40.2903         0.000       
     121       39.9959         0.000       
     120       39.6879         0.000       
     119       39.3249         0.000       
     118       38.6209         0.000       
     117       38.1402         0.000       
     116       37.9739         0.000       
     115       37.6604         0.000       
     114       37.2066         0.000       
     113       36.2859         0.000       
     112       36.1141         0.000       
     111       35.7182         0.000       
     110       35.4646         0.000       
     109       35.0010         0.000       
     108       33.9000         0.000       
     107       33.7041         0.000       
     106       32.9720         0.000       
     105       31.6131         0.000       
     104       31.3391         0.000       
     103       30.9052         0.000       
     102       30.4118         0.000       
     101       30.1561         0.000       
     100       28.8679         0.000       
      99       28.5082         0.000       
      98       28.1081         0.000       
      97       27.6347         0.000       
      96       27.4119         0.000       
      95       26.7783         0.000       
      94       26.3763         0.000       
      93       25.5382         0.000       
      92       24.3168         0.000       
      91       24.0365         0.000       
      90       23.2798         0.000       
      89       22.7212         0.000       
      88       21.6188         0.000       
      87       20.7267         0.000       
      86       20.4181         0.000       
      85       20.1814         0.000       
      84       19.3679         0.000       
      83       18.8596         0.000       
      82       18.4297         0.000       
      81       18.0930         0.000       
      80       17.2622         0.000       
      79       17.0376         0.000       
      78       16.8396         0.000       
      77       16.5600         0.000       
      76       15.9240         0.000       
      75       15.2979         0.000       
      74       14.8739         0.000       
      73       14.8312         0.000       
      72       14.5905         0.000       
      71       13.7533         0.000       
      70       13.7086         0.000       
      69       13.1695         0.000       
      68       12.9867         0.000       
      67       12.2704         0.000       
      66       12.0983         0.000       
      65       11.9532         0.000       
      64       11.5555         0.000       
      63       11.2655         0.000       
      62       10.4873         0.000       
      61       10.1477         0.000       
      60       10.0588         0.000       
      59        9.8804         0.000       
      58        9.5204         0.000       
      57        9.1538         0.000       
      56        8.7038         0.000       
      55        8.5477         0.000       
      54        8.4435         0.000       
      53        8.0814         0.000       
      52        7.6288         0.000       
      51        6.7348         0.000       
      50        6.3228         0.000       
      49        6.1885         0.000       
      48        5.6077         0.000       
      47        4.9776         0.000       
      46        4.9265         0.000       
      45        4.3987         0.000       
      44        3.9498         0.000       
      43        3.4301         0.000       
      42        3.0266         0.000       
      41        2.5043         0.000       
      40        0.6038         0.000 < LUMO
      39       -0.2638         2.000 < HOMO
      38       -2.4203         2.000       
      37       -2.6511         2.000       
      36       -3.2367         2.000       
      35       -3.4196         2.000       
      34       -3.5653         2.000       
      33       -4.0023         2.000       
      32       -4.0734         2.000       
      31       -4.1989         2.000       
      30       -4.2508         2.000       
      29       -4.4648         2.000       
      28       -5.8297         2.000       
      27       -6.8109         2.000       
      26       -7.3728         2.000       
      25       -8.5545         2.000       
      24       -8.8484         2.000       
      23       -9.0594         2.000       
      22       -9.3001         2.000       
      21       -9.6980         2.000       
      20      -10.3426         2.000       
      19      -11.0838         2.000       
      18      -13.5831         2.000       
      17      -15.3611         2.000       
      16      -17.4678         2.000       
      15      -18.6124         2.000       
      14      -19.4746         2.000       
      13      -22.7322         2.000       
      12      -23.7495         2.000       
      11      -27.0925         2.000       
      10     -266.7073         2.000       
       9     -268.6331         2.000       
       8     -269.6019         2.000       
       7     -376.7246         2.000       
       6     -377.5819         2.000       
       5     -378.0332         2.000       
       4     -383.7562         2.000       
       3     -508.8226         2.000       
       2     -508.8483         2.000       
       1     -655.6809         2.000       

AMS application finished. Exiting.
NORMAL TERMINATION
     Total cpu time:     108.72
  Total system time:       0.40
 Total elapsed time:     109.40
NORMAL TERMINATION
