
 *******************************************************************************
 *                                                                             *
 *  --------------------------------                                           *
 *   Amsterdam Modeling Suite (AMS)              2026.103                      *
 *  --------------------------------                                           *
 *                                               r260501 2026-05-01 873454b5   *
 *                                                                             *
 *                                                                             *
 *                              =================                              *
 *                              |               |                              *
 *                              |     A M S     |                              *
 *                              |               |                              *
 *                              =================                              *
 *                                                                             *
 *                                                                             *
 *   Online information and documentation:  https://www.scm.com/support/       *
 *   E-mail:  support@scm.com   info@scm.com                                   *
 *                                                                             *
 *   Scientific publications using AMS results must be properly referenced     *
 *   See the User Manuals (or the web site) for recommended citations          *
 *   The terms and conditions of the End User License Agreement apply to       *
 *   the use of AMS, https://www.scm.com/license-terms/                        *
 *                                                                             *
 **********************  x86_64_linux_intel / intelmpi  ************************
 
 Licensed to: Jong-June Jeon / University of Seoul 2026-05-13 16:10:32
 SCM User ID: u30731
  
 AMS 2026.103  RunTime: May31-2026 00:03:53  ShM Nodes: 1  Procs: 1

 AMS jobname: c3_eda
 AMS jobid  : 858836420

 Start   directory: /gpfs/home1/yeseo1ee/projects/eda-asm-prediction/adf_outputs/batch_001/dipolar_002310/
 Results directory: /gpfs/home1/yeseo1ee/projects/eda-asm-prediction/adf_outputs/batch_001/dipolar_002310/c3_eda.results/
 Scratch directory: /tmp/amstmp_c3_eda_kid0.858836420/

 RNG seed: 1520354632 1930919093 363855485 -1473977814 590211819 -392007845 -931233649 -657722546



                      ************************************************************************
                      *  ADF 2026.103  RunTime: May31-2026 00:03:54  ShM Nodes: 1  Procs: 1  *
                      ************************************************************************
  

       ****************************
       * SINGLE POINT CALCULATION *
       ****************************

--------
Geometry
--------
Formula: C22H26F5NO2
Atoms
  Index Symbol   x (angstrom)   y (angstrom)   z (angstrom)
      1      C     0.71655000     0.05166000     0.08894000 adf.f=fA
      2      C    -0.59766000     0.04666000    -0.55569000 adf.f=fA
      3      C    -1.78774000     0.51079000     0.04514000 adf.f=fA
      4      C    -2.97983000     0.55666000    -0.67551000 adf.f=fA
      5      C    -3.01789000     0.14336000    -2.01250000 adf.f=fA
      6      C    -1.84505000    -0.30730000    -2.62651000 adf.f=fA
      7      C    -0.64973000    -0.34730000    -1.90897000 adf.f=fA
      8      N     0.98298000    -0.34125000     1.34661000 adf.f=fA
      9      C    -0.11481000    -0.79504000     2.21583000 adf.f=fA
     10      C     2.21872000    -0.15615000     1.95129000 adf.f=fA
     11      C     2.34142000    -0.54540000     3.40246000 adf.f=fA
     12      C     3.42631000     0.03056000     1.16354000 adf.f=fA
     13      C     4.74069000     0.19712000     1.90654000 adf.f=fA
     14      O     3.46044000     0.05602000    -0.08296000 adf.f=fA
     15      H     1.58831000     0.11163000    -0.54973000 adf.f=fA
     16      H    -1.77181000     0.89025000     1.06624000 adf.f=fA
     17      H    -3.88564000     0.93202000    -0.19342000 adf.f=fA
     18      H    -3.95417000     0.18221000    -2.57406000 adf.f=fA
     19      H    -1.86011000    -0.62480000    -3.67185000 adf.f=fA
     20      H     0.26611000    -0.68521000    -2.39809000 adf.f=fA
     21      H     0.23642000    -1.61712000     2.84591000 adf.f=fA
     22      H    -0.46918000     0.02490000     2.85623000 adf.f=fA
     23      H    -0.93791000    -1.16406000     1.60078000 adf.f=fA
     24      H     1.55706000    -0.09986000     4.02695000 adf.f=fA
     25      H     3.29704000    -0.20785000     3.80853000 adf.f=fA
     26      H     2.29797000    -1.64187000     3.53620000 adf.f=fA
     27      H     4.68701000     0.98465000     2.67079000 adf.f=fA
     28      H     5.51263000     0.45890000     1.17110000 adf.f=fA
     29      H     5.03452000    -0.73842000     2.40951000 adf.f=fA
     30      C    -1.10393000     3.96143000    -1.67773000 adf.f=fB
     31      O    -0.38797000     3.11609000    -0.78706000 adf.f=fB
     32      C     0.98718000     3.34152000    -0.55720000 adf.f=fB
     33      C     1.81079000     2.95906000    -1.82142000 adf.f=fB
     34      F     3.12094000     2.86876000    -1.53915000 adf.f=fB
     35      F     1.42649000     1.78523000    -2.34166000 adf.f=fB
     36      F     1.68470000     3.87633000    -2.80099000 adf.f=fB
     37      C     1.32793000     4.80212000    -0.17939000 adf.f=fB
     38      C     0.64370000     5.29696000     1.10797000 adf.f=fB
     39      C     1.54016000     5.43716000     2.35346000 adf.f=fB
     40      C     1.69053000     4.23832000     3.29495000 adf.f=fB
     41      C     2.53635000     3.07094000     2.80866000 adf.f=fB
     42      F     2.76145000     2.24407000     3.88842000 adf.f=fB
     43      F     3.79558000     3.52257000     2.45163000 adf.f=fB
     44      C     1.95211000     2.35468000     1.66380000 adf.f=fB
     45      C     1.39816000     2.46288000     0.56486000 adf.f=fB
     46      H    -2.13482000     3.58110000    -1.67839000 adf.f=fB
     47      H    -0.71393000     3.91671000    -2.70653000 adf.f=fB
     48      H    -1.11528000     5.01048000    -1.34020000 adf.f=fB
     49      H     2.42172000     4.86517000    -0.08153000 adf.f=fB
     50      H     1.05652000     5.44656000    -1.02695000 adf.f=fB
     51      H     0.23352000     6.29509000     0.89336000 adf.f=fB
     52      H    -0.22813000     4.66265000     1.33848000 adf.f=fB
     53      H     2.54143000     5.78496000     2.04941000 adf.f=fB
     54      H     1.12067000     6.24365000     2.97496000 adf.f=fB
     55      H     2.17301000     4.57579000     4.22651000 adf.f=fB
     56      H     0.70459000     3.83022000     3.56670000 adf.f=fB

Total System Charge              0.00000


----------------
ADF Engine Input
----------------
 
   Basis
     Type TZ2P
     Core None
   End
   XC
     GGA BLYP
     Dispersion GRIMME3 BJDAMP
   End
   Symmetry NOSYM
   NumericalQuality Normal
   Unrestricted No
   SCF
     Iterations 200
     Converge 1.0e-6
   End
   fragments
     fA c1_fragA_ts.results/adf.rkf
     fB c2_fragB_ts.results/adf.rkf
   end
   etsnocv
     enocv 0.05
     ekmin 0.5
   end
   print etslowdin
   Save TAPE21
 

 Title: *** (NO TITLE) ***

 *** adf ***



 ===========================
 A T T A C H E D   F I L E S
 ===========================
  



 ===============================
 M O D E L   P A R A M E T E R S
 ===============================
  
 DENSITY FUNCTIONAL POTENTIAL (scf)
    LDA:                               Exchange only                           == Not Default ==
    Gradient Corrections:              Becke88 LYP                             == Not Default ==

 SPIN  (restricted / unrestr.)
    Molecule:                          Restricted                               
    Fragments:                         Restricted                               

 OTHER ASPECTS
    Relativistic Corrections:          scalar (ZORA,MAPA)                       

    Nuclear Charge Density Model:      Point Charge Nuclei                      
    Core Treatment:                    Frozen Orbital(s)                        

    Hyperfine or Zeeman Interaction:   ---                                      

 Settings for Grimme D3 dispersion correction

      damping                        BJ
      s6                          1.000
      s8                          2.700
      a1                          0.430
      a2                          4.236

 Other (technical) parameters

      alpha                      14.000
      version                         4
 


 Fragment File(s)
 ----------------
 fA:
         file : c1_fragA_ts.results/adf.rkf
         jobid: 903318031
         title: *** adf ***
 fB:
         file : c2_fragB_ts.results/adf.rkf
         jobid: 2081300034
         title: *** adf ***



 ===============
 G E O M E T R Y  ***  3D  Molecule  ***
 ===============
  

 ATOMS
 =====                            X Y Z                    CHARGE
                                (Angstrom)             Nucl     +Core       At.Mass
                       --------------------------    ----------------       -------
    1  C               0.7166    0.0517    0.0889      6.00      6.00       12.0000
    2  C              -0.5977    0.0467   -0.5557      6.00      6.00       12.0000
    3  C              -1.7877    0.5108    0.0451      6.00      6.00       12.0000
    4  C              -2.9798    0.5567   -0.6755      6.00      6.00       12.0000
    5  C              -3.0179    0.1434   -2.0125      6.00      6.00       12.0000
    6  C              -1.8450   -0.3073   -2.6265      6.00      6.00       12.0000
    7  C              -0.6497   -0.3473   -1.9090      6.00      6.00       12.0000
    8  N               0.9830   -0.3412    1.3466      7.00      7.00       14.0031
    9  C              -0.1148   -0.7950    2.2158      6.00      6.00       12.0000
   10  C               2.2187   -0.1561    1.9513      6.00      6.00       12.0000
   11  C               2.3414   -0.5454    3.4025      6.00      6.00       12.0000
   12  C               3.4263    0.0306    1.1635      6.00      6.00       12.0000
   13  C               4.7407    0.1971    1.9065      6.00      6.00       12.0000
   14  O               3.4604    0.0560   -0.0830      8.00      8.00       15.9949
   15  H               1.5883    0.1116   -0.5497      1.00      1.00        1.0078
   16  H              -1.7718    0.8902    1.0662      1.00      1.00        1.0078
   17  H              -3.8856    0.9320   -0.1934      1.00      1.00        1.0078
   18  H              -3.9542    0.1822   -2.5741      1.00      1.00        1.0078
   19  H              -1.8601   -0.6248   -3.6718      1.00      1.00        1.0078
   20  H               0.2661   -0.6852   -2.3981      1.00      1.00        1.0078
   21  H               0.2364   -1.6171    2.8459      1.00      1.00        1.0078
   22  H              -0.4692    0.0249    2.8562      1.00      1.00        1.0078
   23  H              -0.9379   -1.1641    1.6008      1.00      1.00        1.0078
   24  H               1.5571   -0.0999    4.0270      1.00      1.00        1.0078
   25  H               3.2970   -0.2079    3.8085      1.00      1.00        1.0078
   26  H               2.2980   -1.6419    3.5362      1.00      1.00        1.0078
   27  H               4.6870    0.9847    2.6708      1.00      1.00        1.0078
   28  H               5.5126    0.4589    1.1711      1.00      1.00        1.0078
   29  H               5.0345   -0.7384    2.4095      1.00      1.00        1.0078
   30  C              -1.1039    3.9614   -1.6777      6.00      6.00       12.0000
   31  O              -0.3880    3.1161   -0.7871      8.00      8.00       15.9949
   32  C               0.9872    3.3415   -0.5572      6.00      6.00       12.0000
   33  C               1.8108    2.9591   -1.8214      6.00      6.00       12.0000
   34  F               3.1209    2.8688   -1.5392      9.00      9.00       18.9984
   35  F               1.4265    1.7852   -2.3417      9.00      9.00       18.9984
   36  F               1.6847    3.8763   -2.8010      9.00      9.00       18.9984
   37  C               1.3279    4.8021   -0.1794      6.00      6.00       12.0000
   38  C               0.6437    5.2970    1.1080      6.00      6.00       12.0000
   39  C               1.5402    5.4372    2.3535      6.00      6.00       12.0000
   40  C               1.6905    4.2383    3.2950      6.00      6.00       12.0000
   41  C               2.5364    3.0709    2.8087      6.00      6.00       12.0000
   42  F               2.7614    2.2441    3.8884      9.00      9.00       18.9984
   43  F               3.7956    3.5226    2.4516      9.00      9.00       18.9984
   44  C               1.9521    2.3547    1.6638      6.00      6.00       12.0000
   45  C               1.3982    2.4629    0.5649      6.00      6.00       12.0000
   46  H              -2.1348    3.5811   -1.6784      1.00      1.00        1.0078
   47  H              -0.7139    3.9167   -2.7065      1.00      1.00        1.0078
   48  H              -1.1153    5.0105   -1.3402      1.00      1.00        1.0078
   49  H               2.4217    4.8652   -0.0815      1.00      1.00        1.0078
   50  H               1.0565    5.4466   -1.0270      1.00      1.00        1.0078
   51  H               0.2335    6.2951    0.8934      1.00      1.00        1.0078
   52  H              -0.2281    4.6627    1.3385      1.00      1.00        1.0078
   53  H               2.5414    5.7850    2.0494      1.00      1.00        1.0078
   54  H               1.1207    6.2436    2.9750      1.00      1.00        1.0078
   55  H               2.1730    4.5758    4.2265      1.00      1.00        1.0078
   56  H               0.7046    3.8302    3.5667      1.00      1.00        1.0078


 FRAGMENTS
 =========                                     Atoms in this Fragment     Cart. coord.s (Angstrom)
                                               -------------------------------------------------------
    1  fA                                                1  C            0.7166    0.0517    0.0889
                                                         2  C           -0.5977    0.0467   -0.5557
                                                         3  C           -1.7877    0.5108    0.0451
                                                         4  C           -2.9798    0.5567   -0.6755
                                                         5  C           -3.0179    0.1434   -2.0125
                                                         6  C           -1.8450   -0.3073   -2.6265
                                                         7  C           -0.6497   -0.3473   -1.9090
                                                         9  C           -0.1148   -0.7950    2.2158
                                                        10  C            2.2187   -0.1561    1.9513
                                                        11  C            2.3414   -0.5454    3.4025
                                                        12  C            3.4263    0.0306    1.1635
                                                        13  C            4.7407    0.1971    1.9065
                                                         8  N            0.9830   -0.3412    1.3466
                                                        14  O            3.4604    0.0560   -0.0830
                                                        15  H            1.5883    0.1116   -0.5497
                                                        16  H           -1.7718    0.8902    1.0662
                                                        17  H           -3.8856    0.9320   -0.1934
                                                        18  H           -3.9542    0.1822   -2.5741
                                                        19  H           -1.8601   -0.6248   -3.6718
                                                        20  H            0.2661   -0.6852   -2.3981
                                                        21  H            0.2364   -1.6171    2.8459
                                                        22  H           -0.4692    0.0249    2.8562
                                                        23  H           -0.9379   -1.1641    1.6008
                                                        24  H            1.5571   -0.0999    4.0270
                                                        25  H            3.2970   -0.2079    3.8085
                                                        26  H            2.2980   -1.6419    3.5362
                                                        27  H            4.6870    0.9847    2.6708
                                                        28  H            5.5126    0.4589    1.1711
                                                        29  H            5.0345   -0.7384    2.4095
    2  fB                                               30  C           -1.1039    3.9614   -1.6777
                                                        32  C            0.9872    3.3415   -0.5572
                                                        33  C            1.8108    2.9591   -1.8214
                                                        37  C            1.3279    4.8021   -0.1794
                                                        38  C            0.6437    5.2970    1.1080
                                                        39  C            1.5402    5.4372    2.3535
                                                        40  C            1.6905    4.2383    3.2950
                                                        41  C            2.5364    3.0709    2.8087
                                                        44  C            1.9521    2.3547    1.6638
                                                        45  C            1.3982    2.4629    0.5649
                                                        31  O           -0.3880    3.1161   -0.7871
                                                        34  F            3.1209    2.8688   -1.5392
                                                        35  F            1.4265    1.7852   -2.3417
                                                        36  F            1.6847    3.8763   -2.8010
                                                        42  F            2.7614    2.2441    3.8884
                                                        43  F            3.7956    3.5226    2.4516
                                                        46  H           -2.1348    3.5811   -1.6784
                                                        47  H           -0.7139    3.9167   -2.7065
                                                        48  H           -1.1153    5.0105   -1.3402
                                                        49  H            2.4217    4.8652   -0.0815
                                                        50  H            1.0565    5.4466   -1.0270
                                                        51  H            0.2335    6.2951    0.8934
                                                        52  H           -0.2281    4.6627    1.3385
                                                        53  H            2.5414    5.7850    2.0494
                                                        54  H            1.1207    6.2436    2.9750
                                                        55  H            2.1730    4.5758    4.2265
                                                        56  H            0.7046    3.8302    3.5667



 =====================================
 S Y M M E T R Y ,   E L E C T R O N S
 =====================================
  
 Symmetry: NOSYM

 Irreducible Representations, including subspecies
 -------------------------------------------------
 A


 Configuration of Valence Electrons
 ==================================
 ( determined in the SCF procedure )

 Total:   226

 Net Charge: 0 (Nuclei minus Electrons)

 Aufbau principle for MO occupations will be applied through SCF cycle no.     100
 Thereafter, the program will assign electrons to MOs that are spatially
 similar to the occupied MOs in a "reference" cycle ("KeepOrbitals").
 The reference cycle is always the PREVIOUS cycle: it will evolve with
 the SCF procedure.
 ***************************************************************************************************



                                      ****************************************
                                      *  B U I L D : (Fragments, Functions)  *
                                      ****************************************
  

 The individual fragments are copies of the corresponding 'Master' fragments defined on the fragment files.
 However, they may have been rotated (and translated) with respect to the Master. The local coordinate axes
 of each fragment (which define for instance the spatial orientation in the current molecule of a fragment
 P:x orbital) are not necessarily those of the molecule.
 The local frame (if different from the molecular one) is printed to enable an interpretation of the expan-
 sion of an MO in Fragment Orbitals.



                                              ************************
                                              *  Fragment Type : fA  *
                                              ************************
  

 Fragment no.    1   (in the list of all fragments)
 -----------------
 The local coordinate frame is identical to the molecular frame.

 Check Atomic Coordinates:

                  Master (on file)          After Computed Tranformation               As specified on Input
           ----------------------------     ----------------------------     ---------------------------------
     1)     0.71655   0.05166   0.08894      0.71655   0.05166   0.08894       1   0.71655   0.05166   0.08894
     2)    -0.59766   0.04666  -0.55569     -0.59766   0.04666  -0.55569       2  -0.59766   0.04666  -0.55569
     3)    -1.78774   0.51079   0.04514     -1.78774   0.51079   0.04514       3  -1.78774   0.51079   0.04514
     4)    -2.97983   0.55666  -0.67551     -2.97983   0.55666  -0.67551       4  -2.97983   0.55666  -0.67551
     5)    -3.01789   0.14336  -2.01250     -3.01789   0.14336  -2.01250       5  -3.01789   0.14336  -2.01250
     6)    -1.84505  -0.30730  -2.62651     -1.84505  -0.30730  -2.62651       6  -1.84505  -0.30730  -2.62651
     7)    -0.64973  -0.34730  -1.90897     -0.64973  -0.34730  -1.90897       7  -0.64973  -0.34730  -1.90897
     8)    -0.11481  -0.79504   2.21583     -0.11481  -0.79504   2.21583       9  -0.11481  -0.79504   2.21583
     9)     2.21872  -0.15615   1.95129      2.21872  -0.15615   1.95129      10   2.21872  -0.15615   1.95129
    10)     2.34142  -0.54540   3.40246      2.34142  -0.54540   3.40246      11   2.34142  -0.54540   3.40246
    11)     3.42631   0.03056   1.16354      3.42631   0.03056   1.16354      12   3.42631   0.03056   1.16354
    12)     4.74069   0.19712   1.90654      4.74069   0.19712   1.90654      13   4.74069   0.19712   1.90654
    13)     0.98298  -0.34125   1.34661      0.98298  -0.34125   1.34661       8   0.98298  -0.34125   1.34661
    14)     3.46044   0.05602  -0.08296      3.46044   0.05602  -0.08296      14   3.46044   0.05602  -0.08296
    15)     1.58831   0.11163  -0.54973      1.58831   0.11163  -0.54973      15   1.58831   0.11163  -0.54973
    16)    -1.77181   0.89025   1.06624     -1.77181   0.89025   1.06624      16  -1.77181   0.89025   1.06624
    17)    -3.88564   0.93202  -0.19342     -3.88564   0.93202  -0.19342      17  -3.88564   0.93202  -0.19342
    18)    -3.95417   0.18221  -2.57406     -3.95417   0.18221  -2.57406      18  -3.95417   0.18221  -2.57406
    19)    -1.86011  -0.62480  -3.67185     -1.86011  -0.62480  -3.67185      19  -1.86011  -0.62480  -3.67185
    20)     0.26611  -0.68521  -2.39809      0.26611  -0.68521  -2.39809      20   0.26611  -0.68521  -2.39809
    21)     0.23642  -1.61712   2.84591      0.23642  -1.61712   2.84591      21   0.23642  -1.61712   2.84591
    22)    -0.46918   0.02490   2.85623     -0.46918   0.02490   2.85623      22  -0.46918   0.02490   2.85623
    23)    -0.93791  -1.16406   1.60078     -0.93791  -1.16406   1.60078      23  -0.93791  -1.16406   1.60078
    24)     1.55706  -0.09986   4.02695      1.55706  -0.09986   4.02695      24   1.55706  -0.09986   4.02695
    25)     3.29704  -0.20785   3.80853      3.29704  -0.20785   3.80853      25   3.29704  -0.20785   3.80853
    26)     2.29797  -1.64187   3.53620      2.29797  -1.64187   3.53620      26   2.29797  -1.64187   3.53620
    27)     4.68701   0.98465   2.67079      4.68701   0.98465   2.67079      27   4.68701   0.98465   2.67079
    28)     5.51263   0.45890   1.17110      5.51263   0.45890   1.17110      28   5.51263   0.45890   1.17110
    29)     5.03452  -0.73842   2.40951      5.03452  -0.73842   2.40951      29   5.03452  -0.73842   2.40951



                                              ************************
                                              *  Fragment Type : fB  *
                                              ************************
  

 Fragment no.    2   (in the list of all fragments)
 -----------------
 The local coordinate frame is identical to the molecular frame.

 Check Atomic Coordinates:

                  Master (on file)          After Computed Tranformation               As specified on Input
           ----------------------------     ----------------------------     ---------------------------------
     1)    -1.10393   3.96143  -1.67773     -1.10393   3.96143  -1.67773      30  -1.10393   3.96143  -1.67773
     2)     0.98718   3.34152  -0.55720      0.98718   3.34152  -0.55720      32   0.98718   3.34152  -0.55720
     3)     1.81079   2.95906  -1.82142      1.81079   2.95906  -1.82142      33   1.81079   2.95906  -1.82142
     4)     1.32793   4.80212  -0.17939      1.32793   4.80212  -0.17939      37   1.32793   4.80212  -0.17939
     5)     0.64370   5.29696   1.10797      0.64370   5.29696   1.10797      38   0.64370   5.29696   1.10797
     6)     1.54016   5.43716   2.35346      1.54016   5.43716   2.35346      39   1.54016   5.43716   2.35346
     7)     1.69053   4.23832   3.29495      1.69053   4.23832   3.29495      40   1.69053   4.23832   3.29495
     8)     2.53635   3.07094   2.80866      2.53635   3.07094   2.80866      41   2.53635   3.07094   2.80866
     9)     1.95211   2.35468   1.66380      1.95211   2.35468   1.66380      44   1.95211   2.35468   1.66380
    10)     1.39816   2.46288   0.56486      1.39816   2.46288   0.56486      45   1.39816   2.46288   0.56486
    11)    -0.38797   3.11609  -0.78706     -0.38797   3.11609  -0.78706      31  -0.38797   3.11609  -0.78706
    12)     3.12094   2.86876  -1.53915      3.12094   2.86876  -1.53915      34   3.12094   2.86876  -1.53915
    13)     1.42649   1.78523  -2.34166      1.42649   1.78523  -2.34166      35   1.42649   1.78523  -2.34166
    14)     1.68470   3.87633  -2.80099      1.68470   3.87633  -2.80099      36   1.68470   3.87633  -2.80099
    15)     2.76145   2.24407   3.88842      2.76145   2.24407   3.88842      42   2.76145   2.24407   3.88842
    16)     3.79558   3.52257   2.45163      3.79558   3.52257   2.45163      43   3.79558   3.52257   2.45163
    17)    -2.13482   3.58110  -1.67839     -2.13482   3.58110  -1.67839      46  -2.13482   3.58110  -1.67839
    18)    -0.71393   3.91671  -2.70653     -0.71393   3.91671  -2.70653      47  -0.71393   3.91671  -2.70653
    19)    -1.11528   5.01048  -1.34020     -1.11528   5.01048  -1.34020      48  -1.11528   5.01048  -1.34020
    20)     2.42172   4.86517  -0.08153      2.42172   4.86517  -0.08153      49   2.42172   4.86517  -0.08153
    21)     1.05652   5.44656  -1.02695      1.05652   5.44656  -1.02695      50   1.05652   5.44656  -1.02695
    22)     0.23352   6.29509   0.89336      0.23352   6.29509   0.89336      51   0.23352   6.29509   0.89336
    23)    -0.22813   4.66265   1.33848     -0.22813   4.66265   1.33848      52  -0.22813   4.66265   1.33848
    24)     2.54143   5.78496   2.04941      2.54143   5.78496   2.04941      53   2.54143   5.78496   2.04941
    25)     1.12067   6.24365   2.97496      1.12067   6.24365   2.97496      54   1.12067   6.24365   2.97496
    26)     2.17301   4.57579   4.22651      2.17301   4.57579   4.22651      55   2.17301   4.57579   4.22651
    27)     0.70459   3.83022   3.56670      0.70459   3.83022   3.56670      56   0.70459   3.83022   3.56670



 =======
 S F O s  ***  (Symmetrized Fragment Orbitals)  ***
 =======
  
 SFOs are linear combinations of (valence) Fragment Orbitals (FOs), such that the SFOs transform as the
 irreducible representations of the (molecular) symmetry group. Each SFO is therefore characterized by
 an irrep of the molecule and by a few (or only one) generating FOs.
 The SFOs constitute a symmetry-adapted basis for the Fock matrix. The MO eigenvector coefficients in
 this basis provide a direct interpretation of the MOs in terms of Frontier Orbital Theory.

 The SFOs are combined with auxiliary Core Functions (CFs) to ensure orthogonalization on the (frozen)
 Core Orbitals (COs). The Core-orthogonalized SFOs (CSFOs) constitute the true Fock basis.

 The FOs, and hence also the (C)SFOs are combinations of the elementary basis functions (BAS). The basis
 functions that participate in the description of the SFOs depend on the irrep. The indices of the
 involved functions are printed below for each irrep.
 (The complete list of primitive basis functions is printed in another section)

 Total nr. of (C)SFOs (summation over all irreps) :  1066

 NOTE: a (C)SFO that is defined as a combination of more than one FO is usually NOT normalized.



                                       === A ===
 Nr. of SFOs : 1066
 Cartesian basis functions that participate in this irrep (total number =  1212) :
      1     2     3     4     5     6     9    12     7    10
     13     8    11    14    15    16    17    18    19    20
     21    22    23    24    25    26    27    28    29    30
     31    32    33    34    35    36    39    42    37    40
     43    38    41    44    45    46    47    48    49    50
     51    52    53    54    55    56    57    58    59    60
     61    62    63    64    65    66    69    72    67    70
     73    68    71    74    75    76    77    78    79    80
     81    82    83    84    85    86    87    88    89    90
     91    92    93    94    95    96    99   102    97   100
    103    98   101   104   105   106   107   108   109   110
    111   112   113   114   115   116   117   118   119   120
    121   122   123   124   125   126   129   132   127   130
    133   128   131   134   135   136   137   138   139   140
    141   142   143   144   145   146   147   148   149   150
    151   152   153   154   155   156   159   162   157   160
    163   158   161   164   165   166   167   168   169   170
    171   172   173   174   175   176   177   178   179   180
    181   182   183   184   185   186   189   192   187   190
    193   188   191   194   195   196   197   198   199   200
    201   202   203   204   205   206   207   208   209   210
    211   212   213   214   215   216   219   222   217   220
    223   218   221   224   225   226   227   228   229   230
    231   232   233   234   235   236   237   238   239   240
    241   242   243   244   245   246   249   252   247   250
    253   248   251   254   255   256   257   258   259   260
    261   262   263   264   265   266   267   268   269   270
    271   272   273   274   275   276   279   282   277   280
    283   278   281   284   285   286   287   288   289   290
    291   292   293   294   295   296   297   298   299   300
    301   302   303   304   305   306   309   312   307   310
    313   308   311   314   315   316   317   318   319   320
    321   322   323   324   325   326   327   328   329   330
    331   332   333   334   335   336   339   342   337   340
    343   338   341   344   345   346   347   348   349   350
    351   352   353   354   355   356   357   358   359   360
    361   362   363   364   365   366   369   372   367   370
    373   368   371   374   375   376   377   378   379   380
    381   382   383   384   385   386   387   388   389   390
    391   392   393   394   395   396   399   402   397   400
    403   398   401   404   405   406   407   408   409   410
    411   412   413   414   415   416   417   418   419   420
    421   422   423   424   425   426   427   428   429   430
    431   432   433   434   435   436   437   438   439   440
    441   442   443   444   445   446   447   448   449   450
    451   452   453   454   455   456   457   458   459   460
    461   462   463   464   465   466   467   468   469   470
    471   472   473   474   475   476   477   478   479   480
    481   482   483   484   485   486   487   488   489   490
    491   492   493   494   495   496   497   498   499   500
    501   502   503   504   505   506   507   508   509   510
    511   512   513   514   515   516   517   518   519   520
    521   522   523   524   525   526   527   528   529   530
    531   532   533   534   535   536   537   538   539   540
    541   542   543   544   545   546   547   548   549   550
    551   552   553   554   555   556   557   558   559   560
    561   562   563   564   565   566   567   568   569   570
    571   572   573   574   575   576   577   578   579   580
    581   582   583   584   585   586   587   588   589   590
    591   592   593   594   595   596   597   598   599   600
    601   602   603   604   605   606   609   612   607   610
    613   608   611   614   615   616   617   618   619   620
    621   622   623   624   625   626   627   628   629   630
    631   632   633   634   635   636   639   642   637   640
    643   638   641   644   645   646   647   648   649   650
    651   652   653   654   655   656   657   658   659   660
    661   662   663   664   665   666   669   672   667   670
    673   668   671   674   675   676   677   678   679   680
    681   682   683   684   685   686   687   688   689   690
    691   692   693   694   695   696   699   702   697   700
    703   698   701   704   705   706   707   708   709   710
    711   712   713   714   715   716   717   718   719   720
    721   722   723   724   725   726   729   732   727   730
    733   728   731   734   735   736   737   738   739   740
    741   742   743   744   745   746   747   748   749   750
    751   752   753   754   755   756   759   762   757   760
    763   758   761   764   765   766   767   768   769   770
    771   772   773   774   775   776   777   778   779   780
    781   782   783   784   785   786   789   792   787   790
    793   788   791   794   795   796   797   798   799   800
    801   802   803   804   805   806   807   808   809   810
    811   812   813   814   815   816   819   822   817   820
    823   818   821   824   825   826   827   828   829   830
    831   832   833   834   835   836   837   838   839   840
    841   842   843   844   845   846   849   852   847   850
    853   848   851   854   855   856   857   858   859   860
    861   862   863   864   865   866   867   868   869   870
    871   872   873   874   875   876   879   882   877   880
    883   878   881   884   885   886   887   888   889   890
    891   892   893   894   895   896   897   898   899   900
    901   902   903   904   905   906   909   912   907   910
    913   908   911   914   915   916   917   918   919   920
    921   922   923   924   925   926   927   928   929   930
    931   932   933   934   935   936   939   942   937   940
    943   938   941   944   945   946   947   948   949   950
    951   952   953   954   955   956   957   958   959   960
    961   962   963   964   965   966   969   972   967   970
    973   968   971   974   975   976   977   978   979   980
    981   982   983   984   985   986   987   988   989   990
    991   992   993   994   995   996   999  1002   997  1000
   1003   998  1001  1004  1005  1006  1007  1008  1009  1010
   1011  1012  1013  1014  1015  1016  1017  1018  1019  1020
   1021  1022  1023  1024  1025  1026  1029  1032  1027  1030
   1033  1028  1031  1034  1035  1036  1037  1038  1039  1040
   1041  1042  1043  1044  1045  1046  1047  1048  1049  1050
   1051  1052  1053  1054  1055  1056  1059  1062  1057  1060
   1063  1058  1061  1064  1065  1066  1067  1068  1069  1070
   1071  1072  1073  1074  1075  1076  1077  1078  1079  1080
   1081  1082  1083  1084  1085  1086  1087  1088  1089  1090
   1091  1092  1093  1094  1095  1096  1097  1098  1099  1100
   1101  1102  1103  1104  1105  1106  1107  1108  1109  1110
   1111  1112  1113  1114  1115  1116  1117  1118  1119  1120
   1121  1122  1123  1124  1125  1126  1127  1128  1129  1130
   1131  1132  1133  1134  1135  1136  1137  1138  1139  1140
   1141  1142  1143  1144  1145  1146  1147  1148  1149  1150
   1151  1152  1153  1154  1155  1156  1157  1158  1159  1160
   1161  1162  1163  1164  1165  1166  1167  1168  1169  1170
   1171  1172  1173  1174  1175  1176  1177  1178  1179  1180
   1181  1182  1183  1184  1185  1186  1187  1188  1189  1190
   1191  1192  1193  1194  1195  1196  1197  1198  1199  1200
   1201  1202  1203  1204  1205  1206  1207  1208  1209  1210
   1211  1212

    SFO  (index         Fragment          Generating    Expansion in Fragment Orbitals
  indx  incl.CFs)   Occup   Orb.Energy   FragmentType  Coeff.   Orbital     on Fragment
 --------------------------------------------------------------------------------------
     1       1      2.000     -18.745 au  fA            1.00      1 A               1
                        (    -510.064 eV)
     2       2      2.000     -14.113 au  fA            1.00      2 A               1
                        (    -384.030 eV)
     3       3      2.000      -9.974 au  fA            1.00      3 A               1
                        (    -271.412 eV)
     4       4      2.000      -9.974 au  fA            1.00      4 A               1
                        (    -271.393 eV)
     5       5      2.000      -9.950 au  fA            1.00      5 A               1
                        (    -270.744 eV)
     6       6      2.000      -9.944 au  fA            1.00      6 A               1
                        (    -270.586 eV)
     7       7      2.000      -9.944 au  fA            1.00      7 A               1
                        (    -270.578 eV)
     8       8      2.000      -9.932 au  fA            1.00      8 A               1
                        (    -270.262 eV)
     9       9      2.000      -9.931 au  fA            1.00      9 A               1
                        (    -270.243 eV)
    10      10      2.000      -9.930 au  fA            1.00     10 A               1
                        (    -270.198 eV)
    11      11      2.000      -9.929 au  fA            1.00     11 A               1
                        (    -270.173 eV)
    12      12      2.000      -9.929 au  fA            1.00     12 A               1
                        (    -270.170 eV)
    13      13      2.000      -9.926 au  fA            1.00     13 A               1
                        (    -270.095 eV)
    14      14      2.000      -9.906 au  fA            1.00     14 A               1
                        (    -269.568 eV)
    15      15      2.000      -0.921 au  fA            1.00     15 A               1
                        (     -25.052 eV)
    16      16      2.000      -0.898 au  fA            1.00     16 A               1
                        (     -24.445 eV)
    17      17      2.000      -0.783 au  fA            1.00     17 A               1
                        (     -21.318 eV)
    18      18      2.000      -0.718 au  fA            1.00     18 A               1
                        (     -19.548 eV)
    19      19      2.000      -0.692 au  fA            1.00     19 A               1
                        (     -18.838 eV)
    20      20      2.000      -0.680 au  fA            1.00     20 A               1
                        (     -18.509 eV)
    21      21      2.000      -0.674 au  fA            1.00     21 A               1
                        (     -18.334 eV)
    22      22      2.000      -0.644 au  fA            1.00     22 A               1
                        (     -17.516 eV)
    23      23      2.000      -0.607 au  fA            1.00     23 A               1
                        (     -16.530 eV)
    24      24      2.000      -0.557 au  fA            1.00     24 A               1
                        (     -15.158 eV)
    25      25      2.000      -0.550 au  fA            1.00     25 A               1
                        (     -14.973 eV)
    26      26      2.000      -0.534 au  fA            1.00     26 A               1
                        (     -14.522 eV)
    27      27      2.000      -0.491 au  fA            1.00     27 A               1
                        (     -13.361 eV)
    28      28      2.000      -0.476 au  fA            1.00     28 A               1
                        (     -12.947 eV)
    29      29      2.000      -0.445 au  fA            1.00     29 A               1
                        (     -12.101 eV)
    30      30      2.000      -0.436 au  fA            1.00     30 A               1
                        (     -11.853 eV)
    31      31      2.000      -0.416 au  fA            1.00     31 A               1
                        (     -11.314 eV)
    32      32      2.000      -0.412 au  fA            1.00     32 A               1
                        (     -11.216 eV)
    33      33      2.000      -0.396 au  fA            1.00     33 A               1
                        (     -10.782 eV)
    34      34      2.000      -0.387 au  fA            1.00     34 A               1
                        (     -10.525 eV)
    35      35      2.000      -0.384 au  fA            1.00     35 A               1
                        (     -10.450 eV)
    36      36      2.000      -0.378 au  fA            1.00     36 A               1
                        (     -10.278 eV)
    37      37      2.000      -0.374 au  fA            1.00     37 A               1
                        (     -10.168 eV)
    38      38      2.000      -0.362 au  fA            1.00     38 A               1
                        (      -9.840 eV)
    39      39      2.000      -0.359 au  fA            1.00     39 A               1
                        (      -9.766 eV)
    40      40      2.000      -0.352 au  fA            1.00     40 A               1
                        (      -9.574 eV)
    41      41      2.000      -0.339 au  fA            1.00     41 A               1
                        (      -9.223 eV)
    42      42      2.000      -0.333 au  fA            1.00     42 A               1
                        (      -9.050 eV)
    43      43      2.000      -0.324 au  fA            1.00     43 A               1
                        (      -8.822 eV)
    44      44      2.000      -0.322 au  fA            1.00     44 A               1
                        (      -8.751 eV)
    45      45      2.000      -0.310 au  fA            1.00     45 A               1
                        (      -8.442 eV)
    46      46      2.000      -0.306 au  fA            1.00     46 A               1
                        (      -8.336 eV)
    47      47      2.000      -0.285 au  fA            1.00     47 A               1
                        (      -7.754 eV)
    48      48      2.000      -0.241 au  fA            1.00     48 A               1
                        (      -6.565 eV)
    49      49      2.000      -0.234 au  fA            1.00     49 A               1
                        (      -6.380 eV)
    50      50      2.000      -0.181 au  fA            1.00     50 A               1
                        (      -4.938 eV)
    51      51      2.000      -0.156 au  fA            1.00     51 A               1
                        (      -4.236 eV)
    52      52       --        -0.092 au  fA            1.00     52 A               1
                        (      -2.504 eV)
    53      53       --        -0.048 au  fA            1.00     53 A               1
                        (      -1.304 eV)
    54      54       --        -0.027 au  fA            1.00     54 A               1
                        (      -0.745 eV)
    55      55       --        -0.023 au  fA            1.00     55 A               1
                        (      -0.631 eV)
    56      56       --        -0.004 au  fA            1.00     56 A               1
                        (      -0.108 eV)
    57      57       --         0.007 au  fA            1.00     57 A               1
                        (       0.201 eV)
    58      58       --         0.014 au  fA            1.00     58 A               1
                        (       0.385 eV)
    59      59       --         0.018 au  fA            1.00     59 A               1
                        (       0.491 eV)
    60      60       --         0.026 au  fA            1.00     60 A               1
                        (       0.705 eV)
    61      61       --         0.031 au  fA            1.00     61 A               1
                        (       0.831 eV)
    62      62       --         0.041 au  fA            1.00     62 A               1
                        (       1.102 eV)
    63      63       --         0.050 au  fA            1.00     63 A               1
                        (       1.347 eV)
    64      64       --         0.052 au  fA            1.00     64 A               1
                        (       1.414 eV)
    65      65       --         0.056 au  fA            1.00     65 A               1
                        (       1.521 eV)
    66      66       --         0.060 au  fA            1.00     66 A               1
                        (       1.635 eV)
    67      67       --         0.071 au  fA            1.00     67 A               1
                        (       1.935 eV)
    68      68       --         0.083 au  fA            1.00     68 A               1
                        (       2.259 eV)
    69      69       --         0.089 au  fA            1.00     69 A               1
                        (       2.408 eV)
    70      70       --         0.101 au  fA            1.00     70 A               1
                        (       2.755 eV)
    71      71       --         0.111 au  fA            1.00     71 A               1
                        (       3.008 eV)
    72      72       --         0.116 au  fA            1.00     72 A               1
                        (       3.154 eV)
    73      73       --         0.129 au  fA            1.00     73 A               1
                        (       3.501 eV)
    74      74       --         0.136 au  fA            1.00     74 A               1
                        (       3.704 eV)
    75      75       --         0.149 au  fA            1.00     75 A               1
                        (       4.041 eV)
    76      76       --         0.154 au  fA            1.00     76 A               1
                        (       4.195 eV)
    77      77       --         0.159 au  fA            1.00     77 A               1
                        (       4.337 eV)
    78      78       --         0.161 au  fA            1.00     78 A               1
                        (       4.388 eV)
    79      79       --         0.172 au  fA            1.00     79 A               1
                        (       4.676 eV)
    80      80       --         0.179 au  fA            1.00     80 A               1
                        (       4.878 eV)
    81      81       --         0.185 au  fA            1.00     81 A               1
                        (       5.027 eV)
    82      82       --         0.187 au  fA            1.00     82 A               1
                        (       5.098 eV)
    83      83       --         0.190 au  fA            1.00     83 A               1
                        (       5.166 eV)
    84      84       --         0.206 au  fA            1.00     84 A               1
                        (       5.603 eV)
    85      85       --         0.207 au  fA            1.00     85 A               1
                        (       5.643 eV)
    86      86       --         0.217 au  fA            1.00     86 A               1
                        (       5.903 eV)
    87      87       --         0.219 au  fA            1.00     87 A               1
                        (       5.962 eV)
    88      88       --         0.221 au  fA            1.00     88 A               1
                        (       6.026 eV)
    89      89       --         0.241 au  fA            1.00     89 A               1
                        (       6.545 eV)
    90      90       --         0.248 au  fA            1.00     90 A               1
                        (       6.759 eV)
    91      91       --         0.261 au  fA            1.00     91 A               1
                        (       7.103 eV)
    92      92       --         0.265 au  fA            1.00     92 A               1
                        (       7.225 eV)
    93      93       --         0.279 au  fA            1.00     93 A               1
                        (       7.579 eV)
    94      94       --         0.286 au  fA            1.00     94 A               1
                        (       7.772 eV)
    95      95       --         0.291 au  fA            1.00     95 A               1
                        (       7.921 eV)
    96      96       --         0.293 au  fA            1.00     96 A               1
                        (       7.977 eV)
    97      97       --         0.301 au  fA            1.00     97 A               1
                        (       8.197 eV)
    98      98       --         0.310 au  fA            1.00     98 A               1
                        (       8.427 eV)
    99      99       --         0.315 au  fA            1.00     99 A               1
                        (       8.578 eV)
   100     100       --         0.318 au  fA            1.00    100 A               1
                        (       8.655 eV)
   101     101       --         0.321 au  fA            1.00    101 A               1
                        (       8.722 eV)
   102     102       --         0.328 au  fA            1.00    102 A               1
                        (       8.931 eV)
   103     103       --         0.335 au  fA            1.00    103 A               1
                        (       9.129 eV)
   104     104       --         0.337 au  fA            1.00    104 A               1
                        (       9.168 eV)
   105     105       --         0.347 au  fA            1.00    105 A               1
                        (       9.443 eV)
   106     106       --         0.350 au  fA            1.00    106 A               1
                        (       9.528 eV)
   107     107       --         0.355 au  fA            1.00    107 A               1
                        (       9.652 eV)
   108     108       --         0.360 au  fA            1.00    108 A               1
                        (       9.794 eV)
   109     109       --         0.363 au  fA            1.00    109 A               1
                        (       9.871 eV)
   110     110       --         0.377 au  fA            1.00    110 A               1
                        (      10.249 eV)
   111     111       --         0.393 au  fA            1.00    111 A               1
                        (      10.706 eV)
   112     112       --         0.399 au  fA            1.00    112 A               1
                        (      10.868 eV)
   113     113       --         0.407 au  fA            1.00    113 A               1
                        (      11.064 eV)
   114     114       --         0.410 au  fA            1.00    114 A               1
                        (      11.168 eV)
   115     115       --         0.428 au  fA            1.00    115 A               1
                        (      11.641 eV)
   116     116       --         0.435 au  fA            1.00    116 A               1
                        (      11.824 eV)
   117     117       --         0.446 au  fA            1.00    117 A               1
                        (      12.132 eV)
   118     118       --         0.453 au  fA            1.00    118 A               1
                        (      12.322 eV)
   119     119       --         0.459 au  fA            1.00    119 A               1
                        (      12.483 eV)
   120     120       --         0.467 au  fA            1.00    120 A               1
                        (      12.703 eV)
   121     121       --         0.474 au  fA            1.00    121 A               1
                        (      12.902 eV)
   122     122       --         0.479 au  fA            1.00    122 A               1
                        (      13.029 eV)
   123     123       --         0.498 au  fA            1.00    123 A               1
                        (      13.545 eV)
   124     124       --         0.511 au  fA            1.00    124 A               1
                        (      13.903 eV)
   125     125       --         0.517 au  fA            1.00    125 A               1
                        (      14.062 eV)
   126     126       --         0.519 au  fA            1.00    126 A               1
                        (      14.121 eV)
   127     127       --         0.539 au  fA            1.00    127 A               1
                        (      14.664 eV)
   128     128       --         0.547 au  fA            1.00    128 A               1
                        (      14.891 eV)
   129     129       --         0.554 au  fA            1.00    129 A               1
                        (      15.085 eV)
   130     130       --         0.589 au  fA            1.00    130 A               1
                        (      16.029 eV)
   131     131       --         0.594 au  fA            1.00    131 A               1
                        (      16.168 eV)
   132     132       --         0.610 au  fA            1.00    132 A               1
                        (      16.609 eV)
   133     133       --         0.621 au  fA            1.00    133 A               1
                        (      16.903 eV)
   134     134       --         0.632 au  fA            1.00    134 A               1
                        (      17.204 eV)
   135     135       --         0.644 au  fA            1.00    135 A               1
                        (      17.518 eV)
   136     136       --         0.650 au  fA            1.00    136 A               1
                        (      17.687 eV)
   137     137       --         0.663 au  fA            1.00    137 A               1
                        (      18.030 eV)
   138     138       --         0.688 au  fA            1.00    138 A               1
                        (      18.718 eV)
   139     139       --         0.696 au  fA            1.00    139 A               1
                        (      18.949 eV)
   140     140       --         0.713 au  fA            1.00    140 A               1
                        (      19.396 eV)
   141     141       --         0.717 au  fA            1.00    141 A               1
                        (      19.498 eV)
   142     142       --         0.734 au  fA            1.00    142 A               1
                        (      19.964 eV)
   143     143       --         0.746 au  fA            1.00    143 A               1
                        (      20.291 eV)
   144     144       --         0.753 au  fA            1.00    144 A               1
                        (      20.478 eV)
   145     145       --         0.772 au  fA            1.00    145 A               1
                        (      20.994 eV)
   146     146       --         0.779 au  fA            1.00    146 A               1
                        (      21.186 eV)
   147     147       --         0.793 au  fA            1.00    147 A               1
                        (      21.584 eV)
   148     148       --         0.797 au  fA            1.00    148 A               1
                        (      21.687 eV)
   149     149       --         0.815 au  fA            1.00    149 A               1
                        (      22.181 eV)
   150     150       --         0.829 au  fA            1.00    150 A               1
                        (      22.552 eV)
   151     151       --         0.846 au  fA            1.00    151 A               1
                        (      23.017 eV)
   152     152       --         0.859 au  fA            1.00    152 A               1
                        (      23.371 eV)
   153     153       --         0.884 au  fA            1.00    153 A               1
                        (      24.062 eV)
   154     154       --         0.891 au  fA            1.00    154 A               1
                        (      24.248 eV)
   155     155       --         0.897 au  fA            1.00    155 A               1
                        (      24.411 eV)
   156     156       --         0.914 au  fA            1.00    156 A               1
                        (      24.874 eV)
   157     157       --         0.923 au  fA            1.00    157 A               1
                        (      25.125 eV)
   158     158       --         0.931 au  fA            1.00    158 A               1
                        (      25.347 eV)
   159     159       --         0.944 au  fA            1.00    159 A               1
                        (      25.692 eV)
   160     160       --         0.964 au  fA            1.00    160 A               1
                        (      26.221 eV)
   161     161       --         0.968 au  fA            1.00    161 A               1
                        (      26.347 eV)
   162     162       --         0.985 au  fA            1.00    162 A               1
                        (      26.793 eV)
   163     163       --         0.993 au  fA            1.00    163 A               1
                        (      27.031 eV)
   164     164       --         0.998 au  fA            1.00    164 A               1
                        (      27.149 eV)
   165     165       --         1.012 au  fA            1.00    165 A               1
                        (      27.543 eV)
   166     166       --         1.018 au  fA            1.00    166 A               1
                        (      27.699 eV)
   167     167       --         1.031 au  fA            1.00    167 A               1
                        (      28.059 eV)
   168     168       --         1.039 au  fA            1.00    168 A               1
                        (      28.261 eV)
   169     169       --         1.046 au  fA            1.00    169 A               1
                        (      28.453 eV)
   170     170       --         1.053 au  fA            1.00    170 A               1
                        (      28.641 eV)
   171     171       --         1.077 au  fA            1.00    171 A               1
                        (      29.300 eV)
   172     172       --         1.092 au  fA            1.00    172 A               1
                        (      29.711 eV)
   173     173       --         1.102 au  fA            1.00    173 A               1
                        (      29.974 eV)
   174     174       --         1.115 au  fA            1.00    174 A               1
                        (      30.328 eV)
   175     175       --         1.126 au  fA            1.00    175 A               1
                        (      30.648 eV)
   176     176       --         1.141 au  fA            1.00    176 A               1
                        (      31.056 eV)
   177     177       --         1.149 au  fA            1.00    177 A               1
                        (      31.267 eV)
   178     178       --         1.168 au  fA            1.00    178 A               1
                        (      31.787 eV)
   179     179       --         1.179 au  fA            1.00    179 A               1
                        (      32.092 eV)
   180     180       --         1.189 au  fA            1.00    180 A               1
                        (      32.365 eV)
   181     181       --         1.205 au  fA            1.00    181 A               1
                        (      32.786 eV)
   182     182       --         1.209 au  fA            1.00    182 A               1
                        (      32.895 eV)
   183     183       --         1.221 au  fA            1.00    183 A               1
                        (      33.232 eV)
   184     184       --         1.230 au  fA            1.00    184 A               1
                        (      33.459 eV)
   185     185       --         1.247 au  fA            1.00    185 A               1
                        (      33.925 eV)
   186     186       --         1.256 au  fA            1.00    186 A               1
                        (      34.184 eV)
   187     187       --         1.268 au  fA            1.00    187 A               1
                        (      34.508 eV)
   188     188       --         1.281 au  fA            1.00    188 A               1
                        (      34.852 eV)
   189     189       --         1.289 au  fA            1.00    189 A               1
                        (      35.087 eV)
   190     190       --         1.311 au  fA            1.00    190 A               1
                        (      35.671 eV)
   191     191       --         1.315 au  fA            1.00    191 A               1
                        (      35.774 eV)
   192     192       --         1.322 au  fA            1.00    192 A               1
                        (      35.982 eV)
   193     193       --         1.329 au  fA            1.00    193 A               1
                        (      36.169 eV)
   194     194       --         1.338 au  fA            1.00    194 A               1
                        (      36.399 eV)
   195     195       --         1.365 au  fA            1.00    195 A               1
                        (      37.150 eV)
   196     196       --         1.377 au  fA            1.00    196 A               1
                        (      37.464 eV)
   197     197       --         1.383 au  fA            1.00    197 A               1
                        (      37.627 eV)
   198     198       --         1.411 au  fA            1.00    198 A               1
                        (      38.395 eV)
   199     199       --         1.415 au  fA            1.00    199 A               1
                        (      38.513 eV)
   200     200       --         1.427 au  fA            1.00    200 A               1
                        (      38.836 eV)
   201     201       --         1.432 au  fA            1.00    201 A               1
                        (      38.955 eV)
   202     202       --         1.449 au  fA            1.00    202 A               1
                        (      39.417 eV)
   203     203       --         1.467 au  fA            1.00    203 A               1
                        (      39.933 eV)
   204     204       --         1.475 au  fA            1.00    204 A               1
                        (      40.135 eV)
   205     205       --         1.485 au  fA            1.00    205 A               1
                        (      40.413 eV)
   206     206       --         1.504 au  fA            1.00    206 A               1
                        (      40.922 eV)
   207     207       --         1.512 au  fA            1.00    207 A               1
                        (      41.143 eV)
   208     208       --         1.525 au  fA            1.00    208 A               1
                        (      41.484 eV)
   209     209       --         1.535 au  fA            1.00    209 A               1
                        (      41.766 eV)
   210     210       --         1.560 au  fA            1.00    210 A               1
                        (      42.437 eV)
   211     211       --         1.569 au  fA            1.00    211 A               1
                        (      42.692 eV)
   212     212       --         1.580 au  fA            1.00    212 A               1
                        (      42.994 eV)
   213     213       --         1.618 au  fA            1.00    213 A               1
                        (      44.041 eV)
   214     214       --         1.623 au  fA            1.00    214 A               1
                        (      44.175 eV)
   215     215       --         1.641 au  fA            1.00    215 A               1
                        (      44.647 eV)
   216     216       --         1.674 au  fA            1.00    216 A               1
                        (      45.554 eV)
   217     217       --         1.695 au  fA            1.00    217 A               1
                        (      46.126 eV)
   218     218       --         1.700 au  fA            1.00    218 A               1
                        (      46.265 eV)
   219     219       --         1.709 au  fA            1.00    219 A               1
                        (      46.511 eV)
   220     220       --         1.725 au  fA            1.00    220 A               1
                        (      46.943 eV)
   221     221       --         1.745 au  fA            1.00    221 A               1
                        (      47.471 eV)
   222     222       --         1.768 au  fA            1.00    222 A               1
                        (      48.104 eV)
   223     223       --         1.774 au  fA            1.00    223 A               1
                        (      48.263 eV)
   224     224       --         1.794 au  fA            1.00    224 A               1
                        (      48.822 eV)
   225     225       --         1.808 au  fA            1.00    225 A               1
                        (      49.197 eV)
   226     226       --         1.831 au  fA            1.00    226 A               1
                        (      49.835 eV)
   227     227       --         1.841 au  fA            1.00    227 A               1
                        (      50.095 eV)
   228     228       --         1.849 au  fA            1.00    228 A               1
                        (      50.318 eV)
   229     229       --         1.853 au  fA            1.00    229 A               1
                        (      50.417 eV)
   230     230       --         1.860 au  fA            1.00    230 A               1
                        (      50.620 eV)
   231     231       --         1.869 au  fA            1.00    231 A               1
                        (      50.863 eV)
   232     232       --         1.884 au  fA            1.00    232 A               1
                        (      51.253 eV)
   233     233       --         1.899 au  fA            1.00    233 A               1
                        (      51.663 eV)
   234     234       --         1.927 au  fA            1.00    234 A               1
                        (      52.428 eV)
   235     235       --         1.938 au  fA            1.00    235 A               1
                        (      52.747 eV)
   236     236       --         1.962 au  fA            1.00    236 A               1
                        (      53.389 eV)
   237     237       --         1.969 au  fA            1.00    237 A               1
                        (      53.578 eV)
   238     238       --         1.976 au  fA            1.00    238 A               1
                        (      53.773 eV)
   239     239       --         1.993 au  fA            1.00    239 A               1
                        (      54.234 eV)
   240     240       --         2.006 au  fA            1.00    240 A               1
                        (      54.584 eV)
   241     241       --         2.012 au  fA            1.00    241 A               1
                        (      54.753 eV)
   242     242       --         2.038 au  fA            1.00    242 A               1
                        (      55.459 eV)
   243     243       --         2.040 au  fA            1.00    243 A               1
                        (      55.510 eV)
   244     244       --         2.057 au  fA            1.00    244 A               1
                        (      55.982 eV)
   245     245       --         2.063 au  fA            1.00    245 A               1
                        (      56.142 eV)
   246     246       --         2.073 au  fA            1.00    246 A               1
                        (      56.399 eV)
   247     247       --         2.082 au  fA            1.00    247 A               1
                        (      56.647 eV)
   248     248       --         2.111 au  fA            1.00    248 A               1
                        (      57.446 eV)
   249     249       --         2.125 au  fA            1.00    249 A               1
                        (      57.825 eV)
   250     250       --         2.135 au  fA            1.00    250 A               1
                        (      58.109 eV)
   251     251       --         2.175 au  fA            1.00    251 A               1
                        (      59.192 eV)
   252     252       --         2.207 au  fA            1.00    252 A               1
                        (      60.060 eV)
   253     253       --         2.230 au  fA            1.00    253 A               1
                        (      60.694 eV)
   254     254       --         2.252 au  fA            1.00    254 A               1
                        (      61.278 eV)
   255     255       --         2.265 au  fA            1.00    255 A               1
                        (      61.635 eV)
   256     256       --         2.277 au  fA            1.00    256 A               1
                        (      61.961 eV)
   257     257       --         2.288 au  fA            1.00    257 A               1
                        (      62.254 eV)
   258     258       --         2.312 au  fA            1.00    258 A               1
                        (      62.908 eV)
   259     259       --         2.324 au  fA            1.00    259 A               1
                        (      63.253 eV)
   260     260       --         2.346 au  fA            1.00    260 A               1
                        (      63.835 eV)
   261     261       --         2.349 au  fA            1.00    261 A               1
                        (      63.913 eV)
   262     262       --         2.361 au  fA            1.00    262 A               1
                        (      64.239 eV)
   263     263       --         2.364 au  fA            1.00    263 A               1
                        (      64.335 eV)
   264     264       --         2.376 au  fA            1.00    264 A               1
                        (      64.661 eV)
   265     265       --         2.417 au  fA            1.00    265 A               1
                        (      65.776 eV)
   266     266       --         2.444 au  fA            1.00    266 A               1
                        (      66.513 eV)
   267     267       --         2.447 au  fA            1.00    267 A               1
                        (      66.574 eV)
   268     268       --         2.476 au  fA            1.00    268 A               1
                        (      67.383 eV)
   269     269       --         2.490 au  fA            1.00    269 A               1
                        (      67.748 eV)
   270     270       --         2.500 au  fA            1.00    270 A               1
                        (      68.036 eV)
   271     271       --         2.507 au  fA            1.00    271 A               1
                        (      68.222 eV)
   272     272       --         2.526 au  fA            1.00    272 A               1
                        (      68.743 eV)
   273     273       --         2.549 au  fA            1.00    273 A               1
                        (      69.365 eV)
   274     274       --         2.552 au  fA            1.00    274 A               1
                        (      69.438 eV)
   275     275       --         2.574 au  fA            1.00    275 A               1
                        (      70.036 eV)
   276     276       --         2.606 au  fA            1.00    276 A               1
                        (      70.900 eV)
   277     277       --         2.626 au  fA            1.00    277 A               1
                        (      71.465 eV)
   278     278       --         2.656 au  fA            1.00    278 A               1
                        (      72.277 eV)
   279     279       --         2.668 au  fA            1.00    279 A               1
                        (      72.592 eV)
   280     280       --         2.688 au  fA            1.00    280 A               1
                        (      73.138 eV)
   281     281       --         2.711 au  fA            1.00    281 A               1
                        (      73.766 eV)
   282     282       --         2.737 au  fA            1.00    282 A               1
                        (      74.465 eV)
   283     283       --         2.744 au  fA            1.00    283 A               1
                        (      74.670 eV)
   284     284       --         2.751 au  fA            1.00    284 A               1
                        (      74.870 eV)
   285     285       --         2.775 au  fA            1.00    285 A               1
                        (      75.523 eV)
   286     286       --         2.780 au  fA            1.00    286 A               1
                        (      75.658 eV)
   287     287       --         2.796 au  fA            1.00    287 A               1
                        (      76.074 eV)
   288     288       --         2.819 au  fA            1.00    288 A               1
                        (      76.701 eV)
   289     289       --         2.825 au  fA            1.00    289 A               1
                        (      76.877 eV)
   290     290       --         2.833 au  fA            1.00    290 A               1
                        (      77.087 eV)
   291     291       --         2.840 au  fA            1.00    291 A               1
                        (      77.290 eV)
   292     292       --         2.858 au  fA            1.00    292 A               1
                        (      77.776 eV)
   293     293       --         2.864 au  fA            1.00    293 A               1
                        (      77.936 eV)
   294     294       --         2.879 au  fA            1.00    294 A               1
                        (      78.346 eV)
   295     295       --         2.895 au  fA            1.00    295 A               1
                        (      78.786 eV)
   296     296       --         2.910 au  fA            1.00    296 A               1
                        (      79.177 eV)
   297     297       --         2.919 au  fA            1.00    297 A               1
                        (      79.440 eV)
   298     298       --         2.925 au  fA            1.00    298 A               1
                        (      79.583 eV)
   299     299       --         2.931 au  fA            1.00    299 A               1
                        (      79.759 eV)
   300     300       --         2.941 au  fA            1.00    300 A               1
                        (      80.021 eV)
   301     301       --         2.954 au  fA            1.00    301 A               1
                        (      80.371 eV)
   302     302       --         2.957 au  fA            1.00    302 A               1
                        (      80.470 eV)
   303     303       --         2.966 au  fA            1.00    303 A               1
                        (      80.706 eV)
   304     304       --         2.985 au  fA            1.00    304 A               1
                        (      81.237 eV)
   305     305       --         3.003 au  fA            1.00    305 A               1
                        (      81.718 eV)
   306     306       --         3.022 au  fA            1.00    306 A               1
                        (      82.220 eV)
   307     307       --         3.022 au  fA            1.00    307 A               1
                        (      82.239 eV)
   308     308       --         3.026 au  fA            1.00    308 A               1
                        (      82.343 eV)
   309     309       --         3.044 au  fA            1.00    309 A               1
                        (      82.827 eV)
   310     310       --         3.068 au  fA            1.00    310 A               1
                        (      83.497 eV)
   311     311       --         3.077 au  fA            1.00    311 A               1
                        (      83.738 eV)
   312     312       --         3.111 au  fA            1.00    312 A               1
                        (      84.652 eV)
   313     313       --         3.138 au  fA            1.00    313 A               1
                        (      85.387 eV)
   314     314       --         3.148 au  fA            1.00    314 A               1
                        (      85.651 eV)
   315     315       --         3.155 au  fA            1.00    315 A               1
                        (      85.859 eV)
   316     316       --         3.159 au  fA            1.00    316 A               1
                        (      85.949 eV)
   317     317       --         3.174 au  fA            1.00    317 A               1
                        (      86.362 eV)
   318     318       --         3.179 au  fA            1.00    318 A               1
                        (      86.514 eV)
   319     319       --         3.213 au  fA            1.00    319 A               1
                        (      87.429 eV)
   320     320       --         3.228 au  fA            1.00    320 A               1
                        (      87.827 eV)
   321     321       --         3.239 au  fA            1.00    321 A               1
                        (      88.150 eV)
   322     322       --         3.277 au  fA            1.00    322 A               1
                        (      89.174 eV)
   323     323       --         3.283 au  fA            1.00    323 A               1
                        (      89.340 eV)
   324     324       --         3.306 au  fA            1.00    324 A               1
                        (      89.953 eV)
   325     325       --         3.323 au  fA            1.00    325 A               1
                        (      90.426 eV)
   326     326       --         3.348 au  fA            1.00    326 A               1
                        (      91.109 eV)
   327     327       --         3.357 au  fA            1.00    327 A               1
                        (      91.336 eV)
[...]
     450       48.8218         0.000       
     449       48.6655         0.000       
     448       48.5686         0.000       
     447       48.3422         0.000       
     446       48.1747         0.000       
     445       48.0948         0.000       
     444       47.7306         0.000       
     443       47.4168         0.000       
     442       47.2136         0.000       
     441       47.1776         0.000       
     440       46.8085         0.000       
     439       46.6267         0.000       
     438       46.5285         0.000       
     437       46.4560         0.000       
     436       45.9857         0.000       
     435       45.8996         0.000       
     434       45.7015         0.000       
     433       45.4732         0.000       
     432       45.3302         0.000       
     431       45.0637         0.000       
     430       44.9254         0.000       
     429       44.7925         0.000       
     428       44.4410         0.000       
     427       44.3905         0.000       
     426       44.1547         0.000       
     425       43.9764         0.000       
     424       43.7873         0.000       
     423       43.4955         0.000       
     422       43.3013         0.000       
     421       43.0696         0.000       
     420       42.8922         0.000       
     419       42.7925         0.000       
     418       42.6763         0.000       
     417       42.2854         0.000       
     416       41.9453         0.000       
     415       41.8891         0.000       
     414       41.5964         0.000       
     413       41.5279         0.000       
     412       41.2680         0.000       
     411       41.1355         0.000       
     410       40.9191         0.000       
     409       40.7817         0.000       
     408       40.6745         0.000       
     407       40.4002         0.000       
     406       40.3371         0.000       
     405       40.1925         0.000       
     404       39.7390         0.000       
     403       39.6431         0.000       
     402       39.3225         0.000       
     401       39.2225         0.000       
     400       39.1606         0.000       
     399       38.9929         0.000       
     398       38.8950         0.000       
     397       38.6610         0.000       
     396       38.5687         0.000       
     395       38.4200         0.000       
     394       38.2592         0.000       
     393       38.2528         0.000       
     392       37.9358         0.000       
     391       37.8756         0.000       
     390       37.6772         0.000       
     389       37.3457         0.000       
     388       37.2056         0.000       
     387       37.0674         0.000       
     386       36.9925         0.000       
     385       36.8383         0.000       
     384       36.7280         0.000       
     383       36.5652         0.000       
     382       36.1939         0.000       
     381       36.1078         0.000       
     380       36.0169         0.000       
     379       35.8773         0.000       
     378       35.6495         0.000       
     377       35.4269         0.000       
     376       35.3283         0.000       
     375       35.1934         0.000       
     374       34.9490         0.000       
     373       34.8168         0.000       
     372       34.7750         0.000       
     371       34.5498         0.000       
     370       34.4057         0.000       
     369       34.3582         0.000       
     368       34.2141         0.000       
     367       34.1642         0.000       
     366       33.9862         0.000       
     365       33.8546         0.000       
     364       33.5968         0.000       
     363       33.5002         0.000       
     362       33.3206         0.000       
     361       33.1127         0.000       
     360       32.9759         0.000       
     359       32.7912         0.000       
     358       32.7053         0.000       
     357       32.4708         0.000       
     356       32.3429         0.000       
     355       32.2778         0.000       
     354       32.1018         0.000       
     353       31.9288         0.000       
     352       31.6732         0.000       
     351       31.4824         0.000       
     350       31.4117         0.000       
     349       31.2482         0.000       
     348       31.1650         0.000       
     347       30.9120         0.000       
     346       30.7821         0.000       
     345       30.6691         0.000       
     344       30.4870         0.000       
     343       30.4261         0.000       
     342       30.3718         0.000       
     341       30.0752         0.000       
     340       30.0077         0.000       
     339       29.7721         0.000       
     338       29.4028         0.000       
     337       29.1777         0.000       
     336       29.0986         0.000       
     335       28.8912         0.000       
     334       28.6306         0.000       
     333       28.5910         0.000       
     332       28.4258         0.000       
     331       28.3773         0.000       
     330       28.3508         0.000       
     329       28.1082         0.000       
     328       27.9066         0.000       
     327       27.7989         0.000       
     326       27.6102         0.000       
     325       27.5244         0.000       
     324       27.2937         0.000       
     323       27.1634         0.000       
     322       27.0294         0.000       
     321       26.9308         0.000       
     320       26.7463         0.000       
     319       26.5801         0.000       
     318       26.4213         0.000       
     317       26.2416         0.000       
     316       26.0628         0.000       
     315       26.0105         0.000       
     314       25.8584         0.000       
     313       25.7515         0.000       
     312       25.4933         0.000       
     311       25.3469         0.000       
     310       25.2462         0.000       
     309       24.9303         0.000       
     308       24.7192         0.000       
     307       24.5635         0.000       
     306       24.4291         0.000       
     305       24.3716         0.000       
     304       24.2555         0.000       
     303       24.1956         0.000       
     302       24.1146         0.000       
     301       23.9133         0.000       
     300       23.7153         0.000       
     299       23.4670         0.000       
     298       23.2049         0.000       
     297       22.9999         0.000       
     296       22.9802         0.000       
     295       22.6627         0.000       
     294       22.5821         0.000       
     293       22.3252         0.000       
     292       22.0827         0.000       
     291       21.9920         0.000       
     290       21.8473         0.000       
     289       21.6912         0.000       
     288       21.4735         0.000       
     287       21.2883         0.000       
     286       21.1373         0.000       
     285       21.0635         0.000       
     284       20.7609         0.000       
     283       20.6463         0.000       
     282       20.5982         0.000       
     281       20.4365         0.000       
     280       20.3565         0.000       
     279       19.9498         0.000       
     278       19.7656         0.000       
     277       19.5872         0.000       
     276       19.3845         0.000       
     275       19.2290         0.000       
     274       19.0181         0.000       
     273       18.7979         0.000       
     272       18.7217         0.000       
     271       18.5546         0.000       
     270       18.4649         0.000       
     269       18.1534         0.000       
     268       18.0042         0.000       
     267       17.7669         0.000       
     266       17.5059         0.000       
     265       17.3404         0.000       
     264       17.1710         0.000       
     263       16.9200         0.000       
     262       16.8652         0.000       
     261       16.6083         0.000       
     260       16.4907         0.000       
     259       16.3202         0.000       
     258       16.1429         0.000       
     257       16.0208         0.000       
     256       15.7200         0.000       
     255       15.5194         0.000       
     254       15.1636         0.000       
     253       15.0209         0.000       
     252       14.9821         0.000       
     251       14.5673         0.000       
     250       14.5612         0.000       
     249       14.4019         0.000       
     248       14.1330         0.000       
     247       14.0107         0.000       
     246       13.9742         0.000       
     245       13.6740         0.000       
     244       13.5948         0.000       
     243       13.4425         0.000       
     242       13.3391         0.000       
     241       13.2094         0.000       
     240       12.9769         0.000       
     239       12.9368         0.000       
     238       12.7720         0.000       
     237       12.6893         0.000       
     236       12.4878         0.000       
     235       12.4100         0.000       
     234       12.2656         0.000       
     233       12.2318         0.000       
     232       12.0608         0.000       
     231       11.9503         0.000       
     230       11.8363         0.000       
     229       11.6495         0.000       
     228       11.6184         0.000       
     227       11.5582         0.000       
     226       11.3833         0.000       
     225       11.1438         0.000       
     224       11.0391         0.000       
     223       10.9327         0.000       
     222       10.8793         0.000       
     221       10.8229         0.000       
     220       10.6416         0.000       
     219       10.5059         0.000       
     218       10.5006         0.000       
     217       10.3277         0.000       
     216       10.0694         0.000       
     215       10.0079         0.000       
     214        9.9343         0.000       
     213        9.8079         0.000       
     212        9.6829         0.000       
     211        9.6399         0.000       
     210        9.4327         0.000       
     209        9.3882         0.000       
     208        9.2984         0.000       
     207        9.2020         0.000       
     206        9.1501         0.000       
     205        9.0501         0.000       
     204        8.9493         0.000       
     203        8.8207         0.000       
     202        8.7522         0.000       
     201        8.6659         0.000       
     200        8.6057         0.000       
     199        8.5370         0.000       
     198        8.4435         0.000       
     197        8.1464         0.000       
     196        8.0565         0.000       
     195        7.9742         0.000       
     194        7.9441         0.000       
     193        7.8684         0.000       
     192        7.7408         0.000       
     191        7.5656         0.000       
     190        7.4808         0.000       
     189        7.2427         0.000       
     188        6.9971         0.000       
     187        6.9372         0.000       
     186        6.9108         0.000       
     185        6.7948         0.000       
     184        6.6400         0.000       
     183        6.5748         0.000       
     182        6.5123         0.000       
     181        6.3883         0.000       
     180        6.2590         0.000       
     179        6.1624         0.000       
     178        5.9324         0.000       
     177        5.8933         0.000       
     176        5.8135         0.000       
     175        5.6105         0.000       
     174        5.5578         0.000       
     173        5.4407         0.000       
     172        5.4210         0.000       
     171        5.3391         0.000       
     170        5.3094         0.000       
     169        5.1393         0.000       
     168        5.0693         0.000       
     167        4.9768         0.000       
     166        4.8344         0.000       
     165        4.7478         0.000       
     164        4.5982         0.000       
     163        4.5943         0.000       
     162        4.5097         0.000       
     161        4.4151         0.000       
     160        4.3165         0.000       
     159        4.1146         0.000       
     158        3.9365         0.000       
     157        3.8980         0.000       
     156        3.6687         0.000       
     155        3.6077         0.000       
     154        3.5328         0.000       
     153        3.4684         0.000       
     152        3.3256         0.000       
     151        3.2190         0.000       
     150        3.1486         0.000       
     149        2.9680         0.000       
     148        2.9319         0.000       
     147        2.6736         0.000       
     146        2.6161         0.000       
     145        2.5907         0.000       
     144        2.4601         0.000       
     143        2.3571         0.000       
     142        2.1185         0.000       
     141        2.0629         0.000       
     140        1.9438         0.000       
     139        1.8779         0.000       
     138        1.8128         0.000       
     137        1.7143         0.000       
     136        1.5960         0.000       
     135        1.5039         0.000       
     134        1.4003         0.000       
     133        1.3573         0.000       
     132        1.2289         0.000       
     131        1.1713         0.000       
     130        1.0431         0.000       
     129        1.0040         0.000       
     128        0.8039         0.000       
     127        0.6038         0.000       
     126        0.5421         0.000       
     125        0.4879         0.000       
     124        0.3817         0.000       
     123        0.2476         0.000       
     122        0.0485         0.000       
     121       -0.1859         0.000       
     120       -0.3161         0.000       
     119       -0.4610         0.000       
     118       -0.6573         0.000       
     117       -0.8199         0.000       
     116       -1.2501         0.000       
     115       -1.6460         0.000       
     114       -2.4392         0.000 < LUMO
     113       -4.7269         2.000 < HOMO
     112       -5.0759         2.000       
     111       -6.1728         2.000       
     110       -6.3497         2.000       
     109       -6.4501         2.000       
     108       -6.6643         2.000       
     107       -6.7433         2.000       
     106       -7.7036         2.000       
     105       -7.8309         2.000       
     104       -8.0333         2.000       
     103       -8.1890         2.000       
     102       -8.3518         2.000       
     101       -8.4426         2.000       
     100       -8.5102         2.000       
      99       -8.6320         2.000       
      98       -8.8187         2.000       
      97       -8.9097         2.000       
      96       -9.0788         2.000       
      95       -9.1890         2.000       
      94       -9.2518         2.000       
      93       -9.3973         2.000       
      92       -9.4402         2.000       
      91       -9.5575         2.000       
      90       -9.5985         2.000       
      89       -9.6840         2.000       
      88       -9.7932         2.000       
      87       -9.8930         2.000       
      86       -9.9707         2.000       
      85      -10.0759         2.000       
      84      -10.1039         2.000       
      83      -10.1687         2.000       
      82      -10.2208         2.000       
      81      -10.3277         2.000       
      80      -10.4024         2.000       
      79      -10.5093         2.000       
      78      -10.5393         2.000       
      77      -10.6709         2.000       
      76      -10.8060         2.000       
      75      -10.8849         2.000       
      74      -10.9951         2.000       
      73      -11.1617         2.000       
      72      -11.2373         2.000       
      71      -11.3212         2.000       
      70      -11.4047         2.000       
      69      -11.7666         2.000       
      68      -11.9461         2.000       
      67      -12.1009         2.000       
      66      -12.4537         2.000       
      65      -12.7746         2.000       
      64      -12.9572         2.000       
      63      -13.3383         2.000       
      62      -13.3931         2.000       
      61      -13.6018         2.000       
      60      -14.0098         2.000       
      59      -14.2391         2.000       
      58      -14.4549         2.000       
      57      -14.5793         2.000       
      56      -14.8231         2.000       
      55      -15.0151         2.000       
      54      -15.2090         2.000       
      53      -15.2709         2.000       
      52      -16.4088         2.000       
      51      -16.5926         2.000       
      50      -17.0314         2.000       
      49      -17.3916         2.000       
      48      -17.5592         2.000       
      47      -18.1265         2.000       
      46      -18.3381         2.000       
      45      -18.5149         2.000       
      44      -18.8898         2.000       
      43      -19.3055         2.000       
      42      -19.6795         2.000       
      41      -20.0074         2.000       
      40      -20.8656         2.000       
      39      -21.3282         2.000       
      38      -24.5146         2.000       
      37      -25.1570         2.000       
      36      -26.3525         2.000       
      35      -29.6387         2.000       
      34      -30.4770         2.000       
      33      -30.5830         2.000       
      32      -31.2055         2.000       
      31      -32.8903         2.000       
      30     -269.5466         2.000       
      29     -270.0011         2.000       
      28     -270.0992         2.000       
      27     -270.1251         2.000       
      26     -270.1815         2.000       
      25     -270.2010         2.000       
      24     -270.2338         2.000       
      23     -270.2454         2.000       
      22     -270.2478         2.000       
      21     -270.2719         2.000       
      20     -270.3088         2.000       
      19     -270.3527         2.000       
      18     -270.4819         2.000       
      17     -270.5621         2.000       
      16     -270.9869         2.000       
      15     -271.1329         2.000       
      14     -271.3264         2.000       
      13     -271.3361         2.000       
      12     -271.6785         2.000       
      11     -272.7699         2.000       
      10     -274.6927         2.000       
       9     -276.4425         2.000       
       8     -383.7766         2.000       
       7     -510.2617         2.000       
       6     -511.9639         2.000       
       5     -661.5623         2.000       
       4     -661.5898         2.000       
       3     -662.0949         2.000       
       2     -662.1949         2.000       
       1     -662.3186         2.000       

AMS application finished. Exiting.
NORMAL TERMINATION
     Total cpu time:    1169.54
  Total system time:       4.70
 Total elapsed time:    1180.55
NORMAL TERMINATION
